 Entering Gaussian System, Link 0=g09
 Input=/home/matheus/.tcc/Inputs-lc-wpbe/H2O2-Kr_14.com
 Output=/home/matheus/.tcc/Logs-lc-wpbe/H2O2-Kr_14.log
 Initial command:
 /home/matheus/.gaussian/g09/l1.exe /home/matheus/.gaussian/g09/scratch/Gau-12834.inp -scrdir=/home/matheus/.gaussian/g09/scratch/
 Entering Link 1 = /home/matheus/.gaussian/g09/l1.exe PID=     12837.
  
 Copyright (c) 1988,1990,1992,1993,1995,1998,2003,2009,2011,
            Gaussian, Inc.  All Rights Reserved.
  
 This is part of the Gaussian(R) 09 program.  It is based on
 the Gaussian(R) 03 system (copyright 2003, Gaussian, Inc.),
 the Gaussian(R) 98 system (copyright 1998, Gaussian, Inc.),
 the Gaussian(R) 94 system (copyright 1995, Gaussian, Inc.),
 the Gaussian 92(TM) system (copyright 1992, Gaussian, Inc.),
 the Gaussian 90(TM) system (copyright 1990, Gaussian, Inc.),
 the Gaussian 88(TM) system (copyright 1988, Gaussian, Inc.),
 the Gaussian 86(TM) system (copyright 1986, Carnegie Mellon
 University), and the Gaussian 82(TM) system (copyright 1983,
 Carnegie Mellon University). Gaussian is a federally registered
 trademark of Gaussian, Inc.
  
 This software contains proprietary and confidential information,
 including trade secrets, belonging to Gaussian, Inc.
  
 This software is provided under written license and may be
 used, copied, transmitted, or stored only in accord with that
 written license.
  
 The following legend is applicable only to US Government
 contracts under FAR:
  
                    RESTRICTED RIGHTS LEGEND
  
 Use, reproduction and disclosure by the US Government is
 subject to restrictions as set forth in subparagraphs (a)
 and (c) of the Commercial Computer Software - Restricted
 Rights clause in FAR 52.227-19.
  
 Gaussian, Inc.
 340 Quinnipiac St., Bldg. 40, Wallingford CT 06492
  
  
 ---------------------------------------------------------------
 Warning -- This program may not be used in any manner that
 competes with the business of Gaussian, Inc. or will provide
 assistance to any competitor of Gaussian, Inc.  The licensee
 of this program is prohibited from giving any competitor of
 Gaussian, Inc. access to this program.  By using this program,
 the user acknowledges that Gaussian, Inc. is engaged in the
 business of creating and licensing software in the field of
 computational chemistry and represents and warrants to the
 licensee that it is not a competitor of Gaussian, Inc. and that
 it will not use this program in any manner prohibited above.
 ---------------------------------------------------------------
  

 Cite this work as:
 Gaussian 09, Revision C.01,
 M. J. Frisch, G. W. Trucks, H. B. Schlegel, G. E. Scuseria, 
 M. A. Robb, J. R. Cheeseman, G. Scalmani, V. Barone, B. Mennucci, 
 G. A. Petersson, H. Nakatsuji, M. Caricato, X. Li, H. P. Hratchian, 
 A. F. Izmaylov, J. Bloino, G. Zheng, J. L. Sonnenberg, M. Hada, 
 M. Ehara, K. Toyota, R. Fukuda, J. Hasegawa, M. Ishida, T. Nakajima, 
 Y. Honda, O. Kitao, H. Nakai, T. Vreven, J. A. Montgomery, Jr., 
 J. E. Peralta, F. Ogliaro, M. Bearpark, J. J. Heyd, E. Brothers, 
 K. N. Kudin, V. N. Staroverov, T. Keith, R. Kobayashi, J. Normand, 
 K. Raghavachari, A. Rendell, J. C. Burant, S. S. Iyengar, J. Tomasi, 
 M. Cossi, N. Rega, J. M. Millam, M. Klene, J. E. Knox, J. B. Cross, 
 V. Bakken, C. Adamo, J. Jaramillo, R. Gomperts, R. E. Stratmann, 
 O. Yazyev, A. J. Austin, R. Cammi, C. Pomelli, J. W. Ochterski, 
 R. L. Martin, K. Morokuma, V. G. Zakrzewski, G. A. Voth, 
 P. Salvador, J. J. Dannenberg, S. Dapprich, A. D. Daniels, 
 O. Farkas, J. B. Foresman, J. V. Ortiz, J. Cioslowski, 
 and D. J. Fox, Gaussian, Inc., Wallingford CT, 2010.
 
 ******************************************
 Gaussian 09:  EM64L-G09RevC.01 23-Sep-2011
                 8-May-2020 
 ******************************************
 %mem=8GB
 %nproc=8
 Will use up to    8 processors via shared memory.
 ----------------------------------------------------------------------
 #p lc-wpbe/aug-cc-PVTz iop(3/107=0550000000) iop(3/108=0550000000) int
 =ultrafine counterpoise=2 Scan
 ----------------------------------------------------------------------
 1/38=1,60=1,62=2/1,8;
 2/12=2,17=6,18=5,29=3,40=1/2;
 1/38=1,53=5172,62=2/22;
 3/5=16,6=1,7=10,11=2,16=1,25=1,30=1,74=-41,75=-5,107=550000000,108=550000000/1,2,3;
 4//1;
 5/5=2,38=5/2;
 6/7=2,8=2,9=2,10=2,18=1,28=1/1;
 1/53=4052,62=2,63=1/22;
 3/5=7,6=11,7=10,11=2,16=1,25=1,30=1,74=-41,75=-5,82=7,107=550000000,108=550000000/1,2,3;
 4//1;
 5/5=2,38=5/2;
 6/7=2,8=2,9=2,10=2,18=1,28=1/1;
 1/53=3042,62=2,63=2/22;
 3/5=7,6=11,7=10,11=2,16=1,25=1,30=1,74=-41,75=-5,82=7,107=550000000,108=550000000/1,2,3;
 4//1;
 5/5=2,38=5/2;
 6/7=2,8=2,9=2,10=2,18=1,28=1/1;
 1/53=2032,62=2,63=3/22;
 3/5=7,6=11,7=10,11=2,16=1,25=1,30=1,74=-41,75=-5,82=7,107=550000000,108=550000000/1,2,3;
 4//1;
 5/5=2,38=5/2;
 6/7=2,8=2,9=2,10=2,18=1,28=1/1;
 1/53=1022,62=2,63=4/22;
 3/5=7,6=11,7=10,11=2,16=1,25=1,30=1,74=-41,75=-5,82=7,107=550000000,108=550000000/1,2,3;
 4//1;
 5/5=2,38=5/2;
 6/7=2,8=2,9=2,10=2,18=1,28=1/1;
 1/53=5014,62=2,63=5/22;
 1/60=1,62=2/8(1);
 99/9=1/99;
 2/29=3/2;
 1/53=5173,62=2/22;
 3/5=7,6=11,7=10,11=2,16=1,25=1,30=1,74=-41,75=-5,82=7,107=550000000,108=550000000/1,2,3;
 4/5=5,16=3/1;
 5/5=2,38=5/2;
 1/53=4053,62=2,63=1/22;
 3/5=7,6=11,7=10,11=2,16=1,25=1,30=1,74=-41,75=-5,82=7,107=550000000,108=550000000/1,2,3;
 4/5=5,16=3/1;
 5/5=2,38=5/2;
 1/53=3043,62=2,63=2/22;
 3/5=7,6=11,7=10,11=2,16=1,25=1,30=1,74=-41,75=-5,82=7,107=550000000,108=550000000/1,2,3;
 4/5=5,16=3/1;
 5/5=2,38=5/2;
 1/53=2033,62=2,63=3/22;
 3/5=7,6=11,7=10,11=2,16=1,25=1,30=1,74=-41,75=-5,82=7,107=550000000,108=550000000/1,2,3;
 4/5=5,16=3/1;
 5/5=2,38=5/2;
 1/53=1024,62=2,63=4/22;
 3/5=7,6=11,7=10,11=2,16=1,25=1,30=1,74=-41,75=-5,82=7,107=550000000,108=550000000/1,2,3;
 4/5=5,16=3/1;
 5/5=2,38=5/2;
 1/53=5014,62=2,63=5/22;
 1/60=1,62=2/8(-22);
 99/9=1/99;
 Leave Link    1 at Fri May  8 14:06:53 2020, MaxMem= 1073741824 cpu:       0.1
 (Enter /home/matheus/.gaussian/g09/l101.exe)
 ---
 TCC
 ---
 Charge =  0 Multiplicity = 1 in supermolecule
 Charge =  0 Multiplicity = 1 in fragment  1.
 Charge =  0 Multiplicity = 1 in fragment  2.
 Symbolic Z-Matrix:
 O(Fragment=1)         0.        0.        0.725 
 O(Fragment=1)         0.        0.       -0.725 
 H(Fragment=1)         0.59054  -0.70378   1.02351 
 H(Fragment=1)         0.        0.91872  -1.02351 
 Kr(Fragment=2)        0.       R1        0. 
       Variables:
  R1                    3.     Scan 20    0.1    
 
 NAtoms=      5 NQM=        0 NQMF=       0 NMMI=      5 NMMIF=      0
                NMic=       0 NMicF=      0.
                    Isotopes and Nuclear Properties:
 (Nuclear quadrupole moments (NQMom) in fm**2, nuclear magnetic moments (NMagM)
  in nuclear magnetons)

  Atom         1           2           3           4           5
 IAtWgt=          16          16           1           1          84
 AtmWgt=  15.9949146  15.9949146   1.0078250   1.0078250  83.9115064
 NucSpn=           0           0           1           1           0
 AtZEff=   0.0000000   0.0000000   0.0000000   0.0000000   0.0000000
 NQMom=    0.0000000   0.0000000   0.0000000   0.0000000   0.0000000
 NMagM=    0.0000000   0.0000000   2.7928460   2.7928460   0.0000000
 Leave Link  101 at Fri May  8 14:06:53 2020, MaxMem= 1073741824 cpu:       0.3
 (Enter /home/matheus/.gaussian/g09/l108.exe)
 Scan the potential surface.
 Variable   Value     No. Steps Step-Size
 -------- ----------- --------- ---------
     1       3.000000      20      0.1000
 A total of     21 points will be computed.
 Leave Link  108 at Fri May  8 14:06:53 2020, MaxMem= 1073741824 cpu:       0.0
 (Enter /home/matheus/.gaussian/g09/l202.exe)
 ---------------------------------------------------------------------------------------------------
                            Z-MATRIX (ANGSTROMS AND DEGREES)
   CD    Cent   Atom    N1       Length/X        N2       Alpha/Y        N3        Beta/Z          J
 ---------------------------------------------------------------------------------------------------
      1      1  O        0   0.000000          0.000000          0.725000
      2      2  O        0   0.000000          0.000000         -0.725000
      3      3  H        0   0.590542         -0.703781          1.023510
      4      4  H        0   0.000000          0.918721         -1.023510
      5      5  Kr       0   0.000000          3.000000          0.000000
 ---------------------------------------------------------------------------------------------------
                         Z-Matrix orientation:                         
 ---------------------------------------------------------------------
 Center     Atomic      Atomic             Coordinates (Angstroms)
 Number     Number       Type             X           Y           Z
 ---------------------------------------------------------------------
      1          8           0        0.000000    0.000000    0.725000
      2          8           0        0.000000    0.000000   -0.725000
      3          1           0        0.590542   -0.703781    1.023510
      4          1           0        0.000000    0.918721   -1.023510
      5         36           0        0.000000    3.000000    0.000000
 ---------------------------------------------------------------------
                    Distance matrix (angstroms):
                    1          2          3          4          5
     1  O    0.000000
     2  O    1.450000   0.000000
     3  H    0.966000   1.975180   0.000000
     4  H    1.975180   0.966000   2.677974   0.000000
     5  Kr   3.086361   3.086361   3.887712   2.319331   0.000000
 Stoichiometry    H2KrO2
 Framework group  C1[X(H2KrO2)]
 Deg. of freedom     9
 Full point group                 C1      NOp   1
 Largest Abelian subgroup         C1      NOp   1
 Largest concise Abelian subgroup C1      NOp   1
                         Standard orientation:                         
 ---------------------------------------------------------------------
 Center     Atomic      Atomic             Coordinates (Angstroms)
 Number     Number       Type             X           Y           Z
 ---------------------------------------------------------------------
      1          8           0        2.015651   -0.687348   -0.079909
      2          8           0        1.990960    0.760101    0.002433
      3          1           0        2.733117   -1.006163    0.482902
      4          1           0        1.067391    1.041693    0.032139
      5         36           0       -0.995928   -0.017154    0.002910
 ---------------------------------------------------------------------
 Rotational constants (GHZ):     26.2569855      2.3123407      2.1308521
 Leave Link  202 at Fri May  8 14:06:53 2020, MaxMem= 1073741824 cpu:       0.0
 (Enter /home/matheus/.gaussian/g09/l122.exe)
 Leave Link  122 at Fri May  8 14:06:53 2020, MaxMem= 1073741824 cpu:       0.0
 (Enter /home/matheus/.gaussian/g09/l301.exe)
 Standard basis: Aug-CC-pVTZ (5D, 7F)
 Ernie: Thresh=  0.10000D-02 Tol=  0.10000D-05 Strict=F.
 Ernie:  38 primitive shells out of 205 were deleted.
 There are   197 symmetry adapted basis functions of A   symmetry.
 Integral buffers will be    131072 words long.
 Raffenetti 2 integral format.
 Two-electron integral symmetry is turned on.
   197 basis functions,   415 primitive gaussians,   229 cartesian basis functions
    27 alpha electrons       27 beta electrons
       nuclear repulsion energy       148.4787781510 Hartrees.
 IExCor=32609 DFT=T Ex+Corr=LC-wPBE ExCW=0 ScaHFX=  1.000000
 ScaDFX=  1.000000  0.000000  1.000000  1.000000 ScalE2=  1.000000  1.000000
 IRadAn=      5 IRanWt=     -1 IRanGd=            0 ICorTp=0
  HFx wShort=  0.000000 wLong=  0.550000 cFull=  0.000000 cShort=  0.000000 cLong=  1.000000
  DFx wShort=  0.000000 wLong=  0.550000 cFull=  0.000000 cShort=  0.000000 cLong=  1.000000
 NAtoms=    5 NActive=    5 NUniq=    5 SFac= 1.00D+00 NAtFMM=   60 NAOKFM=F Big=F
 Leave Link  301 at Fri May  8 14:06:53 2020, MaxMem= 1073741824 cpu:       0.2
 (Enter /home/matheus/.gaussian/g09/l302.exe)
 NPDir=0 NMtPBC=     1 NCelOv=     1 NCel=       1 NClECP=     1 NCelD=      1
         NCelK=      1 NCelE2=     1 NClLst=     1 CellRange=     0.0.
 One-electron integrals computed using PRISM.
 NBasis=   197 RedAO= T  NBF=   197
 NBsUse=   197 1.00D-06 NBFU=   197
 Precomputing XC quadrature grid using
 IXCGrd= 2 IRadAn=           5 IRanWt=          -1 IRanGd=           0 AccXCQ= 0.00D+00.
 NRdTot=     427 NPtTot=      123814 NUsed=      126881 NTot=      126913
 NSgBfM=   229   229   229   229   229 NAtAll=     5     5.
 Leave Link  302 at Fri May  8 14:06:53 2020, MaxMem= 1073741824 cpu:       0.9
 (Enter /home/matheus/.gaussian/g09/l303.exe)
 DipDrv:  MaxL=1.
 Leave Link  303 at Fri May  8 14:06:53 2020, MaxMem= 1073741824 cpu:       0.2
 (Enter /home/matheus/.gaussian/g09/l401.exe)
 Harris functional with IExCor=32609 diagonalized for initial guess.
 ExpMin= 2.53D-02 ExpMax= 1.17D+07 ExpMxC= 1.33D+04 IAcc=3 IRadAn=         5 AccDes= 0.00D+00
 HarFok:  IExCor=32609 AccDes= 0.00D+00 IRadAn=         5 IDoV= 1
 ScaDFX=  1.000000  1.000000  1.000000  1.000000
 FoFCou: FMM=F IPFlag=           0 FMFlag=      100000 FMFlg1=           0
         NFxFlg=           0 DoJE=T BraDBF=F KetDBF=T FulRan=T
         Omega=  0.000000  0.000000  1.000000  0.000000  0.000000 ICntrl=     500 IOpCl=  0
         NMat0=    1 NMatS0=    1 NMatT0=    0 NMatD0=    1 NMtDS0=    0 NMtDT0=    0
         I1Cent=           4 NGrid=           0.
 Petite list used in FoFCou.
 Harris En= -2904.73809687785    
 Initial guess orbital symmetries:
       Occupied  (A) (A) (A) (A) (A) (A) (A) (A) (A) (A) (A) (A)
                 (A) (A) (A) (A) (A) (A) (A) (A) (A) (A) (A) (A)
                 (A) (A) (A)
       Virtual   (A) (A) (A) (A) (A) (A) (A) (A) (A) (A) (A) (A)
                 (A) (A) (A) (A) (A) (A) (A) (A) (A) (A) (A) (A)
                 (A) (A) (A) (A) (A) (A) (A) (A) (A) (A) (A) (A)
                 (A) (A) (A) (A) (A) (A) (A) (A) (A) (A) (A) (A)
                 (A) (A) (A) (A) (A) (A) (A) (A) (A) (A) (A) (A)
                 (A) (A) (A) (A) (A) (A) (A) (A) (A) (A) (A) (A)
                 (A) (A) (A) (A) (A) (A) (A) (A) (A) (A) (A) (A)
                 (A) (A) (A) (A) (A) (A) (A) (A) (A) (A) (A) (A)
                 (A) (A) (A) (A) (A) (A) (A) (A) (A) (A) (A) (A)
                 (A) (A) (A) (A) (A) (A) (A) (A) (A) (A) (A) (A)
                 (A) (A) (A) (A) (A) (A) (A) (A) (A) (A) (A) (A)
                 (A) (A) (A) (A) (A) (A) (A) (A) (A) (A) (A) (A)
                 (A) (A) (A) (A) (A) (A) (A) (A) (A) (A) (A) (A)
                 (A) (A) (A) (A) (A) (A) (A) (A) (A) (A) (A) (A)
                 (A) (A)
 The electronic state of the initial guess is 1-A.
 Leave Link  401 at Fri May  8 14:06:54 2020, MaxMem= 1073741824 cpu:       3.9
 (Enter /home/matheus/.gaussian/g09/l502.exe)
 Closed shell SCF:
 Requested convergence on RMS density matrix=1.00D-08 within 128 cycles.
 Requested convergence on MAX density matrix=1.00D-06.
 Requested convergence on             energy=1.00D-06.
 No special actions if energy rises.
 Using DIIS extrapolation, IDIIS=  1040.
 Integral symmetry usage will be decided dynamically.
       126823 words used for storage of precomputed grid.
 IEnd=      305770 IEndB=      305770 NGot=  1073741824 MDV=  1073505365
 LenX=  1073505365 LenY=  1073452483
 Fock matrices will be formed incrementally for  20 cycles.

 Cycle   1  Pass 1  IDiag  1:
 FoFJK:  IHMeth= 1 ICntrl=     0 DoSepK=T KAlg= 1 I1Cent= 0 FoldK=F
 FoFCou: FMM=F IPFlag=           0 FMFlag=      100000 FMFlg1=           0
         NFxFlg=           0 DoJE=T BraDBF=F KetDBF=F FulRan=T
         Omega=  0.000000  0.000000  1.000000  0.000000  0.000000 ICntrl=     500 IOpCl=  0
         NMat0=    1 NMatS0=    1 NMatT0=    0 NMatD0=    1 NMtDS0=    0 NMtDT0=    0
         I1Cent=           0 NGrid=           0.
 Symmetry not used in FoFCou.
 E= -2904.93284374188    
 DIIS: error= 2.90D-02 at cycle   1 NSaved=   1.
 NSaved= 1 IEnMin= 1 EnMin= -2904.93284374188     IErMin= 1 ErrMin= 2.90D-02
 ErrMax= 2.90D-02 EMaxC= 1.00D-01 BMatC= 2.66D-01 BMatP= 2.66D-01
 IDIUse=3 WtCom= 7.10D-01 WtEn= 2.90D-01
 Coeff-Com:  0.100D+01
 Coeff-En:   0.100D+01
 Coeff:      0.100D+01
 Gap=     0.546 Goal=   None    Shift=    0.000
 GapD=    0.546 DampG=2.000 DampE=0.500 DampFc=1.0000 IDamp=-1.
 RMSDP=2.22D-03 MaxDP=1.43D-01              OVMax= 6.11D-02

 Cycle   2  Pass 1  IDiag  1:
 RMSU=  1.55D-03    CP:  1.02D+00
 FoFJK:  IHMeth= 1 ICntrl=     0 DoSepK=T KAlg= 1 I1Cent= 0 FoldK=F
 E= -2904.98290215203     Delta-E=       -0.050058410155 Rises=F Damp=F
 DIIS: error= 1.15D-02 at cycle   2 NSaved=   2.
 NSaved= 2 IEnMin= 2 EnMin= -2904.98290215203     IErMin= 2 ErrMin= 1.15D-02
 ErrMax= 1.15D-02 EMaxC= 1.00D-01 BMatC= 6.65D-02 BMatP= 2.66D-01
 IDIUse=3 WtCom= 8.85D-01 WtEn= 1.15D-01
 Coeff-Com:  0.326D+00 0.674D+00
 Coeff-En:   0.817D-01 0.918D+00
 Coeff:      0.298D+00 0.702D+00
 Gap=     0.475 Goal=   None    Shift=    0.000
 RMSDP=8.73D-04 MaxDP=5.01D-02 DE=-5.01D-02 OVMax= 2.53D-02

 Cycle   3  Pass 1  IDiag  1:
 RMSU=  3.10D-04    CP:  1.01D+00  6.66D-01
 FoFJK:  IHMeth= 1 ICntrl=     0 DoSepK=T KAlg= 1 I1Cent= 0 FoldK=F
 E= -2905.00521186388     Delta-E=       -0.022309711850 Rises=F Damp=F
 DIIS: error= 1.61D-03 at cycle   3 NSaved=   3.
 NSaved= 3 IEnMin= 3 EnMin= -2905.00521186388     IErMin= 3 ErrMin= 1.61D-03
 ErrMax= 1.61D-03 EMaxC= 1.00D-01 BMatC= 1.33D-03 BMatP= 6.65D-02
 IDIUse=3 WtCom= 9.84D-01 WtEn= 1.61D-02
 Coeff-Com:  0.369D-01 0.165D+00 0.798D+00
 Coeff-En:   0.000D+00 0.000D+00 0.100D+01
 Coeff:      0.363D-01 0.163D+00 0.801D+00
 Gap=     0.459 Goal=   None    Shift=    0.000
 RMSDP=9.72D-05 MaxDP=3.16D-03 DE=-2.23D-02 OVMax= 5.75D-03

 Cycle   4  Pass 1  IDiag  1:
 RMSU=  4.72D-05    CP:  1.01D+00  6.97D-01  9.60D-01
 FoFJK:  IHMeth= 1 ICntrl=     0 DoSepK=T KAlg= 1 I1Cent= 0 FoldK=F
 E= -2905.00586151107     Delta-E=       -0.000649647193 Rises=F Damp=F
 DIIS: error= 4.37D-04 at cycle   4 NSaved=   4.
 NSaved= 4 IEnMin= 4 EnMin= -2905.00586151107     IErMin= 4 ErrMin= 4.37D-04
 ErrMax= 4.37D-04 EMaxC= 1.00D-01 BMatC= 7.73D-05 BMatP= 1.33D-03
 IDIUse=3 WtCom= 9.96D-01 WtEn= 4.37D-03
 Coeff-Com: -0.573D-02 0.195D-01 0.269D+00 0.717D+00
 Coeff-En:   0.000D+00 0.000D+00 0.000D+00 0.100D+01
 Coeff:     -0.571D-02 0.194D-01 0.268D+00 0.719D+00
 Gap=     0.463 Goal=   None    Shift=    0.000
 RMSDP=2.92D-05 MaxDP=1.81D-03 DE=-6.50D-04 OVMax= 1.69D-03

 Cycle   5  Pass 1  IDiag  1:
 RMSU=  1.27D-05    CP:  1.01D+00  7.00D-01  1.01D+00  8.72D-01
 FoFJK:  IHMeth= 1 ICntrl=     0 DoSepK=T KAlg= 1 I1Cent= 0 FoldK=F
 E= -2905.00590905954     Delta-E=       -0.000047548468 Rises=F Damp=F
 DIIS: error= 7.00D-05 at cycle   5 NSaved=   5.
 NSaved= 5 IEnMin= 5 EnMin= -2905.00590905954     IErMin= 5 ErrMin= 7.00D-05
 ErrMax= 7.00D-05 EMaxC= 1.00D-01 BMatC= 2.39D-06 BMatP= 7.73D-05
 IDIUse=1 WtCom= 1.00D+00 WtEn= 0.00D+00
 Coeff-Com: -0.232D-02-0.504D-02-0.767D-03 0.115D+00 0.893D+00
 Coeff:     -0.232D-02-0.504D-02-0.767D-03 0.115D+00 0.893D+00
 Gap=     0.463 Goal=   None    Shift=    0.000
 RMSDP=6.98D-06 MaxDP=2.04D-04 DE=-4.75D-05 OVMax= 4.86D-04

 Cycle   6  Pass 1  IDiag  1:
 RMSU=  3.56D-06    CP:  1.01D+00  7.00D-01  1.01D+00  9.32D-01  1.09D+00
 FoFJK:  IHMeth= 1 ICntrl=     0 DoSepK=T KAlg= 1 I1Cent= 0 FoldK=F
 E= -2905.00591111926     Delta-E=       -0.000002059719 Rises=F Damp=F
 DIIS: error= 4.87D-05 at cycle   6 NSaved=   6.
 NSaved= 6 IEnMin= 6 EnMin= -2905.00591111926     IErMin= 6 ErrMin= 4.87D-05
 ErrMax= 4.87D-05 EMaxC= 1.00D-01 BMatC= 7.31D-07 BMatP= 2.39D-06
 IDIUse=1 WtCom= 1.00D+00 WtEn= 0.00D+00
 Coeff-Com: -0.385D-03-0.432D-02-0.292D-01-0.238D-01 0.378D+00 0.680D+00
 Coeff:     -0.385D-03-0.432D-02-0.292D-01-0.238D-01 0.378D+00 0.680D+00
 Gap=     0.463 Goal=   None    Shift=    0.000
 RMSDP=3.03D-06 MaxDP=1.45D-04 DE=-2.06D-06 OVMax= 2.14D-04

 Cycle   7  Pass 1  IDiag  1:
 RMSU=  1.47D-06    CP:  1.01D+00  7.00D-01  1.01D+00  9.48D-01  1.19D+00
                    CP:  8.90D-01
 FoFJK:  IHMeth= 1 ICntrl=     0 DoSepK=T KAlg= 1 I1Cent= 0 FoldK=F
 E= -2905.00591163914     Delta-E=       -0.000000519878 Rises=F Damp=F
 DIIS: error= 1.65D-05 at cycle   7 NSaved=   7.
 NSaved= 7 IEnMin= 7 EnMin= -2905.00591163914     IErMin= 7 ErrMin= 1.65D-05
 ErrMax= 1.65D-05 EMaxC= 1.00D-01 BMatC= 6.67D-08 BMatP= 7.31D-07
 IDIUse=1 WtCom= 1.00D+00 WtEn= 0.00D+00
 Coeff-Com:  0.129D-03-0.809D-03-0.918D-02-0.216D-01-0.424D-02 0.231D+00
 Coeff-Com:  0.805D+00
 Coeff:      0.129D-03-0.809D-03-0.918D-02-0.216D-01-0.424D-02 0.231D+00
 Coeff:      0.805D+00
 Gap=     0.463 Goal=   None    Shift=    0.000
 RMSDP=1.19D-06 MaxDP=5.15D-05 DE=-5.20D-07 OVMax= 9.65D-05

 Cycle   8  Pass 1  IDiag  1:
 RMSU=  4.53D-07    CP:  1.01D+00  7.00D-01  1.01D+00  9.54D-01  1.22D+00
                    CP:  1.02D+00  9.62D-01
 FoFJK:  IHMeth= 1 ICntrl=     0 DoSepK=T KAlg= 1 I1Cent= 0 FoldK=F
 E= -2905.00591171180     Delta-E=       -0.000000072661 Rises=F Damp=F
 DIIS: error= 2.88D-06 at cycle   8 NSaved=   8.
 NSaved= 8 IEnMin= 8 EnMin= -2905.00591171180     IErMin= 8 ErrMin= 2.88D-06
 ErrMax= 2.88D-06 EMaxC= 1.00D-01 BMatC= 2.17D-09 BMatP= 6.67D-08
 IDIUse=1 WtCom= 1.00D+00 WtEn= 0.00D+00
 Coeff-Com:  0.180D-04 0.490D-03 0.378D-02 0.544D-02-0.267D-01-0.983D-01
 Coeff-Com: -0.157D+00 0.127D+01
 Coeff:      0.180D-04 0.490D-03 0.378D-02 0.544D-02-0.267D-01-0.983D-01
 Coeff:     -0.157D+00 0.127D+01
 Gap=     0.463 Goal=   None    Shift=    0.000
 RMSDP=5.04D-07 MaxDP=1.57D-05 DE=-7.27D-08 OVMax= 5.04D-05

 Cycle   9  Pass 1  IDiag  1:
 RMSU=  1.18D-07    CP:  1.01D+00  7.00D-01  1.01D+00  9.56D-01  1.23D+00
                    CP:  1.04D+00  1.03D+00  1.54D+00
 FoFJK:  IHMeth= 1 ICntrl=     0 DoSepK=T KAlg= 1 I1Cent= 0 FoldK=F
 E= -2905.00591171886     Delta-E=       -0.000000007062 Rises=F Damp=F
 DIIS: error= 6.09D-07 at cycle   9 NSaved=   9.
 NSaved= 9 IEnMin= 9 EnMin= -2905.00591171886     IErMin= 9 ErrMin= 6.09D-07
 ErrMax= 6.09D-07 EMaxC= 1.00D-01 BMatC= 7.89D-11 BMatP= 2.17D-09
 IDIUse=1 WtCom= 1.00D+00 WtEn= 0.00D+00
 Coeff-Com: -0.809D-05-0.323D-04-0.141D-03 0.137D-03 0.402D-02 0.247D-02
 Coeff-Com: -0.138D-01-0.153D+00 0.116D+01
 Coeff:     -0.809D-05-0.323D-04-0.141D-03 0.137D-03 0.402D-02 0.247D-02
 Coeff:     -0.138D-01-0.153D+00 0.116D+01
 Gap=     0.463 Goal=   None    Shift=    0.000
 RMSDP=1.29D-07 MaxDP=6.72D-06 DE=-7.06D-09 OVMax= 1.12D-05

 Cycle  10  Pass 1  IDiag  1:
 RMSU=  3.32D-08    CP:  1.01D+00  7.00D-01  1.01D+00  9.56D-01  1.23D+00
                    CP:  1.03D+00  1.03D+00  1.65D+00  1.36D+00
 FoFJK:  IHMeth= 1 ICntrl=     0 DoSepK=T KAlg= 1 I1Cent= 0 FoldK=F
 E= -2905.00591171920     Delta-E=       -0.000000000333 Rises=F Damp=F
 DIIS: error= 2.91D-07 at cycle  10 NSaved=  10.
 NSaved=10 IEnMin=10 EnMin= -2905.00591171920     IErMin=10 ErrMin= 2.91D-07
 ErrMax= 2.91D-07 EMaxC= 1.00D-01 BMatC= 1.11D-11 BMatP= 7.89D-11
 IDIUse=1 WtCom= 1.00D+00 WtEn= 0.00D+00
 Coeff-Com:  0.705D-07-0.254D-04-0.210D-03-0.413D-03 0.127D-02 0.609D-02
 Coeff-Com:  0.120D-01-0.691D-01-0.152D+00 0.120D+01
 Coeff:      0.705D-07-0.254D-04-0.210D-03-0.413D-03 0.127D-02 0.609D-02
 Coeff:      0.120D-01-0.691D-01-0.152D+00 0.120D+01
 Gap=     0.463 Goal=   None    Shift=    0.000
 RMSDP=4.72D-08 MaxDP=1.92D-06 DE=-3.33D-10 OVMax= 5.84D-06

 Cycle  11  Pass 1  IDiag  1:
 RMSU=  1.08D-08    CP:  1.01D+00  7.00D-01  1.01D+00  9.56D-01  1.23D+00
                    CP:  1.03D+00  1.03D+00  1.68D+00  1.50D+00  1.56D+00
 FoFJK:  IHMeth= 1 ICntrl=     0 DoSepK=T KAlg= 1 I1Cent= 0 FoldK=F
 E= -2905.00591171925     Delta-E=       -0.000000000050 Rises=F Damp=F
 DIIS: error= 1.30D-07 at cycle  11 NSaved=  11.
 NSaved=11 IEnMin=11 EnMin= -2905.00591171925     IErMin=11 ErrMin= 1.30D-07
 ErrMax= 1.30D-07 EMaxC= 1.00D-01 BMatC= 1.81D-12 BMatP= 1.11D-11
 IDIUse=1 WtCom= 1.00D+00 WtEn= 0.00D+00
 Coeff-Com:  0.104D-05 0.990D-05 0.685D-04 0.657D-04-0.885D-03-0.160D-02
 Coeff-Com: -0.800D-04 0.361D-01-0.129D+00-0.265D+00 0.136D+01
 Coeff:      0.104D-05 0.990D-05 0.685D-04 0.657D-04-0.885D-03-0.160D-02
 Coeff:     -0.800D-04 0.361D-01-0.129D+00-0.265D+00 0.136D+01
 Gap=     0.463 Goal=   None    Shift=    0.000
 RMSDP=2.19D-08 MaxDP=4.94D-07 DE=-5.05D-11 OVMax= 3.32D-06

 Cycle  12  Pass 1  IDiag  1:
 RMSU=  3.95D-09    CP:  1.01D+00  7.00D-01  1.01D+00  9.56D-01  1.23D+00
                    CP:  1.03D+00  1.03D+00  1.69D+00  1.54D+00  1.90D+00
                    CP:  1.69D+00
 FoFJK:  IHMeth= 1 ICntrl=     0 DoSepK=T KAlg= 1 I1Cent= 0 FoldK=F
 E= -2905.00591171928     Delta-E=       -0.000000000030 Rises=F Damp=F
 DIIS: error= 2.81D-08 at cycle  12 NSaved=  12.
 NSaved=12 IEnMin=12 EnMin= -2905.00591171928     IErMin=12 ErrMin= 2.81D-08
 ErrMax= 2.81D-08 EMaxC= 1.00D-01 BMatC= 2.07D-13 BMatP= 1.81D-12
 IDIUse=1 WtCom= 1.00D+00 WtEn= 0.00D+00
 Coeff-Com: -0.578D-07 0.408D-05 0.343D-04 0.742D-04-0.229D-03-0.104D-02
 Coeff-Com: -0.189D-02 0.119D-01 0.239D-01-0.183D+00-0.151D-02 0.115D+01
 Coeff:     -0.578D-07 0.408D-05 0.343D-04 0.742D-04-0.229D-03-0.104D-02
 Coeff:     -0.189D-02 0.119D-01 0.239D-01-0.183D+00-0.151D-02 0.115D+01
 Gap=     0.463 Goal=   None    Shift=    0.000
 RMSDP=7.18D-09 MaxDP=1.62D-07 DE=-2.96D-11 OVMax= 1.09D-06

 SCF Done:  E(RLC-wPBE) =  -2905.00591172     A.U. after   12 cycles
             Convg  =    0.7176D-08             -V/T =  2.0017
 KE= 2.900028116247D+03 PE=-7.234054819408D+03 EE= 1.280542013291D+03
 Leave Link  502 at Fri May  8 14:07:29 2020, MaxMem= 1073741824 cpu:     283.4
 (Enter /home/matheus/.gaussian/g09/l601.exe)
 Copying SCF densities to generalized density rwf, IOpCl= 0 IROHF=0.

 **********************************************************************

            Population analysis using the SCF density.

 **********************************************************************

 Orbital symmetries:
       Occupied  (A) (A) (A) (A) (A) (A) (A) (A) (A) (A) (A) (A)
                 (A) (A) (A) (A) (A) (A) (A) (A) (A) (A) (A) (A)
                 (A) (A) (A)
       Virtual   (A) (A) (A) (A) (A) (A) (A) (A) (A) (A) (A) (A)
                 (A) (A) (A) (A) (A) (A) (A) (A) (A) (A) (A) (A)
                 (A) (A) (A) (A) (A) (A) (A) (A) (A) (A) (A) (A)
                 (A) (A) (A) (A) (A) (A) (A) (A) (A) (A) (A) (A)
                 (A) (A) (A) (A) (A) (A) (A) (A) (A) (A) (A) (A)
                 (A) (A) (A) (A) (A) (A) (A) (A) (A) (A) (A) (A)
                 (A) (A) (A) (A) (A) (A) (A) (A) (A) (A) (A) (A)
                 (A) (A) (A) (A) (A) (A) (A) (A) (A) (A) (A) (A)
                 (A) (A) (A) (A) (A) (A) (A) (A) (A) (A) (A) (A)
                 (A) (A) (A) (A) (A) (A) (A) (A) (A) (A) (A) (A)
                 (A) (A) (A) (A) (A) (A) (A) (A) (A) (A) (A) (A)
                 (A) (A) (A) (A) (A) (A) (A) (A) (A) (A) (A) (A)
                 (A) (A) (A) (A) (A) (A) (A) (A) (A) (A) (A) (A)
                 (A) (A) (A) (A) (A) (A) (A) (A) (A) (A) (A) (A)
                 (A) (A)
 The electronic state is 1-A.
 Alpha  occ. eigenvalues -- -511.19495 -66.74334 -60.40455 -60.40436 -60.40427
 Alpha  occ. eigenvalues --  -19.11123 -19.10765  -9.67905  -7.42201  -7.42145
 Alpha  occ. eigenvalues --   -7.42119  -3.36600  -3.36589  -3.36571  -3.36530
 Alpha  occ. eigenvalues --   -3.36528  -1.31934  -1.10281  -1.09225  -0.70382
 Alpha  occ. eigenvalues --   -0.66936  -0.58164  -0.54158  -0.53580  -0.52959
 Alpha  occ. eigenvalues --   -0.49306  -0.42920
 Alpha virt. eigenvalues --    0.03361   0.04257   0.08497   0.10118   0.11129
 Alpha virt. eigenvalues --    0.11421   0.13895   0.14875   0.16830   0.17807
 Alpha virt. eigenvalues --    0.19048   0.20706   0.20870   0.23254   0.24568
 Alpha virt. eigenvalues --    0.25423   0.27246   0.29810   0.32343   0.34615
 Alpha virt. eigenvalues --    0.34920   0.35058   0.37014   0.40079   0.40951
 Alpha virt. eigenvalues --    0.42619   0.43024   0.49307   0.54158   0.57078
 Alpha virt. eigenvalues --    0.58357   0.60728   0.64624   0.67970   0.70086
 Alpha virt. eigenvalues --    0.73048   0.73482   0.74533   0.75456   0.77927
 Alpha virt. eigenvalues --    0.78417   0.80274   0.80833   0.82360   0.84236
 Alpha virt. eigenvalues --    0.86831   0.87655   0.89576   0.91474   0.93363
 Alpha virt. eigenvalues --    0.95195   0.96121   0.98733   0.98997   1.01071
 Alpha virt. eigenvalues --    1.04434   1.05215   1.07487   1.10258   1.12479
 Alpha virt. eigenvalues --    1.13318   1.15792   1.18204   1.20532   1.24188
 Alpha virt. eigenvalues --    1.28977   1.34665   1.36689   1.41226   1.43461
 Alpha virt. eigenvalues --    1.45410   1.52989   1.55885   1.58266   1.63885
 Alpha virt. eigenvalues --    1.66053   1.78714   1.86779   1.87158   1.97185
 Alpha virt. eigenvalues --    2.01718   2.04520   2.09357   2.17209   2.18520
 Alpha virt. eigenvalues --    2.19290   2.22777   2.24732   2.26857   2.28037
 Alpha virt. eigenvalues --    2.29230   2.34648   2.35465   2.36494   2.38417
 Alpha virt. eigenvalues --    2.40975   2.43468   2.48541   2.51312   2.53864
 Alpha virt. eigenvalues --    2.53917   2.55710   2.56940   2.60113   2.62139
 Alpha virt. eigenvalues --    2.63644   2.66033   2.69527   2.70500   2.74296
 Alpha virt. eigenvalues --    2.77415   2.78991   2.86310   2.88719   2.92512
 Alpha virt. eigenvalues --    2.97348   3.09255   3.13971   3.18509   3.65913
 Alpha virt. eigenvalues --    3.71473   3.90472   4.03933   4.05530   4.08346
 Alpha virt. eigenvalues --    4.12065   4.19535   4.23639   4.28078   4.30735
 Alpha virt. eigenvalues --    4.49434   4.52131   4.56842   4.57883   4.75981
 Alpha virt. eigenvalues --    4.96193   5.04712   5.06838   5.13147   5.16288
 Alpha virt. eigenvalues --    5.32683   5.47156   5.87924   6.09459   6.11208
 Alpha virt. eigenvalues --    6.16054   6.37007   6.40148   6.44792   6.56428
 Alpha virt. eigenvalues --    6.70040   6.77888   6.80785   6.86670   6.90034
 Alpha virt. eigenvalues --    6.90203   6.94759   6.95943   7.00526   7.06041
 Alpha virt. eigenvalues --    7.07987   7.25617   7.29875   7.43516   7.76397
 Alpha virt. eigenvalues --    7.84715   8.09569   8.15824  13.96955  14.59935
          Condensed to atoms (all electrons):
              1          2          3          4          5
     1  O    8.184027  -0.187432   0.224706  -0.001464  -0.030425
     2  O   -0.187432   8.225456   0.008754   0.214833  -0.008687
     3  H    0.224706   0.008754   0.555982   0.003207   0.003719
     4  H   -0.001464   0.214833   0.003207   0.561030  -0.014888
     5  Kr  -0.030425  -0.008687   0.003719  -0.014888  36.048859
 Mulliken atomic charges:
              1
     1  O   -0.189412
     2  O   -0.252925
     3  H    0.203633
     4  H    0.237283
     5  Kr   0.001421
 Sum of Mulliken atomic charges =   0.00000
 Mulliken charges with hydrogens summed into heavy atoms:
              1
     1  O    0.014221
     2  O   -0.015642
     5  Kr   0.001421
 Sum of Mulliken charges with hydrogens summed into heavy atoms =   0.00000
          Condensed to fragments (all electrons):
     1      -0.001421
     2       0.001421
 Electronic spatial extent (au):  <R**2>=            490.2157
 Charge=              0.0000 electrons
 Dipole moment (field-independent basis, Debye):
    X=             -0.5330    Y=             -0.3447    Z=              1.0362  Tot=              1.2152
 Quadrupole moment (field-independent basis, Debye-Ang):
   XX=            -28.3185   YY=            -28.0616   ZZ=            -29.8288
   XY=             -3.7074   XZ=              3.0804   YZ=             -1.1334
 Traceless Quadrupole moment (field-independent basis, Debye-Ang):
   XX=              0.4178   YY=              0.6747   ZZ=             -1.0925
   XY=             -3.7074   XZ=              3.0804   YZ=             -1.1334
 Octapole moment (field-independent basis, Debye-Ang**2):
  XXX=             -9.5396  YYY=             -0.8260  ZZZ=              0.5961  XYY=             -4.2960
  XXY=            -14.7837  XXZ=              8.7164  XZZ=             -6.9291  YZZ=             -0.9294
  YYZ=              1.3779  XYZ=             -3.3055
 Hexadecapole moment (field-independent basis, Debye-Ang**3):
 XXXX=           -374.6014 YYYY=            -62.9788 ZZZZ=            -29.1963 XXXY=            -43.7884
 XXXZ=             25.2564 YYYX=             -5.7798 YYYZ=             -1.4871 ZZZX=              1.8807
 ZZZY=             -0.8448 XXYY=            -75.3383 XXZZ=            -74.7871 YYZZ=            -16.6778
 XXYZ=             -9.4594 YYXZ=              3.7938 ZZXY=             -2.0553
 N-N= 1.484787781510D+02 E-N=-7.234054818794D+03  KE= 2.900028116247D+03
 No NMR shielding tensors so no spin-rotation constants.
 Leave Link  601 at Fri May  8 14:07:29 2020, MaxMem= 1073741824 cpu:       0.8
 (Enter /home/matheus/.gaussian/g09/l122.exe)
 Counterpoise: doing DCBS calculation for fragment   1 NewBq=T
 Leave Link  122 at Fri May  8 14:07:29 2020, MaxMem= 1073741824 cpu:       0.0
 (Enter /home/matheus/.gaussian/g09/l301.exe)
 Basis read from rwf:  (5D, 7F)
 No pseudopotential information found on rwf file.
 There are   197 symmetry adapted basis functions of A   symmetry.
 Integral buffers will be    131072 words long.
 Raffenetti 2 integral format.
 Two-electron integral symmetry is turned on.
   197 basis functions,   415 primitive gaussians,   229 cartesian basis functions
     9 alpha electrons        9 beta electrons
       nuclear repulsion energy        36.6058450489 Hartrees.
 IExCor=32609 DFT=T Ex+Corr=LC-wPBE ExCW=0 ScaHFX=  1.000000
 ScaDFX=  1.000000  0.000000  1.000000  1.000000 ScalE2=  1.000000  1.000000
 IRadAn=      5 IRanWt=     -1 IRanGd=            0 ICorTp=0
  HFx wShort=  0.000000 wLong=  0.550000 cFull=  0.000000 cShort=  0.000000 cLong=  1.000000
  DFx wShort=  0.000000 wLong=  0.550000 cFull=  0.000000 cShort=  0.000000 cLong=  1.000000
 NAtoms=    5 NActive=    5 NUniq=    5 SFac= 1.00D+00 NAtFMM=   60 NAOKFM=F Big=F
 No density basis found on file   718.
 Leave Link  301 at Fri May  8 14:07:29 2020, MaxMem= 1073741824 cpu:       0.2
 (Enter /home/matheus/.gaussian/g09/l302.exe)
 NPDir=0 NMtPBC=     1 NCelOv=     1 NCel=       1 NClECP=     1 NCelD=      1
         NCelK=      1 NCelE2=     1 NClLst=     1 CellRange=     0.0.
 One-electron integrals computed using PRISM.
 NBasis=   197 RedAO= T  NBF=   197
 NBsUse=   197 1.00D-06 NBFU=   197
 Precomputing XC quadrature grid using
 IXCGrd= 2 IRadAn=           5 IRanWt=          -1 IRanGd=           0 AccXCQ= 0.00D+00.
 NRdTot=     427 NPtTot=      123814 NUsed=      126881 NTot=      126913
 NSgBfM=   229   229   229   229   229 NAtAll=     5     5.
 Leave Link  302 at Fri May  8 14:07:29 2020, MaxMem= 1073741824 cpu:       1.0
 (Enter /home/matheus/.gaussian/g09/l303.exe)
 DipDrv:  MaxL=1.
 Leave Link  303 at Fri May  8 14:07:29 2020, MaxMem= 1073741824 cpu:       0.2
 (Enter /home/matheus/.gaussian/g09/l401.exe)
 Harris functional with IExCor=32609 diagonalized for initial guess.
 ExpMin= 2.53D-02 ExpMax= 1.17D+07 ExpMxC= 1.33D+04 IAcc=3 IRadAn=         5 AccDes= 0.00D+00
 HarFok:  IExCor=32609 AccDes= 0.00D+00 IRadAn=         5 IDoV= 1
 ScaDFX=  1.000000  1.000000  1.000000  1.000000
 FoFCou: FMM=F IPFlag=           0 FMFlag=      100000 FMFlg1=           0
         NFxFlg=           0 DoJE=T BraDBF=F KetDBF=T FulRan=T
         Omega=  0.000000  0.000000  1.000000  0.000000  0.000000 ICntrl=     500 IOpCl=  0
         NMat0=    1 NMatS0=    1 NMatT0=    0 NMatD0=    1 NMtDS0=    0 NMtDT0=    0
         I1Cent=           4 NGrid=           0.
 Petite list used in FoFCou.
 Harris En= -151.500892935306    
 Initial guess orbital symmetries:
       Occupied  (A) (A) (A) (A) (A) (A) (A) (A) (A)
       Virtual   (A) (A) (A) (A) (A) (A) (A) (A) (A) (A) (A) (A)
                 (A) (A) (A) (A) (A) (A) (A) (A) (A) (A) (A) (A)
                 (A) (A) (A) (A) (A) (A) (A) (A) (A) (A) (A) (A)
                 (A) (A) (A) (A) (A) (A) (A) (A) (A) (A) (A) (A)
                 (A) (A) (A) (A) (A) (A) (A) (A) (A) (A) (A) (A)
                 (A) (A) (A) (A) (A) (A) (A) (A) (A) (A) (A) (A)
                 (A) (A) (A) (A) (A) (A) (A) (A) (A) (A) (A) (A)
                 (A) (A) (A) (A) (A) (A) (A) (A) (A) (A) (A) (A)
                 (A) (A) (A) (A) (A) (A) (A) (A) (A) (A) (A) (A)
                 (A) (A) (A) (A) (A) (A) (A) (A) (A) (A) (A) (A)
                 (A) (A) (A) (A) (A) (A) (A) (A) (A) (A) (A) (A)
                 (A) (A) (A) (A) (A) (A) (A) (A) (A) (A) (A) (A)
                 (A) (A) (A) (A) (A) (A) (A) (A) (A) (A) (A) (A)
                 (A) (A) (A) (A) (A) (A) (A) (A) (A) (A) (A) (A)
                 (A) (A) (A) (A) (A) (A) (A) (A) (A) (A) (A) (A)
                 (A) (A) (A) (A) (A) (A) (A) (A)
 The electronic state of the initial guess is 1-A.
 Leave Link  401 at Fri May  8 14:07:30 2020, MaxMem= 1073741824 cpu:       3.9
 (Enter /home/matheus/.gaussian/g09/l502.exe)
 Closed shell SCF:
 Requested convergence on RMS density matrix=1.00D-08 within 128 cycles.
 Requested convergence on MAX density matrix=1.00D-06.
 Requested convergence on             energy=1.00D-06.
 No special actions if energy rises.
 Using DIIS extrapolation, IDIIS=  1040.
 Integral symmetry usage will be decided dynamically.
       126823 words used for storage of precomputed grid.
 IEnd=      305770 IEndB=      305770 NGot=  1073741824 MDV=  1073505365
 LenX=  1073505365 LenY=  1073452483
 Fock matrices will be formed incrementally for  20 cycles.

 Cycle   1  Pass 1  IDiag  1:
 FoFJK:  IHMeth= 1 ICntrl=     0 DoSepK=T KAlg= 1 I1Cent= 0 FoldK=F
 FoFCou: FMM=F IPFlag=           0 FMFlag=      100000 FMFlg1=           0
         NFxFlg=           0 DoJE=T BraDBF=F KetDBF=F FulRan=T
         Omega=  0.000000  0.000000  1.000000  0.000000  0.000000 ICntrl=     500 IOpCl=  0
         NMat0=    1 NMatS0=    1 NMatT0=    0 NMatD0=    1 NMtDS0=    0 NMtDT0=    0
         I1Cent=           0 NGrid=           0.
 Symmetry not used in FoFCou.
 E= -151.507744343124    
 DIIS: error= 1.14D-02 at cycle   1 NSaved=   1.
 NSaved= 1 IEnMin= 1 EnMin= -151.507744343124     IErMin= 1 ErrMin= 1.14D-02
 ErrMax= 1.14D-02 EMaxC= 1.00D-01 BMatC= 4.01D-02 BMatP= 4.01D-02
 IDIUse=3 WtCom= 8.86D-01 WtEn= 1.14D-01
 Coeff-Com:  0.100D+01
 Coeff-En:   0.100D+01
 Coeff:      0.100D+01
 Gap=     0.547 Goal=   None    Shift=    0.000
 GapD=    0.547 DampG=2.000 DampE=0.500 DampFc=1.0000 IDamp=-1.
 RMSDP=7.24D-04 MaxDP=2.40D-02              OVMax= 5.00D-02

 Cycle   2  Pass 1  IDiag  1:
 RMSU=  5.05D-04    CP:  9.88D-01
 FoFJK:  IHMeth= 1 ICntrl=     0 DoSepK=T KAlg= 1 I1Cent= 0 FoldK=F
 E= -151.523808532697     Delta-E=       -0.016064189573 Rises=F Damp=F
 DIIS: error= 7.30D-03 at cycle   2 NSaved=   2.
 NSaved= 2 IEnMin= 2 EnMin= -151.523808532697     IErMin= 2 ErrMin= 7.30D-03
 ErrMax= 7.30D-03 EMaxC= 1.00D-01 BMatC= 1.53D-02 BMatP= 4.01D-02
 IDIUse=3 WtCom= 9.27D-01 WtEn= 7.30D-02
 Coeff-Com:  0.367D+00 0.633D+00
 Coeff-En:   0.106D+00 0.894D+00
 Coeff:      0.348D+00 0.652D+00
 Gap=     0.466 Goal=   None    Shift=    0.000
 RMSDP=3.90D-04 MaxDP=2.21D-02 DE=-1.61D-02 OVMax= 2.16D-02

 Cycle   3  Pass 1  IDiag  1:
 RMSU=  2.38D-04    CP:  9.84D-01  7.32D-01
 FoFJK:  IHMeth= 1 ICntrl=     0 DoSepK=T KAlg= 1 I1Cent= 0 FoldK=F
 E= -151.532283610487     Delta-E=       -0.008475077791 Rises=F Damp=F
 DIIS: error= 1.22D-03 at cycle   3 NSaved=   3.
 NSaved= 3 IEnMin= 3 EnMin= -151.532283610487     IErMin= 3 ErrMin= 1.22D-03
 ErrMax= 1.22D-03 EMaxC= 1.00D-01 BMatC= 3.67D-04 BMatP= 1.53D-02
 IDIUse=3 WtCom= 9.88D-01 WtEn= 1.22D-02
 Coeff-Com:  0.387D-01 0.153D+00 0.808D+00
 Coeff-En:   0.000D+00 0.000D+00 0.100D+01
 Coeff:      0.382D-01 0.151D+00 0.810D+00
 Gap=     0.459 Goal=   None    Shift=    0.000
 RMSDP=5.67D-05 MaxDP=2.33D-03 DE=-8.48D-03 OVMax= 3.98D-03

 Cycle   4  Pass 1  IDiag  1:
 RMSU=  2.81D-05    CP:  9.82D-01  7.80D-01  1.03D+00
 FoFJK:  IHMeth= 1 ICntrl=     0 DoSepK=T KAlg= 1 I1Cent= 0 FoldK=F
 E= -151.532518923528     Delta-E=       -0.000235313041 Rises=F Damp=F
 DIIS: error= 2.28D-04 at cycle   4 NSaved=   4.
 NSaved= 4 IEnMin= 4 EnMin= -151.532518923528     IErMin= 4 ErrMin= 2.28D-04
 ErrMax= 2.28D-04 EMaxC= 1.00D-01 BMatC= 9.41D-06 BMatP= 3.67D-04
 IDIUse=3 WtCom= 9.98D-01 WtEn= 2.28D-03
 Coeff-Com: -0.876D-02-0.124D-01 0.886D-01 0.933D+00
 Coeff-En:   0.000D+00 0.000D+00 0.000D+00 0.100D+01
 Coeff:     -0.874D-02-0.124D-01 0.884D-01 0.933D+00
 Gap=     0.461 Goal=   None    Shift=    0.000
 RMSDP=1.50D-05 MaxDP=9.98D-04 DE=-2.35D-04 OVMax= 8.18D-04

 Cycle   5  Pass 1  IDiag  1:
 RMSU=  4.37D-06    CP:  9.82D-01  7.81D-01  1.07D+00  1.08D+00
 FoFJK:  IHMeth= 1 ICntrl=     0 DoSepK=T KAlg= 1 I1Cent= 0 FoldK=F
 E= -151.532527529927     Delta-E=       -0.000008606399 Rises=F Damp=F
 DIIS: error= 4.35D-05 at cycle   5 NSaved=   5.
 NSaved= 5 IEnMin= 5 EnMin= -151.532527529927     IErMin= 5 ErrMin= 4.35D-05
 ErrMax= 4.35D-05 EMaxC= 1.00D-01 BMatC= 2.36D-07 BMatP= 9.41D-06
 IDIUse=1 WtCom= 1.00D+00 WtEn= 0.00D+00
 Coeff-Com: -0.445D-03-0.251D-02-0.375D-01-0.123D+00 0.116D+01
 Coeff:     -0.445D-03-0.251D-02-0.375D-01-0.123D+00 0.116D+01
 Gap=     0.461 Goal=   None    Shift=    0.000
 RMSDP=3.85D-06 MaxDP=1.44D-04 DE=-8.61D-06 OVMax= 3.93D-04

 Cycle   6  Pass 1  IDiag  1:
 RMSU=  1.21D-06    CP:  9.81D-01  7.82D-01  1.07D+00  1.13D+00  1.35D+00
 FoFJK:  IHMeth= 1 ICntrl=     0 DoSepK=T KAlg= 1 I1Cent= 0 FoldK=F
 E= -151.532528151883     Delta-E=       -0.000000621956 Rises=F Damp=F
 DIIS: error= 8.54D-06 at cycle   6 NSaved=   6.
 NSaved= 6 IEnMin= 6 EnMin= -151.532528151883     IErMin= 6 ErrMin= 8.54D-06
 ErrMax= 8.54D-06 EMaxC= 1.00D-01 BMatC= 1.23D-08 BMatP= 2.36D-07
 IDIUse=1 WtCom= 1.00D+00 WtEn= 0.00D+00
 Coeff-Com:  0.321D-03 0.932D-03 0.360D-02-0.888D-02-0.193D+00 0.120D+01
 Coeff:      0.321D-03 0.932D-03 0.360D-02-0.888D-02-0.193D+00 0.120D+01
 Gap=     0.461 Goal=   None    Shift=    0.000
 RMSDP=9.41D-07 MaxDP=2.22D-05 DE=-6.22D-07 OVMax= 1.20D-04

 Cycle   7  Pass 1  IDiag  1:
 RMSU=  3.04D-07    CP:  9.81D-01  7.82D-01  1.07D+00  1.15D+00  1.42D+00
                    CP:  1.32D+00
 FoFJK:  IHMeth= 1 ICntrl=     0 DoSepK=T KAlg= 1 I1Cent= 0 FoldK=F
 E= -151.532528210201     Delta-E=       -0.000000058318 Rises=F Damp=F
 DIIS: error= 1.99D-06 at cycle   7 NSaved=   7.
 NSaved= 7 IEnMin= 7 EnMin= -151.532528210201     IErMin= 7 ErrMin= 1.99D-06
 ErrMax= 1.99D-06 EMaxC= 1.00D-01 BMatC= 6.46D-10 BMatP= 1.23D-08
 IDIUse=1 WtCom= 1.00D+00 WtEn= 0.00D+00
 Coeff-Com: -0.143D-04-0.252D-04 0.108D-02 0.639D-02-0.301D-01-0.169D+00
 Coeff-Com:  0.119D+01
 Coeff:     -0.143D-04-0.252D-04 0.108D-02 0.639D-02-0.301D-01-0.169D+00
 Coeff:      0.119D+01
 Gap=     0.461 Goal=   None    Shift=    0.000
 RMSDP=3.15D-07 MaxDP=1.25D-05 DE=-5.83D-08 OVMax= 3.46D-05

 Cycle   8  Pass 1  IDiag  1:
 RMSU=  6.62D-08    CP:  9.81D-01  7.82D-01  1.07D+00  1.15D+00  1.43D+00
                    CP:  1.40D+00  1.37D+00
 FoFJK:  IHMeth= 1 ICntrl=     0 DoSepK=T KAlg= 1 I1Cent= 0 FoldK=F
 E= -151.532528212694     Delta-E=       -0.000000002493 Rises=F Damp=F
 DIIS: error= 4.38D-07 at cycle   8 NSaved=   8.
 NSaved= 8 IEnMin= 8 EnMin= -151.532528212694     IErMin= 8 ErrMin= 4.38D-07
 ErrMax= 4.38D-07 EMaxC= 1.00D-01 BMatC= 6.57D-11 BMatP= 6.46D-10
 IDIUse=1 WtCom= 1.00D+00 WtEn= 0.00D+00
 Coeff-Com: -0.148D-04-0.500D-04-0.159D-03 0.472D-03 0.102D-01-0.720D-01
 Coeff-Com:  0.641D-01 0.997D+00
 Coeff:     -0.148D-04-0.500D-04-0.159D-03 0.472D-03 0.102D-01-0.720D-01
 Coeff:      0.641D-01 0.997D+00
 Gap=     0.461 Goal=   None    Shift=    0.000
 RMSDP=8.75D-08 MaxDP=4.94D-06 DE=-2.49D-09 OVMax= 7.29D-06

 Cycle   9  Pass 1  IDiag  1:
 RMSU=  2.30D-08    CP:  9.81D-01  7.82D-01  1.07D+00  1.15D+00  1.43D+00
                    CP:  1.41D+00  1.47D+00  1.35D+00
 FoFJK:  IHMeth= 1 ICntrl=     0 DoSepK=T KAlg= 1 I1Cent= 0 FoldK=F
 E= -151.532528212839     Delta-E=       -0.000000000145 Rises=F Damp=F
 DIIS: error= 3.16D-07 at cycle   9 NSaved=   9.
 NSaved= 9 IEnMin= 9 EnMin= -151.532528212839     IErMin= 9 ErrMin= 3.16D-07
 ErrMax= 3.16D-07 EMaxC= 1.00D-01 BMatC= 3.22D-11 BMatP= 6.57D-11
 IDIUse=1 WtCom= 1.00D+00 WtEn= 0.00D+00
 Coeff-Com: -0.620D-05-0.238D-04-0.236D-03-0.682D-03 0.101D-01-0.165D-01
 Coeff-Com: -0.131D+00 0.494D+00 0.645D+00
 Coeff:     -0.620D-05-0.238D-04-0.236D-03-0.682D-03 0.101D-01-0.165D-01
 Coeff:     -0.131D+00 0.494D+00 0.645D+00
 Gap=     0.461 Goal=   None    Shift=    0.000
 RMSDP=3.06D-08 MaxDP=1.59D-06 DE=-1.45D-10 OVMax= 3.42D-06

 Cycle  10  Pass 1  IDiag  1:
 RMSU=  1.11D-08    CP:  9.81D-01  7.82D-01  1.07D+00  1.15D+00  1.43D+00
                    CP:  1.41D+00  1.49D+00  1.52D+00  1.02D+00
 FoFJK:  IHMeth= 1 ICntrl=     0 DoSepK=T KAlg= 1 I1Cent= 0 FoldK=F
 E= -151.532528212881     Delta-E=       -0.000000000042 Rises=F Damp=F
 DIIS: error= 1.27D-07 at cycle  10 NSaved=  10.
 NSaved=10 IEnMin=10 EnMin= -151.532528212881     IErMin=10 ErrMin= 1.27D-07
 ErrMax= 1.27D-07 EMaxC= 1.00D-01 BMatC= 2.80D-12 BMatP= 3.22D-11
 IDIUse=1 WtCom= 1.00D+00 WtEn= 0.00D+00
 Coeff-Com:  0.342D-05 0.145D-04 0.933D-04 0.697D-04-0.408D-02 0.151D-01
 Coeff-Com:  0.281D-01-0.324D+00-0.929D-01 0.138D+01
 Coeff:      0.342D-05 0.145D-04 0.933D-04 0.697D-04-0.408D-02 0.151D-01
 Coeff:      0.281D-01-0.324D+00-0.929D-01 0.138D+01
 Gap=     0.461 Goal=   None    Shift=    0.000
 RMSDP=2.36D-08 MaxDP=4.98D-07 DE=-4.16D-11 OVMax= 3.71D-06

 Cycle  11  Pass 1  IDiag  1:
 RMSU=  4.78D-09    CP:  9.81D-01  7.82D-01  1.07D+00  1.15D+00  1.43D+00
                    CP:  1.41D+00  1.51D+00  1.66D+00  1.41D+00  1.74D+00
 FoFJK:  IHMeth= 1 ICntrl=     0 DoSepK=T KAlg= 1 I1Cent= 0 FoldK=F
 E= -151.532528212895     Delta-E=       -0.000000000015 Rises=F Damp=F
 DIIS: error= 4.03D-08 at cycle  11 NSaved=  11.
 NSaved=11 IEnMin=11 EnMin= -151.532528212895     IErMin=11 ErrMin= 4.03D-08
 ErrMax= 4.03D-08 EMaxC= 1.00D-01 BMatC= 3.33D-13 BMatP= 2.80D-12
 IDIUse=1 WtCom= 1.00D+00 WtEn= 0.00D+00
 Coeff-Com:  0.292D-06 0.150D-05 0.280D-04 0.141D-03-0.119D-02-0.247D-03
 Coeff-Com:  0.234D-01-0.447D-01-0.977D-01-0.209D+00 0.133D+01
 Coeff:      0.292D-06 0.150D-05 0.280D-04 0.141D-03-0.119D-02-0.247D-03
 Coeff:      0.234D-01-0.447D-01-0.977D-01-0.209D+00 0.133D+01
 Gap=     0.461 Goal=   None    Shift=    0.000
 RMSDP=1.03D-08 MaxDP=2.25D-07 DE=-1.48D-11 OVMax= 1.60D-06

 Cycle  12  Pass 1  IDiag  1:
 RMSU=  8.46D-10    CP:  9.81D-01  7.82D-01  1.07D+00  1.15D+00  1.43D+00
                    CP:  1.41D+00  1.51D+00  1.70D+00  1.56D+00  2.14D+00
                    CP:  1.63D+00
 FoFJK:  IHMeth= 1 ICntrl=     0 DoSepK=T KAlg= 1 I1Cent= 0 FoldK=F
 E= -151.532528212896     Delta-E=       -0.000000000001 Rises=F Damp=F
 DIIS: error= 8.26D-09 at cycle  12 NSaved=  12.
 NSaved=12 IEnMin=12 EnMin= -151.532528212896     IErMin=12 ErrMin= 8.26D-09
 ErrMax= 8.26D-09 EMaxC= 1.00D-01 BMatC= 9.69D-15 BMatP= 3.33D-13
 IDIUse=1 WtCom= 1.00D+00 WtEn= 0.00D+00
 Coeff-Com: -0.277D-06-0.151D-05-0.103D-04-0.110D-04 0.397D-03-0.119D-02
 Coeff-Com: -0.420D-02 0.283D-01 0.203D-01-0.616D-01-0.194D+00 0.121D+01
 Coeff:     -0.277D-06-0.151D-05-0.103D-04-0.110D-04 0.397D-03-0.119D-02
 Coeff:     -0.420D-02 0.283D-01 0.203D-01-0.616D-01-0.194D+00 0.121D+01
 Gap=     0.461 Goal=   None    Shift=    0.000
 RMSDP=1.50D-09 MaxDP=3.27D-08 DE=-9.66D-13 OVMax= 2.15D-07

 SCF Done:  E(RLC-wPBE) =  -151.532528213     A.U. after   12 cycles
             Convg  =    0.1497D-08             -V/T =  2.0071
 KE= 1.504642879157D+02 PE=-4.315420781151D+02 EE= 9.293941693756D+01
 Leave Link  502 at Fri May  8 14:08:03 2020, MaxMem= 1073741824 cpu:     268.1
 (Enter /home/matheus/.gaussian/g09/l601.exe)
 Copying SCF densities to generalized density rwf, IOpCl= 0 IROHF=0.

 **********************************************************************

            Population analysis using the SCF density.

 **********************************************************************

 Orbital symmetries:
       Occupied  (A) (A) (A) (A) (A) (A) (A) (A) (A)
       Virtual   (A) (A) (A) (A) (A) (A) (A) (A) (A) (A) (A) (A)
                 (A) (A) (A) (A) (A) (A) (A) (A) (A) (A) (A) (A)
                 (A) (A) (A) (A) (A) (A) (A) (A) (A) (A) (A) (A)
                 (A) (A) (A) (A) (A) (A) (A) (A) (A) (A) (A) (A)
                 (A) (A) (A) (A) (A) (A) (A) (A) (A) (A) (A) (A)
                 (A) (A) (A) (A) (A) (A) (A) (A) (A) (A) (A) (A)
                 (A) (A) (A) (A) (A) (A) (A) (A) (A) (A) (A) (A)
                 (A) (A) (A) (A) (A) (A) (A) (A) (A) (A) (A) (A)
                 (A) (A) (A) (A) (A) (A) (A) (A) (A) (A) (A) (A)
                 (A) (A) (A) (A) (A) (A) (A) (A) (A) (A) (A) (A)
                 (A) (A) (A) (A) (A) (A) (A) (A) (A) (A) (A) (A)
                 (A) (A) (A) (A) (A) (A) (A) (A) (A) (A) (A) (A)
                 (A) (A) (A) (A) (A) (A) (A) (A) (A) (A) (A) (A)
                 (A) (A) (A) (A) (A) (A) (A) (A) (A) (A) (A) (A)
                 (A) (A) (A) (A) (A) (A) (A) (A) (A) (A) (A) (A)
                 (A) (A) (A) (A) (A) (A) (A) (A)
 The electronic state is 1-A.
 Alpha  occ. eigenvalues --  -19.11282 -19.11276  -1.32123  -1.09746  -0.70486
 Alpha  occ. eigenvalues --   -0.66467  -0.58170  -0.49794  -0.43170
 Alpha virt. eigenvalues --    0.02896   0.03714   0.07269   0.08831   0.10273
 Alpha virt. eigenvalues --    0.11047   0.11551   0.14306   0.16894   0.17128
 Alpha virt. eigenvalues --    0.19391   0.19717   0.21541   0.23592   0.25842
 Alpha virt. eigenvalues --    0.27661   0.30704   0.31672   0.32745   0.33639
 Alpha virt. eigenvalues --    0.35514   0.38364   0.38860   0.40596   0.41242
 Alpha virt. eigenvalues --    0.42793   0.44253   0.47719   0.49130   0.50118
 Alpha virt. eigenvalues --    0.55721   0.58285   0.60827   0.64987   0.70020
 Alpha virt. eigenvalues --    0.72095   0.75601   0.76007   0.77229   0.78455
 Alpha virt. eigenvalues --    0.81050   0.83657   0.88571   0.91162   0.91972
 Alpha virt. eigenvalues --    0.92816   0.95402   0.97126   0.98847   1.00689
 Alpha virt. eigenvalues --    1.01449   1.05652   1.07306   1.09744   1.13123
 Alpha virt. eigenvalues --    1.13598   1.16071   1.18355   1.23935   1.24988
 Alpha virt. eigenvalues --    1.26924   1.31234   1.32334   1.33287   1.34098
 Alpha virt. eigenvalues --    1.34680   1.36053   1.37104   1.38517   1.40811
 Alpha virt. eigenvalues --    1.47685   1.51399   1.55185   1.55882   1.56620
 Alpha virt. eigenvalues --    1.59638   1.65750   1.70241   1.70792   1.81934
 Alpha virt. eigenvalues --    1.85438   1.87299   1.90272   1.99379   2.04114
 Alpha virt. eigenvalues --    2.10200   2.12093   2.18892   2.21192   2.25972
 Alpha virt. eigenvalues --    2.30665   2.32451   2.34860   2.38613   2.47337
 Alpha virt. eigenvalues --    2.51312   2.56268   2.57649   2.65431   2.69085
 Alpha virt. eigenvalues --    2.73155   2.77340   2.86438   2.88331   2.94852
 Alpha virt. eigenvalues --    3.08383   3.12830   3.14502   3.26125   3.30716
 Alpha virt. eigenvalues --    3.41965   3.56909   3.63242   3.71698   3.78959
 Alpha virt. eigenvalues --    3.79254   3.82250   3.82703   3.83474   3.84765
 Alpha virt. eigenvalues --    3.88084   3.90629   3.92561   3.95490   3.97271
 Alpha virt. eigenvalues --    4.02819   4.05674   4.09130   4.10573   4.14125
 Alpha virt. eigenvalues --    4.18761   4.23207   4.28238   4.33949   4.38017
 Alpha virt. eigenvalues --    4.50284   4.56565   4.58244   4.76070   4.96706
 Alpha virt. eigenvalues --    5.04640   5.06971   5.13218   5.16504   5.33039
 Alpha virt. eigenvalues --    5.46981   5.87686   6.09347   6.11084   6.15742
 Alpha virt. eigenvalues --    6.36960   6.40109   6.44646   6.56307   6.69885
 Alpha virt. eigenvalues --    6.77668   6.80549   6.86510   6.89762   6.89919
 Alpha virt. eigenvalues --    6.94498   6.95741   7.00407   7.05827   7.07859
 Alpha virt. eigenvalues --    7.25430   7.29598   7.43369   7.76237   7.84448
 Alpha virt. eigenvalues --    8.09397   8.15270  10.89153  13.96914  14.58261
 Alpha virt. eigenvalues --   14.83538  14.88669  15.10800  29.03267  29.03744
 Alpha virt. eigenvalues --   29.08193  29.13732  29.23295  49.10526 148.31611
 Alpha virt. eigenvalues --  148.38904 148.71502 752.49452
          Condensed to atoms (all electrons):
              1          2          3          4          5
     1  O    8.193177  -0.183378   0.208821  -0.006124   0.000012
     2  O   -0.183378   8.190948   0.009245   0.214402  -0.000096
     3  H    0.208821   0.009245   0.564651   0.004867   0.000002
     4  H   -0.006124   0.214402   0.004867   0.562851  -0.004101
     5  Kr   0.000012  -0.000096   0.000002  -0.004101   0.001072
 Mulliken atomic charges:
              1
     1  O   -0.212509
     2  O   -0.231121
     3  H    0.212415
     4  H    0.228104
     5  Kr   0.003110
 Sum of Mulliken atomic charges =   0.00000
 Mulliken charges with hydrogens summed into heavy atoms:
              1
     1  O   -0.000094
     2  O   -0.003016
     5  Kr   0.003110
 Sum of Mulliken charges with hydrogens summed into heavy atoms =   0.00000
          Condensed to fragments (all electrons):
     1      -0.003110
     2       0.003110
 Electronic spatial extent (au):  <R**2>=            323.6091
 Charge=              0.0000 electrons
 Dipole moment (field-independent basis, Debye):
    X=             -0.3721    Y=             -0.0670    Z=              1.0691  Tot=              1.1339
 Quadrupole moment (field-independent basis, Debye-Ang):
   XX=            -10.7620   YY=            -10.5479   ZZ=            -12.3696
   XY=             -3.8827   XZ=              3.0544   YZ=             -1.1324
 Traceless Quadrupole moment (field-independent basis, Debye-Ang):
   XX=              0.4645   YY=              0.6786   ZZ=             -1.1431
   XY=             -3.8827   XZ=              3.0544   YZ=             -1.1324
 Octapole moment (field-independent basis, Debye-Ang**2):
  XXX=            -60.9052  YYY=             -1.3510  ZZZ=              0.8048  XYY=            -21.6109
  XXY=            -14.7410  XXZ=              8.8109  XZZ=            -24.2886  YZZ=             -1.1032
  YYZ=              1.4458  XYZ=             -3.3058
 Hexadecapole moment (field-independent basis, Debye-Ang**3):
 XXXX=           -251.2423 YYYY=            -45.1261 ZZZZ=            -11.4447 XXXY=            -43.1679
 XXXZ=             25.0566 YYYX=             -5.2462 YYYZ=             -1.4874 ZZZX=              1.6801
 ZZZY=             -0.8458 XXYY=            -51.8632 XXZZ=            -51.4576 YYZZ=            -10.7401
 XXYZ=             -9.4680 YYXZ=              3.7225 ZZXY=             -1.8398
 N-N= 3.660584504895D+01 E-N=-4.315420780728D+02  KE= 1.504642879157D+02
 No NMR shielding tensors so no spin-rotation constants.
 Leave Link  601 at Fri May  8 14:08:04 2020, MaxMem= 1073741824 cpu:       0.8
 (Enter /home/matheus/.gaussian/g09/l122.exe)
 Counterpoise: doing DCBS calculation for fragment   2 NewBq=T
 Leave Link  122 at Fri May  8 14:08:04 2020, MaxMem= 1073741824 cpu:       0.0
 (Enter /home/matheus/.gaussian/g09/l301.exe)
 Basis read from rwf:  (5D, 7F)
 No pseudopotential information found on rwf file.
 There are   197 symmetry adapted basis functions of A   symmetry.
 Integral buffers will be    131072 words long.
 Raffenetti 2 integral format.
 Two-electron integral symmetry is turned on.
   197 basis functions,   415 primitive gaussians,   229 cartesian basis functions
    18 alpha electrons       18 beta electrons
       nuclear repulsion energy         0.0000000000 Hartrees.
 IExCor=32609 DFT=T Ex+Corr=LC-wPBE ExCW=0 ScaHFX=  1.000000
 ScaDFX=  1.000000  0.000000  1.000000  1.000000 ScalE2=  1.000000  1.000000
 IRadAn=      5 IRanWt=     -1 IRanGd=            0 ICorTp=0
  HFx wShort=  0.000000 wLong=  0.550000 cFull=  0.000000 cShort=  0.000000 cLong=  1.000000
  DFx wShort=  0.000000 wLong=  0.550000 cFull=  0.000000 cShort=  0.000000 cLong=  1.000000
 NAtoms=    5 NActive=    5 NUniq=    5 SFac= 1.00D+00 NAtFMM=   60 NAOKFM=F Big=F
 No density basis found on file   718.
 Leave Link  301 at Fri May  8 14:08:04 2020, MaxMem= 1073741824 cpu:       0.2
 (Enter /home/matheus/.gaussian/g09/l302.exe)
 NPDir=0 NMtPBC=     1 NCelOv=     1 NCel=       1 NClECP=     1 NCelD=      1
         NCelK=      1 NCelE2=     1 NClLst=     1 CellRange=     0.0.
 One-electron integrals computed using PRISM.
 NBasis=   197 RedAO= T  NBF=   197
 NBsUse=   197 1.00D-06 NBFU=   197
 Precomputing XC quadrature grid using
 IXCGrd= 2 IRadAn=           5 IRanWt=          -1 IRanGd=           0 AccXCQ= 0.00D+00.
 NRdTot=     427 NPtTot=      123814 NUsed=      126881 NTot=      126913
 NSgBfM=   229   229   229   229   229 NAtAll=     5     5.
 Leave Link  302 at Fri May  8 14:08:04 2020, MaxMem= 1073741824 cpu:       1.0
 (Enter /home/matheus/.gaussian/g09/l303.exe)
 DipDrv:  MaxL=1.
 Leave Link  303 at Fri May  8 14:08:04 2020, MaxMem= 1073741824 cpu:       0.2
 (Enter /home/matheus/.gaussian/g09/l401.exe)
 Harris functional with IExCor=32609 diagonalized for initial guess.
 ExpMin= 2.53D-02 ExpMax= 1.17D+07 ExpMxC= 1.33D+04 IAcc=3 IRadAn=         5 AccDes= 0.00D+00
 HarFok:  IExCor=32609 AccDes= 0.00D+00 IRadAn=         5 IDoV= 1
 ScaDFX=  1.000000  1.000000  1.000000  1.000000
 FoFCou: FMM=F IPFlag=           0 FMFlag=      100000 FMFlg1=           0
         NFxFlg=           0 DoJE=T BraDBF=F KetDBF=T FulRan=T
         Omega=  0.000000  0.000000  1.000000  0.000000  0.000000 ICntrl=     500 IOpCl=  0
         NMat0=    1 NMatS0=    1 NMatT0=    0 NMatD0=    1 NMtDS0=    0 NMtDT0=    0
         I1Cent=           4 NGrid=           0.
 Petite list used in FoFCou.
 Harris En= -2753.24648728010    
 Initial guess orbital symmetries:
       Occupied  (A) (A) (A) (A) (A) (A) (A) (A) (A) (A) (A) (A)
                 (A) (A) (A) (A) (A) (A)
       Virtual   (A) (A) (A) (A) (A) (A) (A) (A) (A) (A) (A) (A)
                 (A) (A) (A) (A) (A) (A) (A) (A) (A) (A) (A) (A)
                 (A) (A) (A) (A) (A) (A) (A) (A) (A) (A) (A) (A)
                 (A) (A) (A) (A) (A) (A) (A) (A) (A) (A) (A) (A)
                 (A) (A) (A) (A) (A) (A) (A) (A) (A) (A) (A) (A)
                 (A) (A) (A) (A) (A) (A) (A) (A) (A) (A) (A) (A)
                 (A) (A) (A) (A) (A) (A) (A) (A) (A) (A) (A) (A)
                 (A) (A) (A) (A) (A) (A) (A) (A) (A) (A) (A) (A)
                 (A) (A) (A) (A) (A) (A) (A) (A) (A) (A) (A) (A)
                 (A) (A) (A) (A) (A) (A) (A) (A) (A) (A) (A) (A)
                 (A) (A) (A) (A) (A) (A) (A) (A) (A) (A) (A) (A)
                 (A) (A) (A) (A) (A) (A) (A) (A) (A) (A) (A) (A)
                 (A) (A) (A) (A) (A) (A) (A) (A) (A) (A) (A) (A)
                 (A) (A) (A) (A) (A) (A) (A) (A) (A) (A) (A) (A)
                 (A) (A) (A) (A) (A) (A) (A) (A) (A) (A) (A)
 The electronic state of the initial guess is 1-A.
 Leave Link  401 at Fri May  8 14:08:04 2020, MaxMem= 1073741824 cpu:       3.7
 (Enter /home/matheus/.gaussian/g09/l502.exe)
 Closed shell SCF:
 Requested convergence on RMS density matrix=1.00D-08 within 128 cycles.
 Requested convergence on MAX density matrix=1.00D-06.
 Requested convergence on             energy=1.00D-06.
 No special actions if energy rises.
 Using DIIS extrapolation, IDIIS=  1040.
 Integral symmetry usage will be decided dynamically.
       126823 words used for storage of precomputed grid.
 IEnd=      305770 IEndB=      305770 NGot=  1073741824 MDV=  1073505365
 LenX=  1073505365 LenY=  1073452483
 Fock matrices will be formed incrementally for  20 cycles.

 Cycle   1  Pass 1  IDiag  1:
 FoFJK:  IHMeth= 1 ICntrl=     0 DoSepK=T KAlg= 1 I1Cent= 0 FoldK=F
 FoFCou: FMM=F IPFlag=           0 FMFlag=      100000 FMFlg1=           0
         NFxFlg=           0 DoJE=T BraDBF=F KetDBF=F FulRan=T
         Omega=  0.000000  0.000000  1.000000  0.000000  0.000000 ICntrl=     500 IOpCl=  0
         NMat0=    1 NMatS0=    1 NMatT0=    0 NMatD0=    1 NMtDS0=    0 NMtDT0=    0
         I1Cent=           0 NGrid=           0.
 Symmetry not used in FoFCou.
 E= -2753.43085643649    
 DIIS: error= 2.87D-02 at cycle   1 NSaved=   1.
 NSaved= 1 IEnMin= 1 EnMin= -2753.43085643649     IErMin= 1 ErrMin= 2.87D-02
 ErrMax= 2.87D-02 EMaxC= 1.00D-01 BMatC= 2.24D-01 BMatP= 2.24D-01
 IDIUse=3 WtCom= 7.13D-01 WtEn= 2.87D-01
 Coeff-Com:  0.100D+01
 Coeff-En:   0.100D+01
 Coeff:      0.100D+01
 Gap=     0.637 Goal=   None    Shift=    0.000
 GapD=    0.637 DampG=2.000 DampE=0.500 DampFc=1.0000 IDamp=-1.
 RMSDP=2.07D-03 MaxDP=1.42D-01              OVMax= 5.14D-02

 Cycle   2  Pass 1  IDiag  1:
 RMSU=  1.42D-03    CP:  1.02D+00
 FoFJK:  IHMeth= 1 ICntrl=     0 DoSepK=T KAlg= 1 I1Cent= 0 FoldK=F
 E= -2753.46431611136     Delta-E=       -0.033459674880 Rises=F Damp=F
 DIIS: error= 1.12D-02 at cycle   2 NSaved=   2.
 NSaved= 2 IEnMin= 2 EnMin= -2753.46431611136     IErMin= 2 ErrMin= 1.12D-02
 ErrMax= 1.12D-02 EMaxC= 1.00D-01 BMatC= 4.97D-02 BMatP= 2.24D-01
 IDIUse=3 WtCom= 8.88D-01 WtEn= 1.12D-01
 Coeff-Com:  0.315D+00 0.685D+00
 Coeff-En:   0.626D-01 0.937D+00
 Coeff:      0.287D+00 0.713D+00
 Gap=     0.550 Goal=   None    Shift=    0.000
 RMSDP=7.64D-04 MaxDP=4.99D-02 DE=-3.35D-02 OVMax= 1.84D-02

 Cycle   3  Pass 1  IDiag  1:
 RMSU=  1.51D-04    CP:  1.01D+00  6.46D-01
 FoFJK:  IHMeth= 1 ICntrl=     0 DoSepK=T KAlg= 1 I1Cent= 0 FoldK=F
 E= -2753.47774165210     Delta-E=       -0.013425540735 Rises=F Damp=F
 DIIS: error= 1.29D-03 at cycle   3 NSaved=   3.
 NSaved= 3 IEnMin= 3 EnMin= -2753.47774165210     IErMin= 3 ErrMin= 1.29D-03
 ErrMax= 1.29D-03 EMaxC= 1.00D-01 BMatC= 5.41D-04 BMatP= 4.97D-02
 IDIUse=3 WtCom= 9.87D-01 WtEn= 1.29D-02
 Coeff-Com: -0.470D-02 0.856D-01 0.919D+00
 Coeff-En:   0.000D+00 0.000D+00 0.100D+01
 Coeff:     -0.464D-02 0.845D-01 0.920D+00
 Gap=     0.556 Goal=   None    Shift=    0.000
 RMSDP=7.05D-05 MaxDP=4.27D-03 DE=-1.34D-02 OVMax= 2.43D-03

 Cycle   4  Pass 1  IDiag  1:
 RMSU=  1.35D-05    CP:  1.01D+00  6.79D-01  9.99D-01
 FoFJK:  IHMeth= 1 ICntrl=     0 DoSepK=T KAlg= 1 I1Cent= 0 FoldK=F
 E= -2753.47789831969     Delta-E=       -0.000156667594 Rises=F Damp=F
 DIIS: error= 3.94D-05 at cycle   4 NSaved=   4.
 NSaved= 4 IEnMin= 4 EnMin= -2753.47789831969     IErMin= 4 ErrMin= 3.94D-05
 ErrMax= 3.94D-05 EMaxC= 1.00D-01 BMatC= 4.28D-07 BMatP= 5.41D-04
 IDIUse=1 WtCom= 1.00D+00 WtEn= 0.00D+00
 Coeff-Com: -0.549D-03-0.198D-01-0.163D+00 0.118D+01
 Coeff:     -0.549D-03-0.198D-01-0.163D+00 0.118D+01
 Gap=     0.556 Goal=   None    Shift=    0.000
 RMSDP=5.76D-06 MaxDP=3.21D-04 DE=-1.57D-04 OVMax= 4.13D-04

 Cycle   5  Pass 1  IDiag  1:
 RMSU=  1.82D-06    CP:  1.01D+00  6.79D-01  1.02D+00  1.19D+00
 FoFJK:  IHMeth= 1 ICntrl=     0 DoSepK=T KAlg= 1 I1Cent= 0 FoldK=F
 E= -2753.47789884358     Delta-E=       -0.000000523883 Rises=F Damp=F
 DIIS: error= 2.36D-06 at cycle   5 NSaved=   5.
 NSaved= 5 IEnMin= 5 EnMin= -2753.47789884358     IErMin= 5 ErrMin= 2.36D-06
 ErrMax= 2.36D-06 EMaxC= 1.00D-01 BMatC= 2.14D-09 BMatP= 4.28D-07
 IDIUse=1 WtCom= 1.00D+00 WtEn= 0.00D+00
 Coeff-Com:  0.971D-04 0.212D-03-0.135D-02-0.180D-01 0.102D+01
 Coeff:      0.971D-04 0.212D-03-0.135D-02-0.180D-01 0.102D+01
 Gap=     0.556 Goal=   None    Shift=    0.000
 RMSDP=3.36D-07 MaxDP=2.19D-05 DE=-5.24D-07 OVMax= 1.48D-05

 Cycle   6  Pass 1  IDiag  1:
 RMSU=  1.63D-07    CP:  1.01D+00  6.79D-01  1.01D+00  1.20D+00  1.03D+00
 FoFJK:  IHMeth= 1 ICntrl=     0 DoSepK=T KAlg= 1 I1Cent= 0 FoldK=F
 E= -2753.47789884545     Delta-E=       -0.000000001874 Rises=F Damp=F
 DIIS: error= 3.91D-07 at cycle   6 NSaved=   6.
 NSaved= 6 IEnMin= 6 EnMin= -2753.47789884545     IErMin= 6 ErrMin= 3.91D-07
 ErrMax= 3.91D-07 EMaxC= 1.00D-01 BMatC= 7.65D-11 BMatP= 2.14D-09
 IDIUse=1 WtCom= 1.00D+00 WtEn= 0.00D+00
 Coeff-Com:  0.347D-05 0.189D-03 0.179D-02-0.167D-01 0.349D-01 0.980D+00
 Coeff:      0.347D-05 0.189D-03 0.179D-02-0.167D-01 0.349D-01 0.980D+00
 Gap=     0.556 Goal=   None    Shift=    0.000
 RMSDP=5.03D-08 MaxDP=2.53D-06 DE=-1.87D-09 OVMax= 3.10D-06

 Cycle   7  Pass 1  IDiag  1:
 RMSU=  1.08D-08    CP:  1.01D+00  6.79D-01  1.01D+00  1.20D+00  1.05D+00
                    CP:  1.10D+00
 FoFJK:  IHMeth= 1 ICntrl=     0 DoSepK=T KAlg= 1 I1Cent= 0 FoldK=F
 E= -2753.47789884549     Delta-E=       -0.000000000039 Rises=F Damp=F
 DIIS: error= 3.24D-08 at cycle   7 NSaved=   7.
 NSaved= 7 IEnMin= 7 EnMin= -2753.47789884549     IErMin= 7 ErrMin= 3.24D-08
 ErrMax= 3.24D-08 EMaxC= 1.00D-01 BMatC= 4.20D-13 BMatP= 7.65D-11
 IDIUse=1 WtCom= 1.00D+00 WtEn= 0.00D+00
 Coeff-Com:  0.221D-06 0.330D-04 0.322D-03-0.287D-02 0.299D-02 0.154D+00
 Coeff-Com:  0.846D+00
 Coeff:      0.221D-06 0.330D-04 0.322D-03-0.287D-02 0.299D-02 0.154D+00
 Coeff:      0.846D+00
 Gap=     0.556 Goal=   None    Shift=    0.000
 RMSDP=5.82D-09 MaxDP=2.28D-07 DE=-3.91D-11 OVMax= 2.42D-07

 SCF Done:  E(RLC-wPBE) =  -2753.47789885     A.U. after    7 cycles
             Convg  =    0.5817D-08             -V/T =  2.0014
 KE= 2.749515391012D+03 PE=-6.579049561057D+03 EE= 1.076056271199D+03
 Leave Link  502 at Fri May  8 14:08:25 2020, MaxMem= 1073741824 cpu:     165.1
 (Enter /home/matheus/.gaussian/g09/l601.exe)
 Copying SCF densities to generalized density rwf, IOpCl= 0 IROHF=0.

 **********************************************************************

            Population analysis using the SCF density.

 **********************************************************************

 Orbital symmetries:
       Occupied  (A) (A) (A) (A) (A) (A) (A) (A) (A) (A) (A) (A)
                 (A) (A) (A) (A) (A) (A)
       Virtual   (A) (A) (A) (A) (A) (A) (A) (A) (A) (A) (A) (A)
                 (A) (A) (A) (A) (A) (A) (A) (A) (A) (A) (A) (A)
                 (A) (A) (A) (A) (A) (A) (A) (A) (A) (A) (A) (A)
                 (A) (A) (A) (A) (A) (A) (A) (A) (A) (A) (A) (A)
                 (A) (A) (A) (A) (A) (A) (A) (A) (A) (A) (A) (A)
                 (A) (A) (A) (A) (A) (A) (A) (A) (A) (A) (A) (A)
                 (A) (A) (A) (A) (A) (A) (A) (A) (A) (A) (A) (A)
                 (A) (A) (A) (A) (A) (A) (A) (A) (A) (A) (A) (A)
                 (A) (A) (A) (A) (A) (A) (A) (A) (A) (A) (A) (A)
                 (A) (A) (A) (A) (A) (A) (A) (A) (A) (A) (A) (A)
                 (A) (A) (A) (A) (A) (A) (A) (A) (A) (A) (A) (A)
                 (A) (A) (A) (A) (A) (A) (A) (A) (A) (A) (A) (A)
                 (A) (A) (A) (A) (A) (A) (A) (A) (A) (A) (A) (A)
                 (A) (A) (A) (A) (A) (A) (A) (A) (A) (A) (A) (A)
                 (A) (A) (A) (A) (A) (A) (A) (A) (A) (A) (A)
 The electronic state is 1-A.
 Alpha  occ. eigenvalues -- -511.18549 -66.73374 -60.39484 -60.39481 -60.39480
 Alpha  occ. eigenvalues --   -9.66931  -7.41183  -7.41181  -7.41181  -3.35590
 Alpha  occ. eigenvalues --   -3.35589  -3.35589  -3.35588  -3.35588  -1.08852
 Alpha  occ. eigenvalues --   -0.52698  -0.52694  -0.52692
 Alpha virt. eigenvalues --    0.02893   0.04880   0.08415   0.09570   0.11130
 Alpha virt. eigenvalues --    0.12190   0.13132   0.14178   0.16563   0.17133
 Alpha virt. eigenvalues --    0.17688   0.19730   0.21231   0.26099   0.27550
 Alpha virt. eigenvalues --    0.28171   0.28617   0.32434   0.33796   0.35649
 Alpha virt. eigenvalues --    0.36342   0.37418   0.37869   0.39593   0.41984
 Alpha virt. eigenvalues --    0.42350   0.43847   0.54772   0.55924   0.58308
 Alpha virt. eigenvalues --    0.59560   0.66492   0.67079   0.70596   0.72707
 Alpha virt. eigenvalues --    0.75135   0.76434   0.77894   0.78361   0.79328
 Alpha virt. eigenvalues --    0.81300   0.82052   0.83963   0.85926   0.86018
 Alpha virt. eigenvalues --    0.87770   0.88706   0.90004   0.92400   0.95259
 Alpha virt. eigenvalues --    0.98652   0.99664   1.01140   1.03982   1.04716
 Alpha virt. eigenvalues --    1.07345   1.08006   1.09836   1.12789   1.14024
 Alpha virt. eigenvalues --    1.16163   1.20321   1.21697   1.24547   1.28313
 Alpha virt. eigenvalues --    1.34189   1.35972   1.41795   1.46083   1.46354
 Alpha virt. eigenvalues --    1.58339   1.60496   1.60918   1.72343   1.78811
 Alpha virt. eigenvalues --    1.81837   1.85401   1.88043   1.91570   2.19738
 Alpha virt. eigenvalues --    2.23065   2.27089   2.29691   2.31741   2.34153
 Alpha virt. eigenvalues --    2.35769   2.36442   2.38487   2.39822   2.41690
 Alpha virt. eigenvalues --    2.45316   2.48906   2.50278   2.51996   2.53568
 Alpha virt. eigenvalues --    2.54179   2.55867   2.57614   2.57870   2.60114
 Alpha virt. eigenvalues --    2.64045   2.65062   2.65320   2.67210   2.69812
 Alpha virt. eigenvalues --    2.73871   2.77682   2.80589   2.86070   2.88892
 Alpha virt. eigenvalues --    2.92586   2.96163   3.04749   3.13152   3.16644
 Alpha virt. eigenvalues --    3.22383   3.27806   3.33384   3.36055   3.51518
 Alpha virt. eigenvalues --    3.61030   3.66546   3.82885   3.87137   4.03426
 Alpha virt. eigenvalues --    4.38936   4.50411   4.52973   4.54690   4.59258
 Alpha virt. eigenvalues --    4.72059   4.88029   4.88896   4.94486   5.04714
 Alpha virt. eigenvalues --    5.14522   5.17588   5.59907   5.63168   5.83193
 Alpha virt. eigenvalues --    5.98517   6.05801   6.11464   6.79335   6.86443
 Alpha virt. eigenvalues --    7.32708   7.39325   7.63045   7.65251   7.69778
 Alpha virt. eigenvalues --    7.84779   8.00372   8.10441   8.17894   8.22115
 Alpha virt. eigenvalues --    8.37874   8.40714   8.64171   8.88836   9.62055
 Alpha virt. eigenvalues --    9.70947   9.79955   9.88177   9.96863  10.03039
 Alpha virt. eigenvalues --   10.15918  10.26429  10.46191  10.94150  11.50394
 Alpha virt. eigenvalues --   11.60077  11.64128  12.05644  12.05922  13.25309
 Alpha virt. eigenvalues --   13.62911  14.53518  62.73199  64.57954
          Condensed to atoms (all electrons):
              1          2          3          4          5
     1  O    0.002645  -0.002186  -0.001361   0.001398  -0.011248
     2  O   -0.002186   0.005944   0.000622  -0.004066   0.000173
     3  H   -0.001361   0.000622   0.000942  -0.000378   0.002929
     4  H    0.001398  -0.004066  -0.000378   0.004548  -0.030503
     5  Kr  -0.011248   0.000173   0.002929  -0.030503  36.075160
 Mulliken atomic charges:
              1
     1  O    0.010753
     2  O   -0.000488
     3  H   -0.002755
     4  H    0.029001
     5  Kr  -0.036512
 Sum of Mulliken atomic charges =   0.00000
 Mulliken charges with hydrogens summed into heavy atoms:
              1
     1  O    0.007998
     2  O    0.028513
     5  Kr  -0.036512
 Sum of Mulliken charges with hydrogens summed into heavy atoms =   0.00000
          Condensed to fragments (all electrons):
     1       0.036512
     2      -0.036512
 Electronic spatial extent (au):  <R**2>=            166.6935
 Charge=              0.0000 electrons
 Dipole moment (field-independent basis, Debye):
    X=              0.0009    Y=              0.0004    Z=              0.0001  Tot=              0.0010
 Quadrupole moment (field-independent basis, Debye-Ang):
   XX=            -17.5404   YY=            -17.5499   ZZ=            -17.5561
   XY=              0.0042   XZ=             -0.0002   YZ=              0.0003
 Traceless Quadrupole moment (field-independent basis, Debye-Ang):
   XX=              0.0084   YY=             -0.0011   ZZ=             -0.0073
   XY=              0.0042   XZ=             -0.0002   YZ=              0.0003
 Octapole moment (field-independent basis, Debye-Ang**2):
  XXX=             52.4060  YYY=              0.9038  ZZZ=             -0.1523  XYY=             17.4794
  XXY=              0.2927  XXZ=             -0.0509  XZZ=             17.4826  YZZ=              0.3020
  YYZ=             -0.0504  XYZ=             -0.0003
 Hexadecapole moment (field-independent basis, Debye-Ang**3):
 XXXX=           -122.3924 YYYY=            -18.0529 ZZZZ=            -18.0437 XXXY=             -0.8811
 XXXZ=              0.1522 YYYX=             -0.8864 YYYZ=              0.0020 ZZZX=              0.1519
 ZZZY=              0.0036 XXYY=            -23.4167 XXZZ=            -23.4164 YYZZ=             -6.0140
 XXYZ=              0.0013 YYXZ=              0.0507 ZZXY=             -0.2941
 N-N= 0.000000000000D+00 E-N=-6.579049558310D+03  KE= 2.749515391012D+03
 No NMR shielding tensors so no spin-rotation constants.
 Leave Link  601 at Fri May  8 14:08:25 2020, MaxMem= 1073741824 cpu:       0.7
 (Enter /home/matheus/.gaussian/g09/l122.exe)
 Counterpoise: doing MCBS calculation for fragment   1
 Leave Link  122 at Fri May  8 14:08:25 2020, MaxMem= 1073741824 cpu:       0.0
 (Enter /home/matheus/.gaussian/g09/l301.exe)
 Basis read from rwf:  (5D, 7F)
 No pseudopotential information found on rwf file.
 There are   138 symmetry adapted basis functions of A   symmetry.
 Integral buffers will be    131072 words long.
 Raffenetti 2 integral format.
 Two-electron integral symmetry is turned on.
   138 basis functions,   198 primitive gaussians,   160 cartesian basis functions
     9 alpha electrons        9 beta electrons
       nuclear repulsion energy        36.6058450489 Hartrees.
 IExCor=32609 DFT=T Ex+Corr=LC-wPBE ExCW=0 ScaHFX=  1.000000
 ScaDFX=  1.000000  0.000000  1.000000  1.000000 ScalE2=  1.000000  1.000000
 IRadAn=      5 IRanWt=     -1 IRanGd=            0 ICorTp=0
  HFx wShort=  0.000000 wLong=  0.550000 cFull=  0.000000 cShort=  0.000000 cLong=  1.000000
  DFx wShort=  0.000000 wLong=  0.550000 cFull=  0.000000 cShort=  0.000000 cLong=  1.000000
 NAtoms=    5 NActive=    4 NUniq=    4 SFac= 1.00D+00 NAtFMM=   60 NAOKFM=F Big=F
 No density basis found on file   718.
 Leave Link  301 at Fri May  8 14:08:25 2020, MaxMem= 1073741824 cpu:       0.2
 (Enter /home/matheus/.gaussian/g09/l302.exe)
 NPDir=0 NMtPBC=     1 NCelOv=     1 NCel=       1 NClECP=     1 NCelD=      1
         NCelK=      1 NCelE2=     1 NClLst=     1 CellRange=     0.0.
 One-electron integrals computed using PRISM.
 NBasis=   138 RedAO= T  NBF=   138
 NBsUse=   138 1.00D-06 NBFU=   138
 Precomputing XC quadrature grid using
 IXCGrd= 2 IRadAn=           5 IRanWt=          -1 IRanGd=           0 AccXCQ= 0.00D+00.
 NRdTot=     344 NPtTot=       92556 NUsed=       95038 NTot=       95070
 NSgBfM=   160   160   160   160   160 NAtAll=     4     4.
 Leave Link  302 at Fri May  8 14:08:25 2020, MaxMem= 1073741824 cpu:       0.8
 (Enter /home/matheus/.gaussian/g09/l303.exe)
 DipDrv:  MaxL=1.
 Leave Link  303 at Fri May  8 14:08:25 2020, MaxMem= 1073741824 cpu:       0.1
 (Enter /home/matheus/.gaussian/g09/l401.exe)
 Harris functional with IExCor=32609 diagonalized for initial guess.
 ExpMin= 2.53D-02 ExpMax= 1.53D+04 ExpMxC= 5.22D+02 IAcc=3 IRadAn=         5 AccDes= 0.00D+00
 HarFok:  IExCor=32609 AccDes= 0.00D+00 IRadAn=         5 IDoV= 1
 ScaDFX=  1.000000  1.000000  1.000000  1.000000
 FoFCou: FMM=F IPFlag=           0 FMFlag=      100000 FMFlg1=           0
         NFxFlg=           0 DoJE=T BraDBF=F KetDBF=T FulRan=T
         Omega=  0.000000  0.000000  1.000000  0.000000  0.000000 ICntrl=     500 IOpCl=  0
         NMat0=    1 NMatS0=    1 NMatT0=    0 NMatD0=    1 NMtDS0=    0 NMtDT0=    0
         I1Cent=           4 NGrid=           0.
 Petite list used in FoFCou.
 Harris En= -151.500817120646    
 Initial guess orbital symmetries:
       Occupied  (A) (A) (A) (A) (A) (A) (A) (A) (A)
       Virtual   (A) (A) (A) (A) (A) (A) (A) (A) (A) (A) (A) (A)
                 (A) (A) (A) (A) (A) (A) (A) (A) (A) (A) (A) (A)
                 (A) (A) (A) (A) (A) (A) (A) (A) (A) (A) (A) (A)
                 (A) (A) (A) (A) (A) (A) (A) (A) (A) (A) (A) (A)
                 (A) (A) (A) (A) (A) (A) (A) (A) (A) (A) (A) (A)
                 (A) (A) (A) (A) (A) (A) (A) (A) (A) (A) (A) (A)
                 (A) (A) (A) (A) (A) (A) (A) (A) (A) (A) (A) (A)
                 (A) (A) (A) (A) (A) (A) (A) (A) (A) (A) (A) (A)
                 (A) (A) (A) (A) (A) (A) (A) (A) (A) (A) (A) (A)
                 (A) (A) (A) (A) (A) (A) (A) (A) (A) (A) (A) (A)
                 (A) (A) (A) (A) (A) (A) (A) (A) (A)
 The electronic state of the initial guess is 1-A.
 Leave Link  401 at Fri May  8 14:08:26 2020, MaxMem= 1073741824 cpu:       2.1
 (Enter /home/matheus/.gaussian/g09/l502.exe)
 Closed shell SCF:
 Requested convergence on RMS density matrix=1.00D-08 within 128 cycles.
 Requested convergence on MAX density matrix=1.00D-06.
 Requested convergence on             energy=1.00D-06.
 No special actions if energy rises.
 Using DIIS extrapolation, IDIIS=  1040.
 Integral symmetry usage will be decided dynamically.
        94980 words used for storage of precomputed grid.
 IEnd=      192360 IEndB=      192360 NGot=  1073741824 MDV=  1073591865
 LenX=  1073591865 LenY=  1073565824
 Fock matrices will be formed incrementally for  20 cycles.

 Cycle   1  Pass 1  IDiag  1:
 FoFJK:  IHMeth= 1 ICntrl=     0 DoSepK=T KAlg= 1 I1Cent= 0 FoldK=F
 FoFCou: FMM=F IPFlag=           0 FMFlag=      100000 FMFlg1=           0
         NFxFlg=           0 DoJE=T BraDBF=F KetDBF=F FulRan=T
         Omega=  0.000000  0.000000  1.000000  0.000000  0.000000 ICntrl=     500 IOpCl=  0
         NMat0=    1 NMatS0=    1 NMatT0=    0 NMatD0=    1 NMtDS0=    0 NMtDT0=    0
         I1Cent=           0 NGrid=           0.
 Symmetry not used in FoFCou.
 E= -151.507704522193    
 DIIS: error= 1.58D-02 at cycle   1 NSaved=   1.
 NSaved= 1 IEnMin= 1 EnMin= -151.507704522193     IErMin= 1 ErrMin= 1.58D-02
 ErrMax= 1.58D-02 EMaxC= 1.00D-01 BMatC= 4.01D-02 BMatP= 4.01D-02
 IDIUse=3 WtCom= 8.42D-01 WtEn= 1.58D-01
 Coeff-Com:  0.100D+01
 Coeff-En:   0.100D+01
 Coeff:      0.100D+01
 Gap=     0.547 Goal=   None    Shift=    0.000
 GapD=    0.547 DampG=2.000 DampE=0.500 DampFc=1.0000 IDamp=-1.
 RMSDP=1.04D-03 MaxDP=2.48D-02              OVMax= 5.00D-02

 Cycle   2  Pass 1  IDiag  1:
 RMSU=  7.26D-04    CP:  9.88D-01
 FoFJK:  IHMeth= 1 ICntrl=     0 DoSepK=T KAlg= 1 I1Cent= 0 FoldK=F
 E= -151.523758820004     Delta-E=       -0.016054297812 Rises=F Damp=F
 DIIS: error= 9.17D-03 at cycle   2 NSaved=   2.
 NSaved= 2 IEnMin= 2 EnMin= -151.523758820004     IErMin= 2 ErrMin= 9.17D-03
 ErrMax= 9.17D-03 EMaxC= 1.00D-01 BMatC= 1.52D-02 BMatP= 4.01D-02
 IDIUse=3 WtCom= 9.08D-01 WtEn= 9.17D-02
 Coeff-Com:  0.367D+00 0.633D+00
 Coeff-En:   0.107D+00 0.893D+00
 Coeff:      0.343D+00 0.657D+00
 Gap=     0.470 Goal=   None    Shift=    0.000
 RMSDP=5.60D-04 MaxDP=2.19D-02 DE=-1.61D-02 OVMax= 2.18D-02

 Cycle   3  Pass 1  IDiag  1:
 RMSU=  3.39D-04    CP:  9.84D-01  7.25D-01
 FoFJK:  IHMeth= 1 ICntrl=     0 DoSepK=T KAlg= 1 I1Cent= 0 FoldK=F
 E= -151.532208463848     Delta-E=       -0.008449643844 Rises=F Damp=F
 DIIS: error= 2.31D-03 at cycle   3 NSaved=   3.
 NSaved= 3 IEnMin= 3 EnMin= -151.532208463848     IErMin= 3 ErrMin= 2.31D-03
 ErrMax= 2.31D-03 EMaxC= 1.00D-01 BMatC= 4.01D-04 BMatP= 1.52D-02
 IDIUse=3 WtCom= 9.77D-01 WtEn= 2.31D-02
 Coeff-Com:  0.387D-01 0.159D+00 0.802D+00
 Coeff-En:   0.000D+00 0.000D+00 0.100D+01
 Coeff:      0.378D-01 0.156D+00 0.807D+00
 Gap=     0.462 Goal=   None    Shift=    0.000
 RMSDP=8.29D-05 MaxDP=2.18D-03 DE=-8.45D-03 OVMax= 4.06D-03

 Cycle   4  Pass 1  IDiag  1:
 RMSU=  4.00D-05    CP:  9.82D-01  7.77D-01  1.03D+00
 FoFJK:  IHMeth= 1 ICntrl=     0 DoSepK=T KAlg= 1 I1Cent= 0 FoldK=F
 E= -151.532463598917     Delta-E=       -0.000255135069 Rises=F Damp=F
 DIIS: error= 3.37D-04 at cycle   4 NSaved=   4.
 NSaved= 4 IEnMin= 4 EnMin= -151.532463598917     IErMin= 4 ErrMin= 3.37D-04
 ErrMax= 3.37D-04 EMaxC= 1.00D-01 BMatC= 9.98D-06 BMatP= 4.01D-04
 IDIUse=3 WtCom= 9.97D-01 WtEn= 3.37D-03
 Coeff-Com: -0.877D-02-0.124D-01 0.908D-01 0.930D+00
 Coeff-En:   0.000D+00 0.000D+00 0.000D+00 0.100D+01
 Coeff:     -0.874D-02-0.123D-01 0.905D-01 0.931D+00
 Gap=     0.464 Goal=   None    Shift=    0.000
 RMSDP=2.15D-05 MaxDP=1.01D-03 DE=-2.55D-04 OVMax= 8.31D-04

 Cycle   5  Pass 1  IDiag  1:
 RMSU=  6.11D-06    CP:  9.82D-01  7.78D-01  1.06D+00  1.08D+00
 FoFJK:  IHMeth= 1 ICntrl=     0 DoSepK=T KAlg= 1 I1Cent= 0 FoldK=F
 E= -151.532472521278     Delta-E=       -0.000008922360 Rises=F Damp=F
 DIIS: error= 5.83D-05 at cycle   5 NSaved=   5.
[...]
 RMSDP=1.76D-05 MaxDP=8.20D-04              OVMax= 3.02D-04

 Cycle   2  Pass 1  IDiag  1:
 RMSU=  1.24D-05    CP:  1.00D+00
 FoFJK:  IHMeth= 1 ICntrl=     0 DoSepK=T KAlg= 1 I1Cent= 0 FoldK=F
 E= -2753.47778098277     Delta-E=       -0.000000551557 Rises=F Damp=F
 DIIS: error= 3.22D-06 at cycle   2 NSaved=   2.
 NSaved= 2 IEnMin= 2 EnMin= -2753.47778098277     IErMin= 2 ErrMin= 3.22D-06
 ErrMax= 3.22D-06 EMaxC= 1.00D-01 BMatC= 3.75D-09 BMatP= 5.11D-06
 IDIUse=1 WtCom= 1.00D+00 WtEn= 0.00D+00
 Coeff-Com: -0.773D-02 0.101D+01
 Coeff:     -0.773D-02 0.101D+01
 Gap=     0.555 Goal=   None    Shift=    0.000
 RMSDP=1.67D-06 MaxDP=6.49D-05 DE=-5.52D-07 OVMax= 4.56D-05

 Cycle   3  Pass 1  IDiag  1:
 RMSU=  5.10D-07    CP:  1.00D+00  1.09D+00
 FoFJK:  IHMeth= 1 ICntrl=     0 DoSepK=T KAlg= 1 I1Cent= 0 FoldK=F
 E= -2753.47778098931     Delta-E=       -0.000000006543 Rises=F Damp=F
 DIIS: error= 4.57D-07 at cycle   3 NSaved=   3.
 NSaved= 3 IEnMin= 3 EnMin= -2753.47778098931     IErMin= 3 ErrMin= 4.57D-07
 ErrMax= 4.57D-07 EMaxC= 1.00D-01 BMatC= 9.64D-11 BMatP= 3.75D-09
 IDIUse=1 WtCom= 1.00D+00 WtEn= 0.00D+00
 Coeff-Com:  0.312D-03-0.126D+00 0.113D+01
 Coeff:      0.312D-03-0.126D+00 0.113D+01
 Gap=     0.555 Goal=   None    Shift=    0.000
 RMSDP=2.00D-07 MaxDP=7.26D-06 DE=-6.54D-09 OVMax= 9.17D-06

 Cycle   4  Pass 1  IDiag  1:
 RMSU=  5.49D-08    CP:  1.00D+00  1.09D+00  1.19D+00
 FoFJK:  IHMeth= 1 ICntrl=     0 DoSepK=T KAlg= 1 I1Cent= 0 FoldK=F
 E= -2753.47778098950     Delta-E=       -0.000000000181 Rises=F Damp=F
 DIIS: error= 2.20D-07 at cycle   4 NSaved=   4.
 NSaved= 4 IEnMin= 4 EnMin= -2753.47778098950     IErMin= 4 ErrMin= 2.20D-07
 ErrMax= 2.20D-07 EMaxC= 1.00D-01 BMatC= 8.56D-12 BMatP= 9.64D-11
 IDIUse=1 WtCom= 1.00D+00 WtEn= 0.00D+00
 Coeff-Com:  0.183D-03-0.458D-01 0.274D+00 0.772D+00
 Coeff:      0.183D-03-0.458D-01 0.274D+00 0.772D+00
 Gap=     0.555 Goal=   None    Shift=    0.000
 RMSDP=1.81D-08 MaxDP=8.38D-07 DE=-1.81D-10 OVMax= 8.42D-07

 Cycle   5  Pass 1  IDiag  1:
 RMSU=  8.03D-09    CP:  1.00D+00  1.09D+00  1.21D+00  1.12D+00
 FoFJK:  IHMeth= 1 ICntrl=     0 DoSepK=T KAlg= 1 I1Cent= 0 FoldK=F
 E= -2753.47778098950     Delta-E=       -0.000000000009 Rises=F Damp=F
 DIIS: error= 3.63D-08 at cycle   5 NSaved=   5.
 NSaved= 5 IEnMin= 5 EnMin= -2753.47778098950     IErMin= 5 ErrMin= 3.63D-08
 ErrMax= 3.63D-08 EMaxC= 1.00D-01 BMatC= 2.81D-13 BMatP= 8.56D-12
 IDIUse=1 WtCom= 1.00D+00 WtEn= 0.00D+00
 Coeff-Com: -0.981D-05 0.566D-02-0.541D-01 0.120D-01 0.104D+01
 Coeff:     -0.981D-05 0.566D-02-0.541D-01 0.120D-01 0.104D+01
 Gap=     0.555 Goal=   None    Shift=    0.000
 RMSDP=8.33D-09 MaxDP=4.87D-07 DE=-9.09D-12 OVMax= 3.81D-07

 SCF Done:  E(RLC-wPBE) =  -2753.47778099     A.U. after    5 cycles
             Convg  =    0.8326D-08             -V/T =  2.0014
 KE= 2.749554837667D+03 PE=-6.579092719526D+03 EE= 1.076060100869D+03
 Leave Link  502 at Fri May  8 14:30:41 2020, MaxMem= 1073741824 cpu:      87.0
 (Enter /home/matheus/.gaussian/g09/l122.exe)
 Restoring MOs from calculation   4 to rwf.
 Counterpoise: doing MCBS calculation for fragment   1
 Leave Link  122 at Fri May  8 14:30:41 2020, MaxMem= 1073741824 cpu:       0.0
 (Enter /home/matheus/.gaussian/g09/l301.exe)
 Basis read from rwf:  (5D, 7F)
 No pseudopotential information found on rwf file.
 There are   138 symmetry adapted basis functions of A   symmetry.
 Integral buffers will be    131072 words long.
 Raffenetti 2 integral format.
 Two-electron integral symmetry is turned on.
   138 basis functions,   198 primitive gaussians,   160 cartesian basis functions
     9 alpha electrons        9 beta electrons
       nuclear repulsion energy        36.6058450489 Hartrees.
 IExCor=32609 DFT=T Ex+Corr=LC-wPBE ExCW=0 ScaHFX=  1.000000
 ScaDFX=  1.000000  0.000000  1.000000  1.000000 ScalE2=  1.000000  1.000000
 IRadAn=      5 IRanWt=     -1 IRanGd=            0 ICorTp=0
  HFx wShort=  0.000000 wLong=  0.550000 cFull=  0.000000 cShort=  0.000000 cLong=  1.000000
  DFx wShort=  0.000000 wLong=  0.550000 cFull=  0.000000 cShort=  0.000000 cLong=  1.000000
 NAtoms=    5 NActive=    4 NUniq=    4 SFac= 1.00D+00 NAtFMM=   60 NAOKFM=F Big=F
 No density basis found on file   718.
 Leave Link  301 at Fri May  8 14:30:41 2020, MaxMem= 1073741824 cpu:       0.2
 (Enter /home/matheus/.gaussian/g09/l302.exe)
 NPDir=0 NMtPBC=     1 NCelOv=     1 NCel=       1 NClECP=     1 NCelD=      1
         NCelK=      1 NCelE2=     1 NClLst=     1 CellRange=     0.0.
 One-electron integrals computed using PRISM.
 NBasis=   138 RedAO= T  NBF=   138
 NBsUse=   138 1.00D-06 NBFU=   138
 Precomputing XC quadrature grid using
 IXCGrd= 2 IRadAn=           5 IRanWt=          -1 IRanGd=           0 AccXCQ= 0.00D+00.
 NRdTot=     344 NPtTot=       92556 NUsed=       95038 NTot=       95070
 NSgBfM=   160   160   160   160   160 NAtAll=     4     4.
 Leave Link  302 at Fri May  8 14:30:41 2020, MaxMem= 1073741824 cpu:       0.7
 (Enter /home/matheus/.gaussian/g09/l303.exe)
 DipDrv:  MaxL=1.
 Leave Link  303 at Fri May  8 14:30:41 2020, MaxMem= 1073741824 cpu:       0.1
 (Enter /home/matheus/.gaussian/g09/l401.exe)
 Initial guess read from the read-write file.
 Guess basis will be translated and rotated to current coordinates.
 Initial guess orbital symmetries:
       Occupied  (A) (A) (A) (A) (A) (A) (A) (A) (A)
       Virtual   (A) (A) (A) (A) (A) (A) (A) (A) (A) (A) (A) (A)
                 (A) (A) (A) (A) (A) (A) (A) (A) (A) (A) (A) (A)
                 (A) (A) (A) (A) (A) (A) (A) (A) (A) (A) (A) (A)
                 (A) (A) (A) (A) (A) (A) (A) (A) (A) (A) (A) (A)
                 (A) (A) (A) (A) (A) (A) (A) (A) (A) (A) (A) (A)
                 (A) (A) (A) (A) (A) (A) (A) (A) (A) (A) (A) (A)
                 (A) (A) (A) (A) (A) (A) (A) (A) (A) (A) (A) (A)
                 (A) (A) (A) (A) (A) (A) (A) (A) (A) (A) (A) (A)
                 (A) (A) (A) (A) (A) (A) (A) (A) (A) (A) (A) (A)
                 (A) (A) (A) (A) (A) (A) (A) (A) (A) (A) (A) (A)
                 (A) (A) (A) (A) (A) (A) (A) (A) (A)
 The electronic state of the initial guess is 1-A.
 Generating alternative initial guess.
 Harris functional with IExCor=32609 diagonalized for initial guess.
 ExpMin= 2.53D-02 ExpMax= 1.53D+04 ExpMxC= 5.22D+02 IAcc=3 IRadAn=         5 AccDes= 0.00D+00
 HarFok:  IExCor=32609 AccDes= 0.00D+00 IRadAn=         5 IDoV= 1
 ScaDFX=  1.000000  1.000000  1.000000  1.000000
 FoFCou: FMM=F IPFlag=           0 FMFlag=      100000 FMFlg1=           0
         NFxFlg=           0 DoJE=T BraDBF=F KetDBF=T FulRan=T
         Omega=  0.000000  0.000000  1.000000  0.000000  0.000000 ICntrl=     500 IOpCl=  0
         NMat0=    1 NMatS0=    1 NMatT0=    0 NMatD0=    1 NMtDS0=    0 NMtDT0=    0
         I1Cent=           4 NGrid=           0.
 Petite list used in FoFCou.
 Harris En= -151.500817120871    
 Leave Link  401 at Fri May  8 14:30:41 2020, MaxMem= 1073741824 cpu:       2.5
 (Enter /home/matheus/.gaussian/g09/l502.exe)
 Closed shell SCF:
 Requested convergence on RMS density matrix=1.00D-08 within 128 cycles.
 Requested convergence on MAX density matrix=1.00D-06.
 Requested convergence on             energy=1.00D-06.
 No special actions if energy rises.
 Using DIIS extrapolation, IDIIS=  1040.
 Integral symmetry usage will be decided dynamically.
        94980 words used for storage of precomputed grid.
 IEnd=      192360 IEndB=      192360 NGot=  1073741824 MDV=  1073591865
 LenX=  1073591865 LenY=  1073565824
 Fock matrices will be formed incrementally for  20 cycles.

 Cycle   1  Pass 1  IDiag  1:
 FoFJK:  IHMeth= 1 ICntrl=     0 DoSepK=T KAlg= 1 I1Cent= 0 FoldK=F
 FoFCou: FMM=F IPFlag=           0 FMFlag=      100000 FMFlg1=           0
         NFxFlg=           0 DoJE=T BraDBF=F KetDBF=F FulRan=T
         Omega=  0.000000  0.000000  1.000000  0.000000  0.000000 ICntrl=     500 IOpCl=  0
         NMat0=    1 NMatS0=    1 NMatT0=    0 NMatD0=    1 NMtDS0=    0 NMtDT0=    0
         I1Cent=           0 NGrid=           0.
 Symmetry not used in FoFCou.
 E= -151.532472933754    
 DIIS: error= 2.24D-05 at cycle   1 NSaved=   1.
 NSaved= 1 IEnMin= 1 EnMin= -151.532472933754     IErMin= 1 ErrMin= 2.24D-05
 ErrMax= 2.24D-05 EMaxC= 1.00D-01 BMatC= 5.21D-08 BMatP= 5.21D-08
 IDIUse=1 WtCom= 1.00D+00 WtEn= 0.00D+00
 Coeff-Com:  0.100D+01
 Coeff:      0.100D+01
 Gap=     0.464 Goal=   None    Shift=    0.000
 RMSDP=1.14D-06 MaxDP=1.91D-05              OVMax= 7.47D-05

 Cycle   2  Pass 1  IDiag  1:
 RMSU=  8.04D-07    CP:  1.00D+00
 FoFJK:  IHMeth= 1 ICntrl=     0 DoSepK=T KAlg= 1 I1Cent= 0 FoldK=F
 E= -151.532472979959     Delta-E=       -0.000000046205 Rises=F Damp=F
 DIIS: error= 4.23D-06 at cycle   2 NSaved=   2.
 NSaved= 2 IEnMin= 2 EnMin= -151.532472979959     IErMin= 2 ErrMin= 4.23D-06
 ErrMax= 4.23D-06 EMaxC= 1.00D-01 BMatC= 2.04D-09 BMatP= 5.21D-08
 IDIUse=1 WtCom= 1.00D+00 WtEn= 0.00D+00
 Coeff-Com: -0.130D+00 0.113D+01
 Coeff:     -0.130D+00 0.113D+01
 Gap=     0.464 Goal=   None    Shift=    0.000
 RMSDP=3.97D-07 MaxDP=6.89D-06 DE=-4.62D-08 OVMax= 3.36D-05

 Cycle   3  Pass 1  IDiag  1:
 RMSU=  1.57D-07    CP:  1.00D+00  1.29D+00
 FoFJK:  IHMeth= 1 ICntrl=     0 DoSepK=T KAlg= 1 I1Cent= 0 FoldK=F
 E= -151.532472984547     Delta-E=       -0.000000004588 Rises=F Damp=F
 DIIS: error= 1.19D-06 at cycle   3 NSaved=   3.
 NSaved= 3 IEnMin= 3 EnMin= -151.532472984547     IErMin= 3 ErrMin= 1.19D-06
 ErrMax= 1.19D-06 EMaxC= 1.00D-01 BMatC= 2.10D-10 BMatP= 2.04D-09
 IDIUse=1 WtCom= 1.00D+00 WtEn= 0.00D+00
 Coeff-Com: -0.110D-01-0.116D+00 0.113D+01
 Coeff:     -0.110D-01-0.116D+00 0.113D+01
 Gap=     0.464 Goal=   None    Shift=    0.000
 RMSDP=1.51D-07 MaxDP=3.45D-06 DE=-4.59D-09 OVMax= 1.29D-05

 Cycle   4  Pass 1  IDiag  1:
 RMSU=  5.61D-08    CP:  1.00D+00  1.37D+00  1.40D+00
 FoFJK:  IHMeth= 1 ICntrl=     0 DoSepK=T KAlg= 1 I1Cent= 0 FoldK=F
 E= -151.532472985016     Delta-E=       -0.000000000469 Rises=F Damp=F
 DIIS: error= 8.02D-07 at cycle   4 NSaved=   4.
 NSaved= 4 IEnMin= 4 EnMin= -151.532472985016     IErMin= 4 ErrMin= 8.02D-07
 ErrMax= 8.02D-07 EMaxC= 1.00D-01 BMatC= 1.28D-10 BMatP= 2.10D-10
 IDIUse=1 WtCom= 1.00D+00 WtEn= 0.00D+00
 Coeff-Com:  0.106D-01-0.204D+00 0.567D+00 0.627D+00
 Coeff:      0.106D-01-0.204D+00 0.567D+00 0.627D+00
 Gap=     0.464 Goal=   None    Shift=    0.000
 RMSDP=5.52D-08 MaxDP=1.57D-06 DE=-4.69D-10 OVMax= 3.77D-06

 Cycle   5  Pass 1  IDiag  1:
 RMSU=  1.91D-08    CP:  1.00D+00  1.39D+00  1.58D+00  7.69D-01
 FoFJK:  IHMeth= 1 ICntrl=     0 DoSepK=T KAlg= 1 I1Cent= 0 FoldK=F
 E= -151.532472985132     Delta-E=       -0.000000000116 Rises=F Damp=F
 DIIS: error= 2.25D-07 at cycle   5 NSaved=   5.
 NSaved= 5 IEnMin= 5 EnMin= -151.532472985132     IErMin= 5 ErrMin= 2.25D-07
 ErrMax= 2.25D-07 EMaxC= 1.00D-01 BMatC= 5.98D-12 BMatP= 1.28D-10
 IDIUse=1 WtCom= 1.00D+00 WtEn= 0.00D+00
 Coeff-Com:  0.302D-02-0.168D-01-0.739D-01 0.925D-01 0.995D+00
 Coeff:      0.302D-02-0.168D-01-0.739D-01 0.925D-01 0.995D+00
 Gap=     0.464 Goal=   None    Shift=    0.000
 RMSDP=2.39D-08 MaxDP=3.71D-07 DE=-1.16D-10 OVMax= 2.04D-06

 Cycle   6  Pass 1  IDiag  1:
 RMSU=  7.43D-09    CP:  1.00D+00  1.39D+00  1.64D+00  9.15D-01  1.32D+00
 FoFJK:  IHMeth= 1 ICntrl=     0 DoSepK=T KAlg= 1 I1Cent= 0 FoldK=F
 E= -151.532472985145     Delta-E=       -0.000000000013 Rises=F Damp=F
 DIIS: error= 7.76D-08 at cycle   6 NSaved=   6.
 NSaved= 6 IEnMin= 6 EnMin= -151.532472985145     IErMin= 6 ErrMin= 7.76D-08
 ErrMax= 7.76D-08 EMaxC= 1.00D-01 BMatC= 8.40D-13 BMatP= 5.98D-12
 IDIUse=1 WtCom= 1.00D+00 WtEn= 0.00D+00
 Coeff-Com: -0.495D-03 0.186D-01-0.745D-01-0.469D-01 0.213D+00 0.891D+00
 Coeff:     -0.495D-03 0.186D-01-0.745D-01-0.469D-01 0.213D+00 0.891D+00
 Gap=     0.464 Goal=   None    Shift=    0.000
 RMSDP=8.96D-09 MaxDP=1.16D-07 DE=-1.30D-11 OVMax= 9.25D-07

 SCF Done:  E(RLC-wPBE) =  -151.532472985     A.U. after    6 cycles
             Convg  =    0.8956D-08             -V/T =  2.0071
 KE= 1.504637639237D+02 PE=-4.315407950405D+02 EE= 9.293871308272D+01
 Leave Link  502 at Fri May  8 14:30:47 2020, MaxMem= 1073741824 cpu:      44.8
 (Enter /home/matheus/.gaussian/g09/l122.exe)
 Restoring MOs from calculation   5 to rwf.
 Counterpoise: doing MCBS calculation for fragment   2
 Leave Link  122 at Fri May  8 14:30:47 2020, MaxMem= 1073741824 cpu:       0.0
 (Enter /home/matheus/.gaussian/g09/l301.exe)
 Basis read from rwf:  (5D, 7F)
 No pseudopotential information found on rwf file.
 There are    59 symmetry adapted basis functions of A   symmetry.
 Integral buffers will be    131072 words long.
 Raffenetti 2 integral format.
 Two-electron integral symmetry is turned on.
    59 basis functions,   217 primitive gaussians,    69 cartesian basis functions
    18 alpha electrons       18 beta electrons
       nuclear repulsion energy         0.0000000000 Hartrees.
 IExCor=32609 DFT=T Ex+Corr=LC-wPBE ExCW=0 ScaHFX=  1.000000
 ScaDFX=  1.000000  0.000000  1.000000  1.000000 ScalE2=  1.000000  1.000000
 IRadAn=      5 IRanWt=     -1 IRanGd=            0 ICorTp=0
  HFx wShort=  0.000000 wLong=  0.550000 cFull=  0.000000 cShort=  0.000000 cLong=  1.000000
  DFx wShort=  0.000000 wLong=  0.550000 cFull=  0.000000 cShort=  0.000000 cLong=  1.000000
 NAtoms=    5 NActive=    1 NUniq=    1 SFac= 1.00D+00 NAtFMM=   60 NAOKFM=F Big=F
 No density basis found on file   718.
 Leave Link  301 at Fri May  8 14:30:47 2020, MaxMem= 1073741824 cpu:       0.2
 (Enter /home/matheus/.gaussian/g09/l302.exe)
 NPDir=0 NMtPBC=     1 NCelOv=     1 NCel=       1 NClECP=     1 NCelD=      1
         NCelK=      1 NCelE2=     1 NClLst=     1 CellRange=     0.0.
 One-electron integrals computed using PRISM.
 NBasis=    59 RedAO= T  NBF=    59
 NBsUse=    59 1.00D-06 NBFU=    59
 Precomputing XC quadrature grid using
 IXCGrd= 2 IRadAn=           5 IRanWt=          -1 IRanGd=           0 AccXCQ= 0.00D+00.
 NRdTot=      81 NPtTot=       30352 NUsed=       30981 NTot=       31013
 NSgBfM=    69    69    69    69    69 NAtAll=     1     1.
 Leave Link  302 at Fri May  8 14:30:47 2020, MaxMem= 1073741824 cpu:       0.7
 (Enter /home/matheus/.gaussian/g09/l303.exe)
 DipDrv:  MaxL=1.
 Leave Link  303 at Fri May  8 14:30:47 2020, MaxMem= 1073741824 cpu:       0.1
 (Enter /home/matheus/.gaussian/g09/l401.exe)
 Initial guess read from the read-write file.
 Guess basis will be translated and rotated to current coordinates.
 Initial guess orbital symmetries:
       Occupied  (A) (A) (A) (A) (A) (A) (A) (A) (A) (A) (A) (A)
                 (A) (A) (A) (A) (A) (A)
       Virtual   (A) (A) (A) (A) (A) (A) (A) (A) (A) (A) (A) (A)
                 (A) (A) (A) (A) (A) (A) (A) (A) (A) (A) (A) (A)
                 (A) (A) (A) (A) (A) (A) (A) (A) (A) (A) (A) (A)
                 (A) (A) (A) (A) (A)
 The electronic state of the initial guess is 1-A.
 Generating alternative initial guess.
 Harris functional with IExCor=32609 diagonalized for initial guess.
 ExpMin= 4.00D-02 ExpMax= 1.17D+07 ExpMxC= 1.33D+04 IAcc=3 IRadAn=         5 AccDes= 0.00D+00
 HarFok:  IExCor=32609 AccDes= 0.00D+00 IRadAn=         5 IDoV= 1
 ScaDFX=  1.000000  1.000000  1.000000  1.000000
 FoFCou: FMM=F IPFlag=           0 FMFlag=      100000 FMFlg1=           0
         NFxFlg=           0 DoJE=T BraDBF=F KetDBF=T FulRan=T
         Omega=  0.000000  0.000000  1.000000  0.000000  0.000000 ICntrl=     500 IOpCl=  0
         NMat0=    1 NMatS0=    1 NMatT0=    0 NMatD0=    1 NMtDS0=    0 NMtDT0=    0
         I1Cent=           4 NGrid=           0.
 Petite list used in FoFCou.
 Harris En= -2753.24576836237    
 Leave Link  401 at Fri May  8 14:30:47 2020, MaxMem= 1073741824 cpu:       1.1
 (Enter /home/matheus/.gaussian/g09/l502.exe)
 Closed shell SCF:
 Requested convergence on RMS density matrix=1.00D-08 within 128 cycles.
 Requested convergence on MAX density matrix=1.00D-06.
 Requested convergence on             energy=1.00D-06.
 No special actions if energy rises.
 Using DIIS extrapolation, IDIIS=  1040.
 Integral symmetry usage will be decided dynamically.
        30923 words used for storage of precomputed grid.
 IEnd=       64406 IEndB=       64406 NGot=  1073741824 MDV=  1073698889
 LenX=  1073698889 LenY=  1073693687
 Fock matrices will be formed incrementally for  20 cycles.

 Cycle   1  Pass 1  IDiag  1:
 FoFJK:  IHMeth= 1 ICntrl=     0 DoSepK=T KAlg= 1 I1Cent= 0 FoldK=F
 FoFCou: FMM=F IPFlag=           0 FMFlag=      100000 FMFlg1=           0
         NFxFlg=           0 DoJE=T BraDBF=F KetDBF=F FulRan=T
         Omega=  0.000000  0.000000  1.000000  0.000000  0.000000 ICntrl=     500 IOpCl=  0
         NMat0=    1 NMatS0=    1 NMatT0=    0 NMatD0=    1 NMtDS0=    0 NMtDT0=    0
         I1Cent=           0 NGrid=           0.
 Symmetry not used in FoFCou.
 E= -2753.47775989058    
 DIIS: error= 4.89D-14 at cycle   1 NSaved=   1.
 NSaved= 1 IEnMin= 1 EnMin= -2753.47775989058     IErMin= 1 ErrMin= 4.89D-14
 ErrMax= 4.89D-14 EMaxC= 1.00D-01 BMatC= 1.21D-25 BMatP= 1.21D-25
 IDIUse=1 WtCom= 1.00D+00 WtEn= 0.00D+00
 Coeff-Com:  0.100D+01
 Coeff:      0.100D+01
 Gap=     0.626 Goal=   None    Shift=    0.000
 DSYEVD returned Info=          89 IAlg= 4 N=    59 NDim=    59 NE2=    18198197 trying DSYEV.
 RMSDP=3.71D-15 MaxDP=7.08D-14              OVMax= 3.28D-14

 SCF Done:  E(RLC-wPBE) =  -2753.47775989     A.U. after    1 cycles
             Convg  =    0.3706D-14             -V/T =  2.0014
 KE= 2.749561508178D+03 PE=-6.579099712888D+03 EE= 1.076060444820D+03
 Leave Link  502 at Fri May  8 14:30:48 2020, MaxMem= 1073741824 cpu:      11.3
 (Enter /home/matheus/.gaussian/g09/l122.exe)
 Restoring MOs from calculation   1 to rwf.
 Counterpoise: corrected energy =   -2905.010255085052
 Counterpoise: BSSE energy =       0.000024639797
 Leave Link  122 at Fri May  8 14:30:48 2020, MaxMem= 1073741824 cpu:       0.0
 (Enter /home/matheus/.gaussian/g09/l108.exe)
 Scan completed.

 Summary of the potential surface scan:
   N      R1          SCF    
 ----  ---------  -----------
    1     3.0000  -2753.47776
    2     3.1000  -2753.47776
    3     3.2000  -2753.47776
    4     3.3000  -2753.47776
    5     3.4000  -2753.47776
    6     3.5000  -2753.47776
    7     3.6000  -2753.47776
    8     3.7000  -2753.47776
    9     3.8000  -2753.47776
   10     3.9000  -2753.47776
   11     4.0000  -2753.47776
   12     4.1000  -2753.47776
   13     4.2000  -2753.47776
   14     4.3000  -2753.47776
   15     4.4000  -2753.47776
   16     4.5000  -2753.47776
   17     4.6000  -2753.47776
   18     4.7000  -2753.47776
   19     4.8000  -2753.47776
   20     4.9000  -2753.47776
   21     5.0000  -2753.47776
 ----  ---------  -----------
  
 Leave Link  108 at Fri May  8 14:30:48 2020, MaxMem= 1073741824 cpu:       0.0
 (Enter /home/matheus/.gaussian/g09/l9999.exe)

 Test job not archived.
 1\1\GINC-REDGIANT\Scan\RLC-wPBE\Aug-CC-pVTZ\H2Kr1O2\MATHEUS\08-May-202
 0\1\\#p lc-wpbe/aug-cc-PVTz iop(3/107=0550000000) iop(3/108=0550000000
 ) int=ultrafine counterpoise=2 Scan\\TCC\\0,1\O,0,0.,0.,0.725\O,0,0.,0
 .,-0.725\H,0,0.5905422151,-0.7037808064,1.0235104166\H,0,0.,0.91872059
 47,-1.0235104166\Kr,0,0.,R1,0.\\R1=3.,s,20,0.1\\Version=EM64L-G09RevC.
 01\State=1-A\HF=-2753.4777599,-2753.4777599,-2753.4777599,-2753.477759
 9,-2753.4777599,-2753.4777599,-2753.4777599,-2753.4777599,-2753.477759
 9,-2753.4777599,-2753.4777599,-2753.4777599,-2753.4777599,-2753.477759
 9,-2753.4777599,-2753.4777599,-2753.4777599,-2753.4777599,-2753.477759
 9,-2753.4777599,-2753.4777599\RMSD=1.997e-09,5.419e-11,1.020e-11,4.440
 e-12,2.194e-12,1.230e-12,6.782e-13,3.779e-13,2.109e-13,1.146e-13,6.363
 e-14,3.706e-14,1.997e-14,1.523e-14,1.058e-14,1.160e-14,1.456e-14,1.105
 e-14,1.097e-14,1.123e-14,3.706e-15\PG=C01 [X(H2Kr1O2)]\\@


 MANHOOD BEGINS BY TRYING TO SHAVE FACE,
 AND ENDS BY TRYING TO SAVE FACE.
 Job cpu time:  0 days  3 hours 10 minutes 17.7 seconds.
 File lengths (MBytes):  RWF=     33 Int=      0 D2E=      0 Chk=      8 Scr=      1
 Normal termination of Gaussian 09 at Fri May  8 14:30:48 2020.
