 Entering Gaussian System, Link 0=g09
 Input=/home/matheus/.tcc/Inputs-lc-wpbe/H2O2-Kr_21.com
 Output=/home/matheus/.tcc/Logs-lc-wpbe/H2O2-Kr_21.log
 Initial command:
 /home/matheus/.gaussian/g09/l1.exe /home/matheus/.gaussian/g09/scratch/Gau-9365.inp -scrdir=/home/matheus/.gaussian/g09/scratch/
 Entering Link 1 = /home/matheus/.gaussian/g09/l1.exe PID=      9368.
  
 Copyright (c) 1988,1990,1992,1993,1995,1998,2003,2009,2011,
            Gaussian, Inc.  All Rights Reserved.
  
 This is part of the Gaussian(R) 09 program.  It is based on
 the Gaussian(R) 03 system (copyright 2003, Gaussian, Inc.),
 the Gaussian(R) 98 system (copyright 1998, Gaussian, Inc.),
 the Gaussian(R) 94 system (copyright 1995, Gaussian, Inc.),
 the Gaussian 92(TM) system (copyright 1992, Gaussian, Inc.),
 the Gaussian 90(TM) system (copyright 1990, Gaussian, Inc.),
 the Gaussian 88(TM) system (copyright 1988, Gaussian, Inc.),
 the Gaussian 86(TM) system (copyright 1986, Carnegie Mellon
 University), and the Gaussian 82(TM) system (copyright 1983,
 Carnegie Mellon University). Gaussian is a federally registered
 trademark of Gaussian, Inc.
  
 This software contains proprietary and confidential information,
 including trade secrets, belonging to Gaussian, Inc.
  
 This software is provided under written license and may be
 used, copied, transmitted, or stored only in accord with that
 written license.
  
 The following legend is applicable only to US Government
 contracts under FAR:
  
                    RESTRICTED RIGHTS LEGEND
  
 Use, reproduction and disclosure by the US Government is
 subject to restrictions as set forth in subparagraphs (a)
 and (c) of the Commercial Computer Software - Restricted
 Rights clause in FAR 52.227-19.
  
 Gaussian, Inc.
 340 Quinnipiac St., Bldg. 40, Wallingford CT 06492
  
  
 ---------------------------------------------------------------
 Warning -- This program may not be used in any manner that
 competes with the business of Gaussian, Inc. or will provide
 assistance to any competitor of Gaussian, Inc.  The licensee
 of this program is prohibited from giving any competitor of
 Gaussian, Inc. access to this program.  By using this program,
 the user acknowledges that Gaussian, Inc. is engaged in the
 business of creating and licensing software in the field of
 computational chemistry and represents and warrants to the
 licensee that it is not a competitor of Gaussian, Inc. and that
 it will not use this program in any manner prohibited above.
 ---------------------------------------------------------------
  

 Cite this work as:
 Gaussian 09, Revision C.01,
 M. J. Frisch, G. W. Trucks, H. B. Schlegel, G. E. Scuseria, 
 M. A. Robb, J. R. Cheeseman, G. Scalmani, V. Barone, B. Mennucci, 
 G. A. Petersson, H. Nakatsuji, M. Caricato, X. Li, H. P. Hratchian, 
 A. F. Izmaylov, J. Bloino, G. Zheng, J. L. Sonnenberg, M. Hada, 
 M. Ehara, K. Toyota, R. Fukuda, J. Hasegawa, M. Ishida, T. Nakajima, 
 Y. Honda, O. Kitao, H. Nakai, T. Vreven, J. A. Montgomery, Jr., 
 J. E. Peralta, F. Ogliaro, M. Bearpark, J. J. Heyd, E. Brothers, 
 K. N. Kudin, V. N. Staroverov, T. Keith, R. Kobayashi, J. Normand, 
 K. Raghavachari, A. Rendell, J. C. Burant, S. S. Iyengar, J. Tomasi, 
 M. Cossi, N. Rega, J. M. Millam, M. Klene, J. E. Knox, J. B. Cross, 
 V. Bakken, C. Adamo, J. Jaramillo, R. Gomperts, R. E. Stratmann, 
 O. Yazyev, A. J. Austin, R. Cammi, C. Pomelli, J. W. Ochterski, 
 R. L. Martin, K. Morokuma, V. G. Zakrzewski, G. A. Voth, 
 P. Salvador, J. J. Dannenberg, S. Dapprich, A. D. Daniels, 
 O. Farkas, J. B. Foresman, J. V. Ortiz, J. Cioslowski, 
 and D. J. Fox, Gaussian, Inc., Wallingford CT, 2010.
 
 ******************************************
 Gaussian 09:  EM64L-G09RevC.01 23-Sep-2011
                 8-May-2020 
 ******************************************
 %mem=8GB
 %nproc=8
 Will use up to    8 processors via shared memory.
 ----------------------------------------------------------------------
 #p lc-wpbe/aug-cc-PVTz iop(3/107=0550000000) iop(3/108=0550000000) int
 =ultrafine counterpoise=2 Scan
 ----------------------------------------------------------------------
 1/38=1,60=1,62=2/1,8;
 2/12=2,17=6,18=5,29=3,40=1/2;
 1/38=1,53=5172,62=2/22;
 3/5=16,6=1,7=10,11=2,16=1,25=1,30=1,74=-41,75=-5,107=550000000,108=550000000/1,2,3;
 4//1;
 5/5=2,38=5/2;
 6/7=2,8=2,9=2,10=2,18=1,28=1/1;
 1/53=4052,62=2,63=1/22;
 3/5=7,6=11,7=10,11=2,16=1,25=1,30=1,74=-41,75=-5,82=7,107=550000000,108=550000000/1,2,3;
 4//1;
 5/5=2,38=5/2;
 6/7=2,8=2,9=2,10=2,18=1,28=1/1;
 1/53=3042,62=2,63=2/22;
 3/5=7,6=11,7=10,11=2,16=1,25=1,30=1,74=-41,75=-5,82=7,107=550000000,108=550000000/1,2,3;
 4//1;
 5/5=2,38=5/2;
 6/7=2,8=2,9=2,10=2,18=1,28=1/1;
 1/53=2032,62=2,63=3/22;
 3/5=7,6=11,7=10,11=2,16=1,25=1,30=1,74=-41,75=-5,82=7,107=550000000,108=550000000/1,2,3;
 4//1;
 5/5=2,38=5/2;
 6/7=2,8=2,9=2,10=2,18=1,28=1/1;
 1/53=1022,62=2,63=4/22;
 3/5=7,6=11,7=10,11=2,16=1,25=1,30=1,74=-41,75=-5,82=7,107=550000000,108=550000000/1,2,3;
 4//1;
 5/5=2,38=5/2;
 6/7=2,8=2,9=2,10=2,18=1,28=1/1;
 1/53=5014,62=2,63=5/22;
 1/60=1,62=2/8(1);
 99/9=1/99;
 2/29=3/2;
 1/53=5173,62=2/22;
 3/5=7,6=11,7=10,11=2,16=1,25=1,30=1,74=-41,75=-5,82=7,107=550000000,108=550000000/1,2,3;
 4/5=5,16=3/1;
 5/5=2,38=5/2;
 1/53=4053,62=2,63=1/22;
 3/5=7,6=11,7=10,11=2,16=1,25=1,30=1,74=-41,75=-5,82=7,107=550000000,108=550000000/1,2,3;
 4/5=5,16=3/1;
 5/5=2,38=5/2;
 1/53=3043,62=2,63=2/22;
 3/5=7,6=11,7=10,11=2,16=1,25=1,30=1,74=-41,75=-5,82=7,107=550000000,108=550000000/1,2,3;
 4/5=5,16=3/1;
 5/5=2,38=5/2;
 1/53=2033,62=2,63=3/22;
 3/5=7,6=11,7=10,11=2,16=1,25=1,30=1,74=-41,75=-5,82=7,107=550000000,108=550000000/1,2,3;
 4/5=5,16=3/1;
 5/5=2,38=5/2;
 1/53=1024,62=2,63=4/22;
 3/5=7,6=11,7=10,11=2,16=1,25=1,30=1,74=-41,75=-5,82=7,107=550000000,108=550000000/1,2,3;
 4/5=5,16=3/1;
 5/5=2,38=5/2;
 1/53=5014,62=2,63=5/22;
 1/60=1,62=2/8(-22);
 99/9=1/99;
 Leave Link    1 at Fri May  8 00:52:07 2020, MaxMem= 1073741824 cpu:       0.1
 (Enter /home/matheus/.gaussian/g09/l101.exe)
 ---
 TCC
 ---
 Charge =  0 Multiplicity = 1 in supermolecule
 Charge =  0 Multiplicity = 1 in fragment  1.
 Charge =  0 Multiplicity = 1 in fragment  2.
 Symbolic Z-Matrix:
 O(Fragment=1)         0.        0.        0.725 
 O(Fragment=1)         0.        0.       -0.725 
 H(Fragment=1)        -0.45936  -0.79564   1.02351 
 H(Fragment=1)         0.        0.91872  -1.02351 
 Kr(Fragment=2)        0.       R1        0. 
       Variables:
  R1                    3.     Scan 20    0.1    
 
 NAtoms=      5 NQM=        0 NQMF=       0 NMMI=      5 NMMIF=      0
                NMic=       0 NMicF=      0.
                    Isotopes and Nuclear Properties:
 (Nuclear quadrupole moments (NQMom) in fm**2, nuclear magnetic moments (NMagM)
  in nuclear magnetons)

  Atom         1           2           3           4           5
 IAtWgt=          16          16           1           1          84
 AtmWgt=  15.9949146  15.9949146   1.0078250   1.0078250  83.9115064
 NucSpn=           0           0           1           1           0
 AtZEff=   0.0000000   0.0000000   0.0000000   0.0000000   0.0000000
 NQMom=    0.0000000   0.0000000   0.0000000   0.0000000   0.0000000
 NMagM=    0.0000000   0.0000000   2.7928460   2.7928460   0.0000000
 Leave Link  101 at Fri May  8 00:52:07 2020, MaxMem= 1073741824 cpu:       0.3
 (Enter /home/matheus/.gaussian/g09/l108.exe)
 Scan the potential surface.
 Variable   Value     No. Steps Step-Size
 -------- ----------- --------- ---------
     1       3.000000      20      0.1000
 A total of     21 points will be computed.
 Leave Link  108 at Fri May  8 00:52:07 2020, MaxMem= 1073741824 cpu:       0.0
 (Enter /home/matheus/.gaussian/g09/l202.exe)
 ---------------------------------------------------------------------------------------------------
                            Z-MATRIX (ANGSTROMS AND DEGREES)
   CD    Cent   Atom    N1       Length/X        N2       Alpha/Y        N3        Beta/Z          J
 ---------------------------------------------------------------------------------------------------
      1      1  O        0   0.000000          0.000000          0.725000
      2      2  O        0   0.000000          0.000000         -0.725000
      3      3  H        0  -0.459360         -0.795635          1.023510
      4      4  H        0   0.000000          0.918721         -1.023510
      5      5  Kr       0   0.000000          3.000000          0.000000
 ---------------------------------------------------------------------------------------------------
                         Z-Matrix orientation:                         
 ---------------------------------------------------------------------
 Center     Atomic      Atomic             Coordinates (Angstroms)
 Number     Number       Type             X           Y           Z
 ---------------------------------------------------------------------
      1          8           0        0.000000    0.000000    0.725000
      2          8           0        0.000000    0.000000   -0.725000
      3          1           0       -0.459360   -0.795635    1.023510
      4          1           0        0.000000    0.918721   -1.023510
      5         36           0        0.000000    3.000000    0.000000
 ---------------------------------------------------------------------
                    Distance matrix (angstroms):
                    1          2          3          4          5
     1  O    0.000000
     2  O    1.450000   0.000000
     3  H    0.966000   1.975180   0.000000
     4  H    1.975180   0.966000   2.709303   0.000000
     5  Kr   3.086361   3.086361   3.957958   2.319331   0.000000
 Stoichiometry    H2KrO2
 Framework group  C1[X(H2KrO2)]
 Deg. of freedom     9
 Full point group                 C1      NOp   1
 Largest Abelian subgroup         C1      NOp   1
 Largest concise Abelian subgroup C1      NOp   1
                         Standard orientation:                         
 ---------------------------------------------------------------------
 Center     Atomic      Atomic             Coordinates (Angstroms)
 Number     Number       Type             X           Y           Z
 ---------------------------------------------------------------------
      1          8           0       -2.014667   -0.687062   -0.062307
      2          8           0       -1.988768    0.761329    0.000872
      3          1           0       -2.820911   -0.990551    0.374753
      4          1           0       -1.064927    1.042640    0.024073
      5         36           0        0.997592   -0.017951    0.002574
 ---------------------------------------------------------------------
 Rotational constants (GHZ):     26.4417565      2.3080537      2.1261727
 Leave Link  202 at Fri May  8 00:52:07 2020, MaxMem= 1073741824 cpu:       0.0
 (Enter /home/matheus/.gaussian/g09/l122.exe)
 Leave Link  122 at Fri May  8 00:52:07 2020, MaxMem= 1073741824 cpu:       0.0
 (Enter /home/matheus/.gaussian/g09/l301.exe)
 Standard basis: Aug-CC-pVTZ (5D, 7F)
 Ernie: Thresh=  0.10000D-02 Tol=  0.10000D-05 Strict=F.
 Ernie:  38 primitive shells out of 205 were deleted.
 There are   197 symmetry adapted basis functions of A   symmetry.
 Integral buffers will be    131072 words long.
 Raffenetti 2 integral format.
 Two-electron integral symmetry is turned on.
   197 basis functions,   415 primitive gaussians,   229 cartesian basis functions
    27 alpha electrons       27 beta electrons
       nuclear repulsion energy       148.3895250152 Hartrees.
 IExCor=32609 DFT=T Ex+Corr=LC-wPBE ExCW=0 ScaHFX=  1.000000
 ScaDFX=  1.000000  0.000000  1.000000  1.000000 ScalE2=  1.000000  1.000000
 IRadAn=      5 IRanWt=     -1 IRanGd=            0 ICorTp=0
  HFx wShort=  0.000000 wLong=  0.550000 cFull=  0.000000 cShort=  0.000000 cLong=  1.000000
  DFx wShort=  0.000000 wLong=  0.550000 cFull=  0.000000 cShort=  0.000000 cLong=  1.000000
 NAtoms=    5 NActive=    5 NUniq=    5 SFac= 1.00D+00 NAtFMM=   60 NAOKFM=F Big=F
 Leave Link  301 at Fri May  8 00:52:07 2020, MaxMem= 1073741824 cpu:       0.2
 (Enter /home/matheus/.gaussian/g09/l302.exe)
 NPDir=0 NMtPBC=     1 NCelOv=     1 NCel=       1 NClECP=     1 NCelD=      1
         NCelK=      1 NCelE2=     1 NClLst=     1 CellRange=     0.0.
 One-electron integrals computed using PRISM.
 NBasis=   197 RedAO= T  NBF=   197
 NBsUse=   197 1.00D-06 NBFU=   197
 Precomputing XC quadrature grid using
 IXCGrd= 2 IRadAn=           5 IRanWt=          -1 IRanGd=           0 AccXCQ= 0.00D+00.
 NRdTot=     427 NPtTot=      123814 NUsed=      126881 NTot=      126913
 NSgBfM=   229   229   229   229   229 NAtAll=     5     5.
 Leave Link  302 at Fri May  8 00:52:07 2020, MaxMem= 1073741824 cpu:       1.0
 (Enter /home/matheus/.gaussian/g09/l303.exe)
 DipDrv:  MaxL=1.
 Leave Link  303 at Fri May  8 00:52:07 2020, MaxMem= 1073741824 cpu:       0.2
 (Enter /home/matheus/.gaussian/g09/l401.exe)
 Harris functional with IExCor=32609 diagonalized for initial guess.
 ExpMin= 2.53D-02 ExpMax= 1.17D+07 ExpMxC= 1.33D+04 IAcc=3 IRadAn=         5 AccDes= 0.00D+00
 HarFok:  IExCor=32609 AccDes= 0.00D+00 IRadAn=         5 IDoV= 1
 ScaDFX=  1.000000  1.000000  1.000000  1.000000
 FoFCou: FMM=F IPFlag=           0 FMFlag=      100000 FMFlg1=           0
         NFxFlg=           0 DoJE=T BraDBF=F KetDBF=T FulRan=T
         Omega=  0.000000  0.000000  1.000000  0.000000  0.000000 ICntrl=     500 IOpCl=  0
         NMat0=    1 NMatS0=    1 NMatT0=    0 NMatD0=    1 NMtDS0=    0 NMtDT0=    0
         I1Cent=           4 NGrid=           0.
 Petite list used in FoFCou.
 Harris En= -2904.73745783418    
 Initial guess orbital symmetries:
       Occupied  (A) (A) (A) (A) (A) (A) (A) (A) (A) (A) (A) (A)
                 (A) (A) (A) (A) (A) (A) (A) (A) (A) (A) (A) (A)
                 (A) (A) (A)
       Virtual   (A) (A) (A) (A) (A) (A) (A) (A) (A) (A) (A) (A)
                 (A) (A) (A) (A) (A) (A) (A) (A) (A) (A) (A) (A)
                 (A) (A) (A) (A) (A) (A) (A) (A) (A) (A) (A) (A)
                 (A) (A) (A) (A) (A) (A) (A) (A) (A) (A) (A) (A)
                 (A) (A) (A) (A) (A) (A) (A) (A) (A) (A) (A) (A)
                 (A) (A) (A) (A) (A) (A) (A) (A) (A) (A) (A) (A)
                 (A) (A) (A) (A) (A) (A) (A) (A) (A) (A) (A) (A)
                 (A) (A) (A) (A) (A) (A) (A) (A) (A) (A) (A) (A)
                 (A) (A) (A) (A) (A) (A) (A) (A) (A) (A) (A) (A)
                 (A) (A) (A) (A) (A) (A) (A) (A) (A) (A) (A) (A)
                 (A) (A) (A) (A) (A) (A) (A) (A) (A) (A) (A) (A)
                 (A) (A) (A) (A) (A) (A) (A) (A) (A) (A) (A) (A)
                 (A) (A) (A) (A) (A) (A) (A) (A) (A) (A) (A) (A)
                 (A) (A) (A) (A) (A) (A) (A) (A) (A) (A) (A) (A)
                 (A) (A)
 The electronic state of the initial guess is 1-A.
 Leave Link  401 at Fri May  8 00:52:07 2020, MaxMem= 1073741824 cpu:       4.0
 (Enter /home/matheus/.gaussian/g09/l502.exe)
 Closed shell SCF:
 Requested convergence on RMS density matrix=1.00D-08 within 128 cycles.
 Requested convergence on MAX density matrix=1.00D-06.
 Requested convergence on             energy=1.00D-06.
 No special actions if energy rises.
 Using DIIS extrapolation, IDIIS=  1040.
 Integral symmetry usage will be decided dynamically.
       126823 words used for storage of precomputed grid.
 IEnd=      305770 IEndB=      305770 NGot=  1073741824 MDV=  1073505365
 LenX=  1073505365 LenY=  1073452483
 Fock matrices will be formed incrementally for  20 cycles.

 Cycle   1  Pass 1  IDiag  1:
 FoFJK:  IHMeth= 1 ICntrl=     0 DoSepK=T KAlg= 1 I1Cent= 0 FoldK=F
 FoFCou: FMM=F IPFlag=           0 FMFlag=      100000 FMFlg1=           0
         NFxFlg=           0 DoJE=T BraDBF=F KetDBF=F FulRan=T
         Omega=  0.000000  0.000000  1.000000  0.000000  0.000000 ICntrl=     500 IOpCl=  0
         NMat0=    1 NMatS0=    1 NMatT0=    0 NMatD0=    1 NMtDS0=    0 NMtDT0=    0
         I1Cent=           0 NGrid=           0.
 Symmetry not used in FoFCou.
 E= -2904.93212767299    
 DIIS: error= 2.33D-02 at cycle   1 NSaved=   1.
 NSaved= 1 IEnMin= 1 EnMin= -2904.93212767299     IErMin= 1 ErrMin= 2.33D-02
 ErrMax= 2.33D-02 EMaxC= 1.00D-01 BMatC= 2.66D-01 BMatP= 2.66D-01
 IDIUse=3 WtCom= 7.67D-01 WtEn= 2.33D-01
 Coeff-Com:  0.100D+01
 Coeff-En:   0.100D+01
 Coeff:      0.100D+01
 Gap=     0.541 Goal=   None    Shift=    0.000
 GapD=    0.541 DampG=2.000 DampE=0.500 DampFc=1.0000 IDamp=-1.
 RMSDP=2.22D-03 MaxDP=1.43D-01              OVMax= 6.12D-02

 Cycle   2  Pass 1  IDiag  1:
 RMSU=  1.55D-03    CP:  1.02D+00
 FoFJK:  IHMeth= 1 ICntrl=     0 DoSepK=T KAlg= 1 I1Cent= 0 FoldK=F
 E= -2904.98227699642     Delta-E=       -0.050149323432 Rises=F Damp=F
 DIIS: error= 9.23D-03 at cycle   2 NSaved=   2.
 NSaved= 2 IEnMin= 2 EnMin= -2904.98227699642     IErMin= 2 ErrMin= 9.23D-03
 ErrMax= 9.23D-03 EMaxC= 1.00D-01 BMatC= 6.66D-02 BMatP= 2.66D-01
 IDIUse=3 WtCom= 9.08D-01 WtEn= 9.23D-02
 Coeff-Com:  0.326D+00 0.674D+00
 Coeff-En:   0.813D-01 0.919D+00
 Coeff:      0.303D+00 0.697D+00
 Gap=     0.470 Goal=   None    Shift=    0.000
 RMSDP=8.66D-04 MaxDP=4.97D-02 DE=-5.01D-02 OVMax= 2.52D-02

 Cycle   3  Pass 1  IDiag  1:
 RMSU=  3.08D-04    CP:  1.01D+00  6.69D-01
 FoFJK:  IHMeth= 1 ICntrl=     0 DoSepK=T KAlg= 1 I1Cent= 0 FoldK=F
 E= -2905.00465012003     Delta-E=       -0.022373123602 Rises=F Damp=F
 DIIS: error= 1.54D-03 at cycle   3 NSaved=   3.
 NSaved= 3 IEnMin= 3 EnMin= -2905.00465012003     IErMin= 3 ErrMin= 1.54D-03
 ErrMax= 1.54D-03 EMaxC= 1.00D-01 BMatC= 1.18D-03 BMatP= 6.66D-02
 IDIUse=3 WtCom= 9.85D-01 WtEn= 1.54D-02
 Coeff-Com:  0.366D-01 0.158D+00 0.805D+00
 Coeff-En:   0.000D+00 0.000D+00 0.100D+01
 Coeff:      0.360D-01 0.156D+00 0.808D+00
 Gap=     0.454 Goal=   None    Shift=    0.000
 RMSDP=9.17D-05 MaxDP=2.77D-03 DE=-2.24D-02 OVMax= 5.56D-03

 Cycle   4  Pass 1  IDiag  1:
 RMSU=  4.66D-05    CP:  1.01D+00  6.97D-01  9.69D-01
 FoFJK:  IHMeth= 1 ICntrl=     0 DoSepK=T KAlg= 1 I1Cent= 0 FoldK=F
 E= -2905.00523644691     Delta-E=       -0.000586326884 Rises=F Damp=F
 DIIS: error= 4.57D-04 at cycle   4 NSaved=   4.
 NSaved= 4 IEnMin= 4 EnMin= -2905.00523644691     IErMin= 4 ErrMin= 4.57D-04
 ErrMax= 4.57D-04 EMaxC= 1.00D-01 BMatC= 7.65D-05 BMatP= 1.18D-03
 IDIUse=3 WtCom= 9.95D-01 WtEn= 4.57D-03
 Coeff-Com: -0.569D-02 0.174D-01 0.271D+00 0.717D+00
 Coeff-En:   0.000D+00 0.000D+00 0.000D+00 0.100D+01
 Coeff:     -0.566D-02 0.173D-01 0.270D+00 0.719D+00
 Gap=     0.459 Goal=   None    Shift=    0.000
 RMSDP=2.89D-05 MaxDP=1.78D-03 DE=-5.86D-04 OVMax= 1.68D-03

 Cycle   5  Pass 1  IDiag  1:
 RMSU=  1.26D-05    CP:  1.01D+00  7.00D-01  1.01D+00  8.69D-01
 FoFJK:  IHMeth= 1 ICntrl=     0 DoSepK=T KAlg= 1 I1Cent= 0 FoldK=F
 E= -2905.00528297257     Delta-E=       -0.000046525662 Rises=F Damp=F
 DIIS: error= 6.49D-05 at cycle   5 NSaved=   5.
 NSaved= 5 IEnMin= 5 EnMin= -2905.00528297257     IErMin= 5 ErrMin= 6.49D-05
 ErrMax= 6.49D-05 EMaxC= 1.00D-01 BMatC= 2.32D-06 BMatP= 7.65D-05
 IDIUse=1 WtCom= 1.00D+00 WtEn= 0.00D+00
 Coeff-Com: -0.227D-02-0.504D-02-0.176D-02 0.112D+00 0.897D+00
 Coeff:     -0.227D-02-0.504D-02-0.176D-02 0.112D+00 0.897D+00
 Gap=     0.458 Goal=   None    Shift=    0.000
 RMSDP=6.81D-06 MaxDP=2.03D-04 DE=-4.65D-05 OVMax= 4.85D-04

 Cycle   6  Pass 1  IDiag  1:
 RMSU=  3.47D-06    CP:  1.01D+00  7.00D-01  1.02D+00  9.29D-01  1.09D+00
 FoFJK:  IHMeth= 1 ICntrl=     0 DoSepK=T KAlg= 1 I1Cent= 0 FoldK=F
 E= -2905.00528501709     Delta-E=       -0.000002044517 Rises=F Damp=F
 DIIS: error= 4.61D-05 at cycle   6 NSaved=   6.
 NSaved= 6 IEnMin= 6 EnMin= -2905.00528501709     IErMin= 6 ErrMin= 4.61D-05
 ErrMax= 4.61D-05 EMaxC= 1.00D-01 BMatC= 7.03D-07 BMatP= 2.32D-06
 IDIUse=1 WtCom= 1.00D+00 WtEn= 0.00D+00
 Coeff-Com: -0.376D-03-0.403D-02-0.292D-01-0.240D-01 0.376D+00 0.681D+00
 Coeff:     -0.376D-03-0.403D-02-0.292D-01-0.240D-01 0.376D+00 0.681D+00
 Gap=     0.458 Goal=   None    Shift=    0.000
 RMSDP=2.95D-06 MaxDP=1.42D-04 DE=-2.04D-06 OVMax= 2.15D-04

 Cycle   7  Pass 1  IDiag  1:
 RMSU=  1.46D-06    CP:  1.01D+00  7.00D-01  1.02D+00  9.44D-01  1.18D+00
                    CP:  8.93D-01
 FoFJK:  IHMeth= 1 ICntrl=     0 DoSepK=T KAlg= 1 I1Cent= 0 FoldK=F
 E= -2905.00528548390     Delta-E=       -0.000000466808 Rises=F Damp=F
 DIIS: error= 1.73D-05 at cycle   7 NSaved=   7.
 NSaved= 7 IEnMin= 7 EnMin= -2905.00528548390     IErMin= 7 ErrMin= 1.73D-05
 ErrMax= 1.73D-05 EMaxC= 1.00D-01 BMatC= 6.77D-08 BMatP= 7.03D-07
 IDIUse=1 WtCom= 1.00D+00 WtEn= 0.00D+00
 Coeff-Com:  0.129D-03-0.733D-03-0.924D-02-0.217D-01-0.475D-02 0.236D+00
 Coeff-Com:  0.800D+00
 Coeff:      0.129D-03-0.733D-03-0.924D-02-0.217D-01-0.475D-02 0.236D+00
 Coeff:      0.800D+00
 Gap=     0.458 Goal=   None    Shift=    0.000
 RMSDP=1.16D-06 MaxDP=4.95D-05 DE=-4.67D-07 OVMax= 9.70D-05

 Cycle   8  Pass 1  IDiag  1:
 RMSU=  4.48D-07    CP:  1.01D+00  7.00D-01  1.02D+00  9.50D-01  1.21D+00
                    CP:  1.02D+00  9.56D-01
 FoFJK:  IHMeth= 1 ICntrl=     0 DoSepK=T KAlg= 1 I1Cent= 0 FoldK=F
 E= -2905.00528555654     Delta-E=       -0.000000072641 Rises=F Damp=F
 DIIS: error= 2.96D-06 at cycle   8 NSaved=   8.
 NSaved= 8 IEnMin= 8 EnMin= -2905.00528555654     IErMin= 8 ErrMin= 2.96D-06
 ErrMax= 2.96D-06 EMaxC= 1.00D-01 BMatC= 2.15D-09 BMatP= 6.77D-08
 IDIUse=1 WtCom= 1.00D+00 WtEn= 0.00D+00
 Coeff-Com:  0.188D-04 0.457D-03 0.378D-02 0.538D-02-0.268D-01-0.994D-01
 Coeff-Com: -0.152D+00 0.127D+01
 Coeff:      0.188D-04 0.457D-03 0.378D-02 0.538D-02-0.268D-01-0.994D-01
 Coeff:     -0.152D+00 0.127D+01
 Gap=     0.458 Goal=   None    Shift=    0.000
 RMSDP=4.86D-07 MaxDP=1.54D-05 DE=-7.26D-08 OVMax= 5.08D-05

 Cycle   9  Pass 1  IDiag  1:
 RMSU=  1.16D-07    CP:  1.01D+00  7.00D-01  1.02D+00  9.52D-01  1.22D+00
                    CP:  1.04D+00  1.03D+00  1.53D+00
 FoFJK:  IHMeth= 1 ICntrl=     0 DoSepK=T KAlg= 1 I1Cent= 0 FoldK=F
 E= -2905.00528555636     Delta-E=        0.000000000175 Rises=F Damp=F
 DIIS: error= 5.82D-07 at cycle   9 NSaved=   9.
 NSaved= 9 IEnMin= 8 EnMin= -2905.00528555654     IErMin= 9 ErrMin= 5.82D-07
 ErrMax= 5.82D-07 EMaxC= 1.00D-01 BMatC= 6.70D-11 BMatP= 2.15D-09
 IDIUse=1 WtCom= 1.00D+00 WtEn= 0.00D+00
 Coeff-Com: -0.763D-05-0.263D-04-0.108D-03 0.178D-03 0.374D-02 0.136D-02
 Coeff-Com: -0.148D-01-0.137D+00 0.115D+01
 Coeff:     -0.763D-05-0.263D-04-0.108D-03 0.178D-03 0.374D-02 0.136D-02
 Coeff:     -0.148D-01-0.137D+00 0.115D+01
 Gap=     0.458 Goal=   None    Shift=    0.000
 RMSDP=1.18D-07 MaxDP=6.63D-06 DE= 1.75D-10 OVMax= 8.64D-06

 Cycle  10  Pass 1  IDiag  1:
 RMSU=  2.95D-08    CP:  1.01D+00  7.00D-01  1.02D+00  9.52D-01  1.22D+00
                    CP:  1.04D+00  1.02D+00  1.64D+00  1.33D+00
 FoFJK:  IHMeth= 1 ICntrl=     0 DoSepK=T KAlg= 1 I1Cent= 0 FoldK=F
 E= -2905.00528555663     Delta-E=       -0.000000000268 Rises=F Damp=F
 DIIS: error= 2.60D-07 at cycle  10 NSaved=  10.
 NSaved=10 IEnMin=10 EnMin= -2905.00528555663     IErMin=10 ErrMin= 2.60D-07
 ErrMax= 2.60D-07 EMaxC= 1.00D-01 BMatC= 8.11D-12 BMatP= 6.70D-11
 IDIUse=1 WtCom= 1.00D+00 WtEn= 0.00D+00
 Coeff-Com: -0.110D-06-0.211D-04-0.187D-03-0.356D-03 0.120D-02 0.540D-02
 Coeff-Com:  0.100D-01-0.636D-01-0.112D+00 0.116D+01
 Coeff:     -0.110D-06-0.211D-04-0.187D-03-0.356D-03 0.120D-02 0.540D-02
 Coeff:      0.100D-01-0.636D-01-0.112D+00 0.116D+01
 Gap=     0.458 Goal=   None    Shift=    0.000
 RMSDP=3.88D-08 MaxDP=1.80D-06 DE=-2.68D-10 OVMax= 4.44D-06

 Cycle  11  Pass 1  IDiag  1:
 RMSU=  9.60D-09    CP:  1.01D+00  7.00D-01  1.02D+00  9.52D-01  1.22D+00
                    CP:  1.04D+00  1.02D+00  1.66D+00  1.44D+00  1.49D+00
 FoFJK:  IHMeth= 1 ICntrl=     0 DoSepK=T KAlg= 1 I1Cent= 0 FoldK=F
 E= -2905.00528555656     Delta-E=        0.000000000075 Rises=F Damp=F
 DIIS: error= 1.24D-07 at cycle  11 NSaved=  11.
 NSaved=11 IEnMin=10 EnMin= -2905.00528555663     IErMin=11 ErrMin= 1.24D-07
 ErrMax= 1.24D-07 EMaxC= 1.00D-01 BMatC= 1.35D-12 BMatP= 8.11D-12
 IDIUse=1 WtCom= 1.00D+00 WtEn= 0.00D+00
 Coeff-Com:  0.884D-06 0.751D-05 0.550D-04 0.483D-04-0.739D-03-0.126D-02
 Coeff-Com:  0.210D-03 0.295D-01-0.112D+00-0.261D+00 0.135D+01
 Coeff:      0.884D-06 0.751D-05 0.550D-04 0.483D-04-0.739D-03-0.126D-02
 Coeff:      0.210D-03 0.295D-01-0.112D+00-0.261D+00 0.135D+01
 Gap=     0.458 Goal=   None    Shift=    0.000
 RMSDP=1.78D-08 MaxDP=4.11D-07 DE= 7.46D-11 OVMax= 2.70D-06

 Cycle  12  Pass 1  IDiag  1:
 RMSU=  3.65D-09    CP:  1.01D+00  7.00D-01  1.02D+00  9.52D-01  1.22D+00
                    CP:  1.04D+00  1.02D+00  1.66D+00  1.48D+00  1.80D+00
                    CP:  1.70D+00
 FoFJK:  IHMeth= 1 ICntrl=     0 DoSepK=T KAlg= 1 I1Cent= 0 FoldK=F
 E= -2905.00528557562     Delta-E=       -0.000000019062 Rises=F Damp=F
 DIIS: error= 3.43D-08 at cycle  12 NSaved=  12.
 NSaved=12 IEnMin=12 EnMin= -2905.00528557562     IErMin=12 ErrMin= 3.43D-08
 ErrMax= 3.43D-08 EMaxC= 1.00D-01 BMatC= 1.93D-13 BMatP= 1.35D-12
 IDIUse=1 WtCom= 1.00D+00 WtEn= 0.00D+00
 Coeff-Com: -0.444D-07 0.367D-05 0.333D-04 0.704D-04-0.223D-03-0.101D-02
 Coeff-Com: -0.179D-02 0.115D-01 0.238D-01-0.197D+00-0.304D-01 0.119D+01
 Coeff:     -0.444D-07 0.367D-05 0.333D-04 0.704D-04-0.223D-03-0.101D-02
 Coeff:     -0.179D-02 0.115D-01 0.238D-01-0.197D+00-0.304D-01 0.119D+01
 Gap=     0.458 Goal=   None    Shift=    0.000
 RMSDP=7.46D-09 MaxDP=1.66D-07 DE=-1.91D-08 OVMax= 1.10D-06

 SCF Done:  E(RLC-wPBE) =  -2905.00528558     A.U. after   12 cycles
             Convg  =    0.7459D-08             -V/T =  2.0017
 KE= 2.900027357452D+03 PE=-7.233893350617D+03 EE= 1.280471182574D+03
 Leave Link  502 at Fri May  8 00:52:44 2020, MaxMem= 1073741824 cpu:     288.2
 (Enter /home/matheus/.gaussian/g09/l601.exe)
 Copying SCF densities to generalized density rwf, IOpCl= 0 IROHF=0.

 **********************************************************************

            Population analysis using the SCF density.

 **********************************************************************

 Orbital symmetries:
       Occupied  (A) (A) (A) (A) (A) (A) (A) (A) (A) (A) (A) (A)
                 (A) (A) (A) (A) (A) (A) (A) (A) (A) (A) (A) (A)
                 (A) (A) (A)
       Virtual   (A) (A) (A) (A) (A) (A) (A) (A) (A) (A) (A) (A)
                 (A) (A) (A) (A) (A) (A) (A) (A) (A) (A) (A) (A)
                 (A) (A) (A) (A) (A) (A) (A) (A) (A) (A) (A) (A)
                 (A) (A) (A) (A) (A) (A) (A) (A) (A) (A) (A) (A)
                 (A) (A) (A) (A) (A) (A) (A) (A) (A) (A) (A) (A)
                 (A) (A) (A) (A) (A) (A) (A) (A) (A) (A) (A) (A)
                 (A) (A) (A) (A) (A) (A) (A) (A) (A) (A) (A) (A)
                 (A) (A) (A) (A) (A) (A) (A) (A) (A) (A) (A) (A)
                 (A) (A) (A) (A) (A) (A) (A) (A) (A) (A) (A) (A)
                 (A) (A) (A) (A) (A) (A) (A) (A) (A) (A) (A) (A)
                 (A) (A) (A) (A) (A) (A) (A) (A) (A) (A) (A) (A)
                 (A) (A) (A) (A) (A) (A) (A) (A) (A) (A) (A) (A)
                 (A) (A) (A) (A) (A) (A) (A) (A) (A) (A) (A) (A)
                 (A) (A) (A) (A) (A) (A) (A) (A) (A) (A) (A) (A)
                 (A) (A)
 The electronic state is 1-A.
 Alpha  occ. eigenvalues -- -511.19462 -66.74301 -60.40422 -60.40403 -60.40394
 Alpha  occ. eigenvalues --  -19.11064 -19.10701  -9.67871  -7.42168  -7.42111
 Alpha  occ. eigenvalues --   -7.42086  -3.36567  -3.36555  -3.36538  -3.36496
 Alpha  occ. eigenvalues --   -3.36494  -1.31889  -1.10261  -1.09199  -0.70087
 Alpha  occ. eigenvalues --   -0.67161  -0.58002  -0.54184  -0.53532  -0.52971
 Alpha  occ. eigenvalues --   -0.49729  -0.42458
 Alpha virt. eigenvalues --    0.03382   0.04256   0.08481   0.10220   0.11083
 Alpha virt. eigenvalues --    0.11436   0.13874   0.15077   0.16820   0.17675
 Alpha virt. eigenvalues --    0.19176   0.20750   0.20842   0.23633   0.24514
 Alpha virt. eigenvalues --    0.25515   0.27409   0.29896   0.31978   0.34826
 Alpha virt. eigenvalues --    0.34914   0.35043   0.37281   0.40103   0.41154
 Alpha virt. eigenvalues --    0.42341   0.43233   0.49482   0.54124   0.56866
 Alpha virt. eigenvalues --    0.58553   0.60921   0.65286   0.67495   0.70705
 Alpha virt. eigenvalues --    0.72962   0.73938   0.74802   0.75275   0.77904
 Alpha virt. eigenvalues --    0.78602   0.80040   0.81011   0.81940   0.84333
 Alpha virt. eigenvalues --    0.86609   0.87374   0.89673   0.91138   0.93561
 Alpha virt. eigenvalues --    0.95062   0.96444   0.97966   0.99502   1.01345
 Alpha virt. eigenvalues --    1.04614   1.05735   1.07425   1.09858   1.12317
 Alpha virt. eigenvalues --    1.13964   1.15955   1.18591   1.20446   1.23092
 Alpha virt. eigenvalues --    1.29902   1.34208   1.37687   1.41817   1.43689
 Alpha virt. eigenvalues --    1.46891   1.53711   1.55447   1.58624   1.64075
 Alpha virt. eigenvalues --    1.65419   1.79692   1.85177   1.87946   1.97222
 Alpha virt. eigenvalues --    2.02407   2.04845   2.06984   2.17311   2.18421
 Alpha virt. eigenvalues --    2.19207   2.22923   2.24374   2.25381   2.28179
 Alpha virt. eigenvalues --    2.30758   2.34164   2.35503   2.36542   2.37973
 Alpha virt. eigenvalues --    2.41320   2.43425   2.48921   2.51849   2.53896
 Alpha virt. eigenvalues --    2.53951   2.55657   2.57727   2.59632   2.60856
 Alpha virt. eigenvalues --    2.63665   2.66060   2.70103   2.70923   2.73878
 Alpha virt. eigenvalues --    2.77045   2.78775   2.83757   2.89112   2.93281
 Alpha virt. eigenvalues --    2.98966   3.10027   3.13609   3.19187   3.62125
 Alpha virt. eigenvalues --    3.73997   3.89491   4.00518   4.06611   4.10527
 Alpha virt. eigenvalues --    4.12214   4.20455   4.22544   4.27091   4.29822
 Alpha virt. eigenvalues --    4.47851   4.51076   4.57504   4.57788   4.76845
 Alpha virt. eigenvalues --    4.97725   5.03761   5.06847   5.11419   5.16267
 Alpha virt. eigenvalues --    5.37089   5.47451   5.87772   6.06709   6.11389
 Alpha virt. eigenvalues --    6.16647   6.38239   6.38459   6.45513   6.54987
 Alpha virt. eigenvalues --    6.72389   6.76450   6.79982   6.86511   6.90275
 Alpha virt. eigenvalues --    6.91066   6.95940   6.96925   7.00046   7.04432
 Alpha virt. eigenvalues --    7.08054   7.26952   7.29387   7.42787   7.71285
 Alpha virt. eigenvalues --    7.86910   8.10684   8.16629  14.02196  14.57918
          Condensed to atoms (all electrons):
              1          2          3          4          5
     1  O    8.183306  -0.184218   0.219105  -0.001249  -0.030976
     2  O   -0.184218   8.221450   0.008091   0.217909  -0.008828
     3  H    0.219105   0.008091   0.565134   0.003411   0.003540
     4  H   -0.001249   0.217909   0.003411   0.556820  -0.015013
     5  Kr  -0.030976  -0.008828   0.003540  -0.015013  36.049746
 Mulliken atomic charges:
              1
     1  O   -0.185968
     2  O   -0.254404
     3  H    0.200720
     4  H    0.238122
     5  Kr   0.001530
 Sum of Mulliken atomic charges =   0.00000
 Mulliken charges with hydrogens summed into heavy atoms:
              1
     1  O    0.014752
     2  O   -0.016282
     5  Kr   0.001530
 Sum of Mulliken charges with hydrogens summed into heavy atoms =   0.00000
          Condensed to fragments (all electrons):
     1      -0.001530
     2       0.001530
 Electronic spatial extent (au):  <R**2>=            491.0322
 Charge=              0.0000 electrons
 Dipole moment (field-independent basis, Debye):
    X=              0.3762    Y=             -0.3199    Z=              0.8104  Tot=              0.9490
 Quadrupole moment (field-independent basis, Debye-Ang):
   XX=            -27.2967   YY=            -28.1321   ZZ=            -30.0985
   XY=              3.8305   XZ=             -2.4896   YZ=             -0.8677
 Traceless Quadrupole moment (field-independent basis, Debye-Ang):
   XX=              1.2124   YY=              0.3770   ZZ=             -1.5894
   XY=              3.8305   XZ=             -2.4896   YZ=             -0.8677
 Octapole moment (field-independent basis, Debye-Ang**2):
  XXX=              4.9585  YYY=             -0.7362  ZZZ=              0.4021  XYY=              4.3122
  XXY=            -15.7265  XXZ=              7.2817  XZZ=              7.5971  YZZ=             -0.6728
  YYZ=              1.0445  XYZ=              2.6191
 Hexadecapole moment (field-independent basis, Debye-Ang**3):
 XXXX=           -358.0802 YYYY=            -63.1243 ZZZZ=            -29.1158 XXXY=             48.1114
 XXXZ=            -21.6837 YYYX=              5.7764 YYYZ=             -1.1084 ZZZX=             -1.2917
 ZZZY=             -0.5683 XXYY=            -74.9642 XXZZ=            -76.6289 YYZZ=            -16.9285
 XXYZ=             -7.7234 YYXZ=             -2.9704 ZZXY=              1.4022
 N-N= 1.483895250152D+02 E-N=-7.233893349886D+03  KE= 2.900027357452D+03
 No NMR shielding tensors so no spin-rotation constants.
 Leave Link  601 at Fri May  8 00:52:44 2020, MaxMem= 1073741824 cpu:       0.7
 (Enter /home/matheus/.gaussian/g09/l122.exe)
 Counterpoise: doing DCBS calculation for fragment   1 NewBq=T
 Leave Link  122 at Fri May  8 00:52:44 2020, MaxMem= 1073741824 cpu:       0.0
 (Enter /home/matheus/.gaussian/g09/l301.exe)
 Basis read from rwf:  (5D, 7F)
 No pseudopotential information found on rwf file.
 There are   197 symmetry adapted basis functions of A   symmetry.
 Integral buffers will be    131072 words long.
 Raffenetti 2 integral format.
 Two-electron integral symmetry is turned on.
   197 basis functions,   415 primitive gaussians,   229 cartesian basis functions
     9 alpha electrons        9 beta electrons
       nuclear repulsion energy        36.6035600706 Hartrees.
 IExCor=32609 DFT=T Ex+Corr=LC-wPBE ExCW=0 ScaHFX=  1.000000
 ScaDFX=  1.000000  0.000000  1.000000  1.000000 ScalE2=  1.000000  1.000000
 IRadAn=      5 IRanWt=     -1 IRanGd=            0 ICorTp=0
  HFx wShort=  0.000000 wLong=  0.550000 cFull=  0.000000 cShort=  0.000000 cLong=  1.000000
  DFx wShort=  0.000000 wLong=  0.550000 cFull=  0.000000 cShort=  0.000000 cLong=  1.000000
 NAtoms=    5 NActive=    5 NUniq=    5 SFac= 1.00D+00 NAtFMM=   60 NAOKFM=F Big=F
 No density basis found on file   718.
 Leave Link  301 at Fri May  8 00:52:44 2020, MaxMem= 1073741824 cpu:       0.2
 (Enter /home/matheus/.gaussian/g09/l302.exe)
 NPDir=0 NMtPBC=     1 NCelOv=     1 NCel=       1 NClECP=     1 NCelD=      1
         NCelK=      1 NCelE2=     1 NClLst=     1 CellRange=     0.0.
 One-electron integrals computed using PRISM.
 NBasis=   197 RedAO= T  NBF=   197
 NBsUse=   197 1.00D-06 NBFU=   197
 Precomputing XC quadrature grid using
 IXCGrd= 2 IRadAn=           5 IRanWt=          -1 IRanGd=           0 AccXCQ= 0.00D+00.
 NRdTot=     427 NPtTot=      123814 NUsed=      126881 NTot=      126913
 NSgBfM=   229   229   229   229   229 NAtAll=     5     5.
 Leave Link  302 at Fri May  8 00:52:44 2020, MaxMem= 1073741824 cpu:       1.0
 (Enter /home/matheus/.gaussian/g09/l303.exe)
 DipDrv:  MaxL=1.
 Leave Link  303 at Fri May  8 00:52:44 2020, MaxMem= 1073741824 cpu:       0.2
 (Enter /home/matheus/.gaussian/g09/l401.exe)
 Harris functional with IExCor=32609 diagonalized for initial guess.
 ExpMin= 2.53D-02 ExpMax= 1.17D+07 ExpMxC= 1.33D+04 IAcc=3 IRadAn=         5 AccDes= 0.00D+00
 HarFok:  IExCor=32609 AccDes= 0.00D+00 IRadAn=         5 IDoV= 1
 ScaDFX=  1.000000  1.000000  1.000000  1.000000
 FoFCou: FMM=F IPFlag=           0 FMFlag=      100000 FMFlg1=           0
         NFxFlg=           0 DoJE=T BraDBF=F KetDBF=T FulRan=T
         Omega=  0.000000  0.000000  1.000000  0.000000  0.000000 ICntrl=     500 IOpCl=  0
         NMat0=    1 NMatS0=    1 NMatT0=    0 NMatD0=    1 NMtDS0=    0 NMtDT0=    0
         I1Cent=           4 NGrid=           0.
 Petite list used in FoFCou.
 Harris En= -151.500363404474    
 Initial guess orbital symmetries:
       Occupied  (A) (A) (A) (A) (A) (A) (A) (A) (A)
       Virtual   (A) (A) (A) (A) (A) (A) (A) (A) (A) (A) (A) (A)
                 (A) (A) (A) (A) (A) (A) (A) (A) (A) (A) (A) (A)
                 (A) (A) (A) (A) (A) (A) (A) (A) (A) (A) (A) (A)
                 (A) (A) (A) (A) (A) (A) (A) (A) (A) (A) (A) (A)
                 (A) (A) (A) (A) (A) (A) (A) (A) (A) (A) (A) (A)
                 (A) (A) (A) (A) (A) (A) (A) (A) (A) (A) (A) (A)
                 (A) (A) (A) (A) (A) (A) (A) (A) (A) (A) (A) (A)
                 (A) (A) (A) (A) (A) (A) (A) (A) (A) (A) (A) (A)
                 (A) (A) (A) (A) (A) (A) (A) (A) (A) (A) (A) (A)
                 (A) (A) (A) (A) (A) (A) (A) (A) (A) (A) (A) (A)
                 (A) (A) (A) (A) (A) (A) (A) (A) (A) (A) (A) (A)
                 (A) (A) (A) (A) (A) (A) (A) (A) (A) (A) (A) (A)
                 (A) (A) (A) (A) (A) (A) (A) (A) (A) (A) (A) (A)
                 (A) (A) (A) (A) (A) (A) (A) (A) (A) (A) (A) (A)
                 (A) (A) (A) (A) (A) (A) (A) (A) (A) (A) (A) (A)
                 (A) (A) (A) (A) (A) (A) (A) (A)
 The electronic state of the initial guess is 1-A.
 Leave Link  401 at Fri May  8 00:52:44 2020, MaxMem= 1073741824 cpu:       3.9
 (Enter /home/matheus/.gaussian/g09/l502.exe)
 Closed shell SCF:
 Requested convergence on RMS density matrix=1.00D-08 within 128 cycles.
 Requested convergence on MAX density matrix=1.00D-06.
 Requested convergence on             energy=1.00D-06.
 No special actions if energy rises.
 Using DIIS extrapolation, IDIIS=  1040.
 Integral symmetry usage will be decided dynamically.
       126823 words used for storage of precomputed grid.
 IEnd=      305770 IEndB=      305770 NGot=  1073741824 MDV=  1073505365
 LenX=  1073505365 LenY=  1073452483
 Fock matrices will be formed incrementally for  20 cycles.

 Cycle   1  Pass 1  IDiag  1:
 FoFJK:  IHMeth= 1 ICntrl=     0 DoSepK=T KAlg= 1 I1Cent= 0 FoldK=F
 FoFCou: FMM=F IPFlag=           0 FMFlag=      100000 FMFlg1=           0
         NFxFlg=           0 DoJE=T BraDBF=F KetDBF=F FulRan=T
         Omega=  0.000000  0.000000  1.000000  0.000000  0.000000 ICntrl=     500 IOpCl=  0
         NMat0=    1 NMatS0=    1 NMatT0=    0 NMatD0=    1 NMtDS0=    0 NMtDT0=    0
         I1Cent=           0 NGrid=           0.
 Symmetry not used in FoFCou.
 E= -151.507137723491    
 DIIS: error= 1.20D-02 at cycle   1 NSaved=   1.
 NSaved= 1 IEnMin= 1 EnMin= -151.507137723491     IErMin= 1 ErrMin= 1.20D-02
 ErrMax= 1.20D-02 EMaxC= 1.00D-01 BMatC= 4.02D-02 BMatP= 4.02D-02
 IDIUse=3 WtCom= 8.80D-01 WtEn= 1.20D-01
 Coeff-Com:  0.100D+01
 Coeff-En:   0.100D+01
 Coeff:      0.100D+01
 Gap=     0.542 Goal=   None    Shift=    0.000
 GapD=    0.542 DampG=2.000 DampE=0.500 DampFc=1.0000 IDamp=-1.
 RMSDP=7.20D-04 MaxDP=2.43D-02              OVMax= 4.99D-02

 Cycle   2  Pass 1  IDiag  1:
 RMSU=  5.02D-04    CP:  9.88D-01
 FoFJK:  IHMeth= 1 ICntrl=     0 DoSepK=T KAlg= 1 I1Cent= 0 FoldK=F
 E= -151.523202116208     Delta-E=       -0.016064392717 Rises=F Damp=F
 DIIS: error= 6.88D-03 at cycle   2 NSaved=   2.
 NSaved= 2 IEnMin= 2 EnMin= -151.523202116208     IErMin= 2 ErrMin= 6.88D-03
 ErrMax= 6.88D-03 EMaxC= 1.00D-01 BMatC= 1.52D-02 BMatP= 4.02D-02
 IDIUse=3 WtCom= 9.31D-01 WtEn= 6.88D-02
 Coeff-Com:  0.367D+00 0.633D+00
 Coeff-En:   0.105D+00 0.895D+00
 Coeff:      0.349D+00 0.651D+00
 Gap=     0.462 Goal=   None    Shift=    0.000
 RMSDP=3.86D-04 MaxDP=2.18D-02 DE=-1.61D-02 OVMax= 2.15D-02

 Cycle   3  Pass 1  IDiag  1:
 RMSU=  2.36D-04    CP:  9.84D-01  7.34D-01
 FoFJK:  IHMeth= 1 ICntrl=     0 DoSepK=T KAlg= 1 I1Cent= 0 FoldK=F
 E= -151.531634538790     Delta-E=       -0.008432422581 Rises=F Damp=F
 DIIS: error= 1.24D-03 at cycle   3 NSaved=   3.
 NSaved= 3 IEnMin= 3 EnMin= -151.531634538790     IErMin= 3 ErrMin= 1.24D-03
 ErrMax= 1.24D-03 EMaxC= 1.00D-01 BMatC= 3.58D-04 BMatP= 1.52D-02
 IDIUse=3 WtCom= 9.88D-01 WtEn= 1.24D-02
 Coeff-Com:  0.384D-01 0.152D+00 0.810D+00
 Coeff-En:   0.000D+00 0.000D+00 0.100D+01
 Coeff:      0.379D-01 0.150D+00 0.812D+00
 Gap=     0.455 Goal=   None    Shift=    0.000
 RMSDP=5.66D-05 MaxDP=2.36D-03 DE=-8.43D-03 OVMax= 3.96D-03

 Cycle   4  Pass 1  IDiag  1:
 RMSU=  2.82D-05    CP:  9.82D-01  7.81D-01  1.03D+00
 FoFJK:  IHMeth= 1 ICntrl=     0 DoSepK=T KAlg= 1 I1Cent= 0 FoldK=F
 E= -151.531864443658     Delta-E=       -0.000229904868 Rises=F Damp=F
 DIIS: error= 2.39D-04 at cycle   4 NSaved=   4.
 NSaved= 4 IEnMin= 4 EnMin= -151.531864443658     IErMin= 4 ErrMin= 2.39D-04
 ErrMax= 2.39D-04 EMaxC= 1.00D-01 BMatC= 9.42D-06 BMatP= 3.58D-04
 IDIUse=3 WtCom= 9.98D-01 WtEn= 2.39D-03
 Coeff-Com: -0.866D-02-0.125D-01 0.893D-01 0.932D+00
 Coeff-En:   0.000D+00 0.000D+00 0.000D+00 0.100D+01
 Coeff:     -0.864D-02-0.124D-01 0.891D-01 0.932D+00
 Gap=     0.456 Goal=   None    Shift=    0.000
 RMSDP=1.49D-05 MaxDP=1.00D-03 DE=-2.30D-04 OVMax= 8.16D-04

 Cycle   5  Pass 1  IDiag  1:
 RMSU=  4.36D-06    CP:  9.82D-01  7.82D-01  1.07D+00  1.08D+00
 FoFJK:  IHMeth= 1 ICntrl=     0 DoSepK=T KAlg= 1 I1Cent= 0 FoldK=F
 E= -151.531873154181     Delta-E=       -0.000008710523 Rises=F Damp=F
 DIIS: error= 4.52D-05 at cycle   5 NSaved=   5.
 NSaved= 5 IEnMin= 5 EnMin= -151.531873154181     IErMin= 5 ErrMin= 4.52D-05
 ErrMax= 4.52D-05 EMaxC= 1.00D-01 BMatC= 2.38D-07 BMatP= 9.42D-06
 IDIUse=1 WtCom= 1.00D+00 WtEn= 0.00D+00
 Coeff-Com: -0.458D-03-0.253D-02-0.380D-01-0.123D+00 0.116D+01
 Coeff:     -0.458D-03-0.253D-02-0.380D-01-0.123D+00 0.116D+01
 Gap=     0.456 Goal=   None    Shift=    0.000
 RMSDP=3.89D-06 MaxDP=1.49D-04 DE=-8.71D-06 OVMax= 4.00D-04

 Cycle   6  Pass 1  IDiag  1:
 RMSU=  1.23D-06    CP:  9.82D-01  7.83D-01  1.08D+00  1.14D+00  1.36D+00
 FoFJK:  IHMeth= 1 ICntrl=     0 DoSepK=T KAlg= 1 I1Cent= 0 FoldK=F
 E= -151.531873795528     Delta-E=       -0.000000641347 Rises=F Damp=F
 DIIS: error= 8.85D-06 at cycle   6 NSaved=   6.
 NSaved= 6 IEnMin= 6 EnMin= -151.531873795528     IErMin= 6 ErrMin= 8.85D-06
 ErrMax= 8.85D-06 EMaxC= 1.00D-01 BMatC= 1.23D-08 BMatP= 2.38D-07
 IDIUse=1 WtCom= 1.00D+00 WtEn= 0.00D+00
 Coeff-Com:  0.323D-03 0.943D-03 0.358D-02-0.948D-02-0.191D+00 0.120D+01
 Coeff:      0.323D-03 0.943D-03 0.358D-02-0.948D-02-0.191D+00 0.120D+01
 Gap=     0.456 Goal=   None    Shift=    0.000
 RMSDP=9.34D-07 MaxDP=2.23D-05 DE=-6.41D-07 OVMax= 1.21D-04

 Cycle   7  Pass 1  IDiag  1:
 RMSU=  3.00D-07    CP:  9.82D-01  7.83D-01  1.08D+00  1.15D+00  1.42D+00
                    CP:  1.31D+00
 FoFJK:  IHMeth= 1 ICntrl=     0 DoSepK=T KAlg= 1 I1Cent= 0 FoldK=F
 E= -151.531873832849     Delta-E=       -0.000000037321 Rises=F Damp=F
 DIIS: error= 2.15D-06 at cycle   7 NSaved=   7.
 NSaved= 7 IEnMin= 7 EnMin= -151.531873832849     IErMin= 7 ErrMin= 2.15D-06
 ErrMax= 2.15D-06 EMaxC= 1.00D-01 BMatC= 6.44D-10 BMatP= 1.23D-08
 IDIUse=1 WtCom= 1.00D+00 WtEn= 0.00D+00
 Coeff-Com: -0.953D-05-0.130D-04 0.110D-02 0.612D-02-0.312D-01-0.151D+00
 Coeff-Com:  0.118D+01
 Coeff:     -0.953D-05-0.130D-04 0.110D-02 0.612D-02-0.312D-01-0.151D+00
 Coeff:      0.118D+01
 Gap=     0.456 Goal=   None    Shift=    0.000
 RMSDP=2.98D-07 MaxDP=1.24D-05 DE=-3.73D-08 OVMax= 3.43D-05

 Cycle   8  Pass 1  IDiag  1:
 RMSU=  6.68D-08    CP:  9.82D-01  7.84D-01  1.08D+00  1.15D+00  1.43D+00
                    CP:  1.38D+00  1.36D+00
 FoFJK:  IHMeth= 1 ICntrl=     0 DoSepK=T KAlg= 1 I1Cent= 0 FoldK=F
 E= -151.531873835081     Delta-E=       -0.000000002232 Rises=F Damp=F
 DIIS: error= 6.08D-07 at cycle   8 NSaved=   8.
 NSaved= 8 IEnMin= 8 EnMin= -151.531873835081     IErMin= 8 ErrMin= 6.08D-07
 ErrMax= 6.08D-07 EMaxC= 1.00D-01 BMatC= 1.37D-10 BMatP= 6.44D-10
 IDIUse=1 WtCom= 1.00D+00 WtEn= 0.00D+00
 Coeff-Com: -0.163D-04-0.484D-04 0.165D-03 0.217D-02 0.123D-03-0.106D+00
 Coeff-Com:  0.382D+00 0.721D+00
 Coeff:     -0.163D-04-0.484D-04 0.165D-03 0.217D-02 0.123D-03-0.106D+00
 Coeff:      0.382D+00 0.721D+00
 Gap=     0.456 Goal=   None    Shift=    0.000
 RMSDP=6.73D-08 MaxDP=4.15D-06 DE=-2.23D-09 OVMax= 4.56D-06

 Cycle   9  Pass 1  IDiag  1:
 RMSU=  2.74D-08    CP:  9.82D-01  7.84D-01  1.08D+00  1.15D+00  1.43D+00
                    CP:  1.39D+00  1.43D+00  1.10D+00
 FoFJK:  IHMeth= 1 ICntrl=     0 DoSepK=T KAlg= 1 I1Cent= 0 FoldK=F
 E= -151.531873835224     Delta-E=       -0.000000000143 Rises=F Damp=F
 DIIS: error= 3.25D-07 at cycle   9 NSaved=   9.
 NSaved= 9 IEnMin= 9 EnMin= -151.531873835224     IErMin= 9 ErrMin= 3.25D-07
 ErrMax= 3.25D-07 EMaxC= 1.00D-01 BMatC= 3.51D-11 BMatP= 1.37D-10
 IDIUse=1 WtCom= 1.00D+00 WtEn= 0.00D+00
 Coeff-Com: -0.591D-05-0.227D-04-0.229D-03-0.651D-03 0.963D-02-0.158D-01
 Coeff-Com: -0.130D+00 0.318D+00 0.820D+00
 Coeff:     -0.591D-05-0.227D-04-0.229D-03-0.651D-03 0.963D-02-0.158D-01
 Coeff:     -0.130D+00 0.318D+00 0.820D+00
 Gap=     0.456 Goal=   None    Shift=    0.000
 RMSDP=4.46D-08 MaxDP=2.48D-06 DE=-1.43D-10 OVMax= 3.91D-06

 Cycle  10  Pass 1  IDiag  1:
 RMSU=  1.06D-08    CP:  9.82D-01  7.84D-01  1.08D+00  1.15D+00  1.43D+00
                    CP:  1.39D+00  1.47D+00  1.34D+00  1.07D+00
 FoFJK:  IHMeth= 1 ICntrl=     0 DoSepK=T KAlg= 1 I1Cent= 0 FoldK=F
 E= -151.531873835274     Delta-E=       -0.000000000050 Rises=F Damp=F
 DIIS: error= 1.19D-07 at cycle  10 NSaved=  10.
 NSaved=10 IEnMin=10 EnMin= -151.531873835274     IErMin=10 ErrMin= 1.19D-07
 ErrMax= 1.19D-07 EMaxC= 1.00D-01 BMatC= 1.52D-12 BMatP= 3.51D-11
 IDIUse=1 WtCom= 1.00D+00 WtEn= 0.00D+00
 Coeff-Com:  0.283D-05 0.122D-04 0.830D-04 0.784D-04-0.350D-02 0.120D-01
 Coeff-Com:  0.293D-01-0.182D+00-0.312D+00 0.146D+01
 Coeff:      0.283D-05 0.122D-04 0.830D-04 0.784D-04-0.350D-02 0.120D-01
 Coeff:      0.293D-01-0.182D+00-0.312D+00 0.146D+01
 Gap=     0.456 Goal=   None    Shift=    0.000
 RMSDP=1.86D-08 MaxDP=3.97D-07 DE=-5.05D-11 OVMax= 2.90D-06

 Cycle  11  Pass 1  IDiag  1:
 RMSU=  4.38D-09    CP:  9.82D-01  7.84D-01  1.08D+00  1.15D+00  1.43D+00
                    CP:  1.39D+00  1.47D+00  1.43D+00  1.29D+00  1.81D+00
 FoFJK:  IHMeth= 1 ICntrl=     0 DoSepK=T KAlg= 1 I1Cent= 0 FoldK=F
 E= -151.531873835283     Delta-E=       -0.000000000008 Rises=F Damp=F
 DIIS: error= 4.10D-08 at cycle  11 NSaved=  11.
 NSaved=11 IEnMin=11 EnMin= -151.531873835283     IErMin=11 ErrMin= 4.10D-08
 ErrMax= 4.10D-08 EMaxC= 1.00D-01 BMatC= 2.51D-13 BMatP= 1.52D-12
 IDIUse=1 WtCom= 1.00D+00 WtEn= 0.00D+00
 Coeff-Com:  0.192D-06 0.947D-06 0.223D-04 0.122D-03-0.936D-03-0.661D-03
 Coeff-Com:  0.204D-01-0.183D-01-0.815D-01-0.307D+00 0.139D+01
 Coeff:      0.192D-06 0.947D-06 0.223D-04 0.122D-03-0.936D-03-0.661D-03
 Coeff:      0.204D-01-0.183D-01-0.815D-01-0.307D+00 0.139D+01
 Gap=     0.456 Goal=   None    Shift=    0.000
 RMSDP=9.00D-09 MaxDP=1.99D-07 DE=-8.41D-12 OVMax= 1.40D-06

 SCF Done:  E(RLC-wPBE) =  -151.531873835     A.U. after   11 cycles
             Convg  =    0.9004D-08             -V/T =  2.0071
 KE= 1.504636950148D+02 PE=-4.315417718046D+02 EE= 9.294264288383D+01
 Leave Link  502 at Fri May  8 00:53:16 2020, MaxMem= 1073741824 cpu:     250.8
 (Enter /home/matheus/.gaussian/g09/l601.exe)
 Copying SCF densities to generalized density rwf, IOpCl= 0 IROHF=0.

 **********************************************************************

            Population analysis using the SCF density.

 **********************************************************************

 Orbital symmetries:
       Occupied  (A) (A) (A) (A) (A) (A) (A) (A) (A)
       Virtual   (A) (A) (A) (A) (A) (A) (A) (A) (A) (A) (A) (A)
                 (A) (A) (A) (A) (A) (A) (A) (A) (A) (A) (A) (A)
                 (A) (A) (A) (A) (A) (A) (A) (A) (A) (A) (A) (A)
                 (A) (A) (A) (A) (A) (A) (A) (A) (A) (A) (A) (A)
                 (A) (A) (A) (A) (A) (A) (A) (A) (A) (A) (A) (A)
                 (A) (A) (A) (A) (A) (A) (A) (A) (A) (A) (A) (A)
                 (A) (A) (A) (A) (A) (A) (A) (A) (A) (A) (A) (A)
                 (A) (A) (A) (A) (A) (A) (A) (A) (A) (A) (A) (A)
                 (A) (A) (A) (A) (A) (A) (A) (A) (A) (A) (A) (A)
                 (A) (A) (A) (A) (A) (A) (A) (A) (A) (A) (A) (A)
                 (A) (A) (A) (A) (A) (A) (A) (A) (A) (A) (A) (A)
                 (A) (A) (A) (A) (A) (A) (A) (A) (A) (A) (A) (A)
                 (A) (A) (A) (A) (A) (A) (A) (A) (A) (A) (A) (A)
                 (A) (A) (A) (A) (A) (A) (A) (A) (A) (A) (A) (A)
                 (A) (A) (A) (A) (A) (A) (A) (A) (A) (A) (A) (A)
                 (A) (A) (A) (A) (A) (A) (A) (A)
 The electronic state is 1-A.
 Alpha  occ. eigenvalues --  -19.11225 -19.11219  -1.32083  -1.09739  -0.70203
 Alpha  occ. eigenvalues --   -0.66691  -0.58053  -0.50280  -0.42705
 Alpha virt. eigenvalues --    0.02933   0.03703   0.07272   0.08902   0.10259
 Alpha virt. eigenvalues --    0.11058   0.11577   0.14371   0.16885   0.17156
 Alpha virt. eigenvalues --    0.19506   0.19720   0.21502   0.23660   0.26198
 Alpha virt. eigenvalues --    0.27792   0.30577   0.31551   0.32423   0.33738
 Alpha virt. eigenvalues --    0.36087   0.38246   0.38995   0.40336   0.41738
 Alpha virt. eigenvalues --    0.42868   0.44153   0.47828   0.49268   0.50101
 Alpha virt. eigenvalues --    0.55708   0.58403   0.61077   0.65925   0.69885
 Alpha virt. eigenvalues --    0.71849   0.75944   0.76398   0.76885   0.77951
 Alpha virt. eigenvalues --    0.80666   0.83987   0.87915   0.90324   0.92291
 Alpha virt. eigenvalues --    0.93040   0.95259   0.97203   0.99327   1.00916
 Alpha virt. eigenvalues --    1.01420   1.05880   1.07228   1.10327   1.13588
 Alpha virt. eigenvalues --    1.13775   1.16681   1.18156   1.23202   1.24655
 Alpha virt. eigenvalues --    1.26824   1.31394   1.32276   1.33522   1.34233
 Alpha virt. eigenvalues --    1.34725   1.35566   1.37023   1.38628   1.43177
 Alpha virt. eigenvalues --    1.48826   1.51415   1.55308   1.55815   1.56913
 Alpha virt. eigenvalues --    1.59463   1.65864   1.69727   1.72697   1.82186
 Alpha virt. eigenvalues --    1.85479   1.85983   1.90894   1.99806   2.05042
 Alpha virt. eigenvalues --    2.07649   2.10557   2.18972   2.20711   2.26193
 Alpha virt. eigenvalues --    2.29452   2.31444   2.35818   2.38629   2.47468
 Alpha virt. eigenvalues --    2.52324   2.57176   2.58752   2.63345   2.69623
 Alpha virt. eigenvalues --    2.74101   2.76376   2.83404   2.89010   2.96411
 Alpha virt. eigenvalues --    3.09188   3.12967   3.14712   3.26148   3.30738
 Alpha virt. eigenvalues --    3.41977   3.56027   3.60916   3.72704   3.78926
 Alpha virt. eigenvalues --    3.79325   3.82304   3.82721   3.83298   3.84541
 Alpha virt. eigenvalues --    3.89339   3.90756   3.92667   3.95293   3.96761
 Alpha virt. eigenvalues --    4.01878   4.04580   4.10264   4.13282   4.14428
 Alpha virt. eigenvalues --    4.16421   4.22778   4.27224   4.33393   4.38536
 Alpha virt. eigenvalues --    4.48782   4.54752   4.59273   4.77021   4.98046
 Alpha virt. eigenvalues --    5.04039   5.06821   5.11619   5.16510   5.37428
 Alpha virt. eigenvalues --    5.47307   5.87594   6.06569   6.11249   6.16347
 Alpha virt. eigenvalues --    6.38166   6.38383   6.45373   6.54843   6.72232
 Alpha virt. eigenvalues --    6.76226   6.79770   6.86336   6.90093   6.90812
 Alpha virt. eigenvalues --    6.95527   6.96742   6.99956   7.04143   7.07916
 Alpha virt. eigenvalues --    7.26748   7.29247   7.42592   7.71096   7.86648
 Alpha virt. eigenvalues --    8.10521   8.16142  10.88480  14.02197  14.56316
 Alpha virt. eigenvalues --   14.83557  14.88688  15.11038  29.03262  29.03781
 Alpha virt. eigenvalues --   29.08183  29.13780  29.23345  49.10191 148.31620
 Alpha virt. eigenvalues --  148.39060 148.71890 752.48213
          Condensed to atoms (all electrons):
              1          2          3          4          5
     1  O    8.196537  -0.180952   0.203637  -0.006540  -0.001674
     2  O   -0.180952   8.185834   0.008488   0.217921   0.000270
     3  H    0.203637   0.008488   0.572065   0.005204   0.000469
     4  H   -0.006540   0.217921   0.005204   0.558812  -0.003992
     5  Kr  -0.001674   0.000270   0.000469  -0.003992   0.001089
 Mulliken atomic charges:
              1
     1  O   -0.211007
     2  O   -0.231562
     3  H    0.210137
     4  H    0.228595
     5  Kr   0.003837
 Sum of Mulliken atomic charges =   0.00000
 Mulliken charges with hydrogens summed into heavy atoms:
              1
     1  O   -0.000870
     2  O   -0.002967
     5  Kr   0.003837
 Sum of Mulliken charges with hydrogens summed into heavy atoms =   0.00000
          Condensed to fragments (all electrons):
     1      -0.003837
     2       0.003837
 Electronic spatial extent (au):  <R**2>=            323.9975
 Charge=              0.0000 electrons
 Dipole moment (field-independent basis, Debye):
    X=              0.2128    Y=             -0.0398    Z=              0.8325  Tot=              0.8602
 Quadrupole moment (field-independent basis, Debye-Ang):
   XX=             -9.7405   YY=            -10.6186   ZZ=            -12.6414
   XY=              4.0080   XZ=             -2.4715   YZ=             -0.8659
 Traceless Quadrupole moment (field-independent basis, Debye-Ang):
   XX=              1.2597   YY=              0.3816   ZZ=             -1.6413
   XY=              4.0080   XZ=             -2.4715   YZ=             -0.8659
 Octapole moment (field-independent basis, Debye-Ang**2):
  XXX=             56.4021  YYY=             -1.2987  ZZZ=              0.5750  XYY=             21.6525
  XXY=            -15.6907  XXZ=              7.3573  XZZ=             24.9838  YZZ=             -0.8587
  YYZ=              1.1006  XYZ=              2.6188
 Hexadecapole moment (field-independent basis, Debye-Ang**3):
 XXXX=           -234.3609 YYYY=            -45.2664 ZZZZ=            -11.3714 XXXY=             47.4466
 XXXZ=            -21.5172 YYYX=              5.2045 YYYZ=             -1.1070 ZZZX=             -1.1225
 ZZZY=             -0.5674 XXYY=            -51.4278 XXZZ=            -53.2418 YYZZ=            -10.9915
 XXYZ=             -7.7288 YYXZ=             -2.9107 ZZXY=              1.1733
 N-N= 3.660356007063D+01 E-N=-4.315417715363D+02  KE= 1.504636950148D+02
 No NMR shielding tensors so no spin-rotation constants.
 Leave Link  601 at Fri May  8 00:53:16 2020, MaxMem= 1073741824 cpu:       0.7
 (Enter /home/matheus/.gaussian/g09/l122.exe)
 Counterpoise: doing DCBS calculation for fragment   2 NewBq=T
 Leave Link  122 at Fri May  8 00:53:16 2020, MaxMem= 1073741824 cpu:       0.0
 (Enter /home/matheus/.gaussian/g09/l301.exe)
 Basis read from rwf:  (5D, 7F)
 No pseudopotential information found on rwf file.
 There are   197 symmetry adapted basis functions of A   symmetry.
 Integral buffers will be    131072 words long.
 Raffenetti 2 integral format.
 Two-electron integral symmetry is turned on.
   197 basis functions,   415 primitive gaussians,   229 cartesian basis functions
    18 alpha electrons       18 beta electrons
       nuclear repulsion energy         0.0000000000 Hartrees.
 IExCor=32609 DFT=T Ex+Corr=LC-wPBE ExCW=0 ScaHFX=  1.000000
 ScaDFX=  1.000000  0.000000  1.000000  1.000000 ScalE2=  1.000000  1.000000
 IRadAn=      5 IRanWt=     -1 IRanGd=            0 ICorTp=0
  HFx wShort=  0.000000 wLong=  0.550000 cFull=  0.000000 cShort=  0.000000 cLong=  1.000000
  DFx wShort=  0.000000 wLong=  0.550000 cFull=  0.000000 cShort=  0.000000 cLong=  1.000000
 NAtoms=    5 NActive=    5 NUniq=    5 SFac= 1.00D+00 NAtFMM=   60 NAOKFM=F Big=F
 No density basis found on file   718.
 Leave Link  301 at Fri May  8 00:53:16 2020, MaxMem= 1073741824 cpu:       0.2
 (Enter /home/matheus/.gaussian/g09/l302.exe)
 NPDir=0 NMtPBC=     1 NCelOv=     1 NCel=       1 NClECP=     1 NCelD=      1
         NCelK=      1 NCelE2=     1 NClLst=     1 CellRange=     0.0.
 One-electron integrals computed using PRISM.
 NBasis=   197 RedAO= T  NBF=   197
 NBsUse=   197 1.00D-06 NBFU=   197
 Precomputing XC quadrature grid using
 IXCGrd= 2 IRadAn=           5 IRanWt=          -1 IRanGd=           0 AccXCQ= 0.00D+00.
 NRdTot=     427 NPtTot=      123814 NUsed=      126881 NTot=      126913
 NSgBfM=   229   229   229   229   229 NAtAll=     5     5.
 Leave Link  302 at Fri May  8 00:53:16 2020, MaxMem= 1073741824 cpu:       0.9
 (Enter /home/matheus/.gaussian/g09/l303.exe)
 DipDrv:  MaxL=1.
 Leave Link  303 at Fri May  8 00:53:16 2020, MaxMem= 1073741824 cpu:       0.2
 (Enter /home/matheus/.gaussian/g09/l401.exe)
 Harris functional with IExCor=32609 diagonalized for initial guess.
 ExpMin= 2.53D-02 ExpMax= 1.17D+07 ExpMxC= 1.33D+04 IAcc=3 IRadAn=         5 AccDes= 0.00D+00
 HarFok:  IExCor=32609 AccDes= 0.00D+00 IRadAn=         5 IDoV= 1
 ScaDFX=  1.000000  1.000000  1.000000  1.000000
 FoFCou: FMM=F IPFlag=           0 FMFlag=      100000 FMFlg1=           0
         NFxFlg=           0 DoJE=T BraDBF=F KetDBF=T FulRan=T
         Omega=  0.000000  0.000000  1.000000  0.000000  0.000000 ICntrl=     500 IOpCl=  0
         NMat0=    1 NMatS0=    1 NMatT0=    0 NMatD0=    1 NMtDS0=    0 NMtDT0=    0
         I1Cent=           4 NGrid=           0.
 Petite list used in FoFCou.
 Harris En= -2753.24648795030    
 Initial guess orbital symmetries:
       Occupied  (A) (A) (A) (A) (A) (A) (A) (A) (A) (A) (A) (A)
                 (A) (A) (A) (A) (A) (A)
       Virtual   (A) (A) (A) (A) (A) (A) (A) (A) (A) (A) (A) (A)
                 (A) (A) (A) (A) (A) (A) (A) (A) (A) (A) (A) (A)
                 (A) (A) (A) (A) (A) (A) (A) (A) (A) (A) (A) (A)
                 (A) (A) (A) (A) (A) (A) (A) (A) (A) (A) (A) (A)
                 (A) (A) (A) (A) (A) (A) (A) (A) (A) (A) (A) (A)
                 (A) (A) (A) (A) (A) (A) (A) (A) (A) (A) (A) (A)
                 (A) (A) (A) (A) (A) (A) (A) (A) (A) (A) (A) (A)
                 (A) (A) (A) (A) (A) (A) (A) (A) (A) (A) (A) (A)
                 (A) (A) (A) (A) (A) (A) (A) (A) (A) (A) (A) (A)
                 (A) (A) (A) (A) (A) (A) (A) (A) (A) (A) (A) (A)
                 (A) (A) (A) (A) (A) (A) (A) (A) (A) (A) (A) (A)
                 (A) (A) (A) (A) (A) (A) (A) (A) (A) (A) (A) (A)
                 (A) (A) (A) (A) (A) (A) (A) (A) (A) (A) (A) (A)
                 (A) (A) (A) (A) (A) (A) (A) (A) (A) (A) (A) (A)
                 (A) (A) (A) (A) (A) (A) (A) (A) (A) (A) (A)
 The electronic state of the initial guess is 1-A.
 Leave Link  401 at Fri May  8 00:53:17 2020, MaxMem= 1073741824 cpu:       3.7
 (Enter /home/matheus/.gaussian/g09/l502.exe)
 Closed shell SCF:
 Requested convergence on RMS density matrix=1.00D-08 within 128 cycles.
 Requested convergence on MAX density matrix=1.00D-06.
 Requested convergence on             energy=1.00D-06.
 No special actions if energy rises.
 Using DIIS extrapolation, IDIIS=  1040.
 Integral symmetry usage will be decided dynamically.
       126823 words used for storage of precomputed grid.
 IEnd=      305770 IEndB=      305770 NGot=  1073741824 MDV=  1073505365
 LenX=  1073505365 LenY=  1073452483
 Fock matrices will be formed incrementally for  20 cycles.

 Cycle   1  Pass 1  IDiag  1:
 FoFJK:  IHMeth= 1 ICntrl=     0 DoSepK=T KAlg= 1 I1Cent= 0 FoldK=F
 FoFCou: FMM=F IPFlag=           0 FMFlag=      100000 FMFlg1=           0
         NFxFlg=           0 DoJE=T BraDBF=F KetDBF=F FulRan=T
         Omega=  0.000000  0.000000  1.000000  0.000000  0.000000 ICntrl=     500 IOpCl=  0
         NMat0=    1 NMatS0=    1 NMatT0=    0 NMatD0=    1 NMtDS0=    0 NMtDT0=    0
         I1Cent=           0 NGrid=           0.
 Symmetry not used in FoFCou.
 E= -2753.43085544169    
 DIIS: error= 2.30D-02 at cycle   1 NSaved=   1.
 NSaved= 1 IEnMin= 1 EnMin= -2753.43085544169     IErMin= 1 ErrMin= 2.30D-02
 ErrMax= 2.30D-02 EMaxC= 1.00D-01 BMatC= 2.24D-01 BMatP= 2.24D-01
 IDIUse=3 WtCom= 7.70D-01 WtEn= 2.30D-01
 Coeff-Com:  0.100D+01
 Coeff-En:   0.100D+01
 Coeff:      0.100D+01
 Gap=     0.637 Goal=   None    Shift=    0.000
 GapD=    0.637 DampG=2.000 DampE=0.500 DampFc=1.0000 IDamp=-1.
 RMSDP=2.07D-03 MaxDP=1.42D-01              OVMax= 5.14D-02

 Cycle   2  Pass 1  IDiag  1:
 RMSU=  1.42D-03    CP:  1.02D+00
 FoFJK:  IHMeth= 1 ICntrl=     0 DoSepK=T KAlg= 1 I1Cent= 0 FoldK=F
 E= -2753.46431545479     Delta-E=       -0.033460013098 Rises=F Damp=F
 DIIS: error= 8.96D-03 at cycle   2 NSaved=   2.
 NSaved= 2 IEnMin= 2 EnMin= -2753.46431545479     IErMin= 2 ErrMin= 8.96D-03
 ErrMax= 8.96D-03 EMaxC= 1.00D-01 BMatC= 4.97D-02 BMatP= 2.24D-01
 IDIUse=3 WtCom= 9.10D-01 WtEn= 8.96D-02
 Coeff-Com:  0.315D+00 0.685D+00
 Coeff-En:   0.626D-01 0.937D+00
 Coeff:      0.293D+00 0.707D+00
 Gap=     0.550 Goal=   None    Shift=    0.000
 RMSDP=7.58D-04 MaxDP=4.95D-02 DE=-3.35D-02 OVMax= 1.83D-02

 Cycle   3  Pass 1  IDiag  1:
 RMSU=  1.50D-04    CP:  1.01D+00  6.49D-01
 FoFJK:  IHMeth= 1 ICntrl=     0 DoSepK=T KAlg= 1 I1Cent= 0 FoldK=F
 E= -2753.47776554570     Delta-E=       -0.013450090913 Rises=F Damp=F
 DIIS: error= 9.54D-04 at cycle   3 NSaved=   3.
 NSaved= 3 IEnMin= 3 EnMin= -2753.47776554570     IErMin= 3 ErrMin= 9.54D-04
 ErrMax= 9.54D-04 EMaxC= 1.00D-01 BMatC= 4.53D-04 BMatP= 4.97D-02
 IDIUse=3 WtCom= 9.90D-01 WtEn= 9.54D-03
 Coeff-Com: -0.468D-02 0.781D-01 0.927D+00
 Coeff-En:   0.000D+00 0.000D+00 0.100D+01
 Coeff:     -0.463D-02 0.774D-01 0.927D+00
 Gap=     0.556 Goal=   None    Shift=    0.000
 RMSDP=6.48D-05 MaxDP=3.87D-03 DE=-1.35D-02 OVMax= 2.28D-03

 Cycle   4  Pass 1  IDiag  1:
 RMSU=  1.35D-05    CP:  1.01D+00  6.79D-01  1.01D+00
 FoFJK:  IHMeth= 1 ICntrl=     0 DoSepK=T KAlg= 1 I1Cent= 0 FoldK=F
 E= -2753.47789846092     Delta-E=       -0.000132915220 Rises=F Damp=F
 DIIS: error= 4.01D-05 at cycle   4 NSaved=   4.
 NSaved= 4 IEnMin= 4 EnMin= -2753.47789846092     IErMin= 4 ErrMin= 4.01D-05
 ErrMax= 4.01D-05 EMaxC= 1.00D-01 BMatC= 3.97D-07 BMatP= 4.53D-04
 IDIUse=1 WtCom= 1.00D+00 WtEn= 0.00D+00
 Coeff-Com: -0.554D-03-0.182D-01-0.165D+00 0.118D+01
 Coeff:     -0.554D-03-0.182D-01-0.165D+00 0.118D+01
 Gap=     0.556 Goal=   None    Shift=    0.000
 RMSDP=5.73D-06 MaxDP=3.19D-04 DE=-1.33D-04 OVMax= 4.11D-04

 Cycle   5  Pass 1  IDiag  1:
 RMSU=  1.81D-06    CP:  1.01D+00  6.79D-01  1.02D+00  1.19D+00
 FoFJK:  IHMeth= 1 ICntrl=     0 DoSepK=T KAlg= 1 I1Cent= 0 FoldK=F
 E= -2753.47789897246     Delta-E=       -0.000000511537 Rises=F Damp=F
 DIIS: error= 2.36D-06 at cycle   5 NSaved=   5.
 NSaved= 5 IEnMin= 5 EnMin= -2753.47789897246     IErMin= 5 ErrMin= 2.36D-06
 ErrMax= 2.36D-06 EMaxC= 1.00D-01 BMatC= 2.19D-09 BMatP= 3.97D-07
 IDIUse=1 WtCom= 1.00D+00 WtEn= 0.00D+00
 Coeff-Com:  0.966D-04 0.192D-03-0.165D-02-0.160D-01 0.102D+01
 Coeff:      0.966D-04 0.192D-03-0.165D-02-0.160D-01 0.102D+01
 Gap=     0.556 Goal=   None    Shift=    0.000
 RMSDP=3.35D-07 MaxDP=2.18D-05 DE=-5.12D-07 OVMax= 1.48D-05

 Cycle   6  Pass 1  IDiag  1:
 RMSU=  1.63D-07    CP:  1.01D+00  6.79D-01  1.02D+00  1.20D+00  1.03D+00
 FoFJK:  IHMeth= 1 ICntrl=     0 DoSepK=T KAlg= 1 I1Cent= 0 FoldK=F
 E= -2753.47789897438     Delta-E=       -0.000000001920 Rises=F Damp=F
 DIIS: error= 3.53D-07 at cycle   6 NSaved=   6.
 NSaved= 6 IEnMin= 6 EnMin= -2753.47789897438     IErMin= 6 ErrMin= 3.53D-07
 ErrMax= 3.53D-07 EMaxC= 1.00D-01 BMatC= 7.61D-11 BMatP= 2.19D-09
 IDIUse=1 WtCom= 1.00D+00 WtEn= 0.00D+00
 Coeff-Com:  0.341D-05 0.172D-03 0.182D-02-0.167D-01 0.326D-01 0.982D+00
 Coeff:      0.341D-05 0.172D-03 0.182D-02-0.167D-01 0.326D-01 0.982D+00
 Gap=     0.556 Goal=   None    Shift=    0.000
 RMSDP=5.04D-08 MaxDP=2.54D-06 DE=-1.92D-09 OVMax= 3.11D-06

 Cycle   7  Pass 1  IDiag  1:
 RMSU=  1.07D-08    CP:  1.01D+00  6.79D-01  1.02D+00  1.20D+00  1.05D+00
                    CP:  1.10D+00
 FoFJK:  IHMeth= 1 ICntrl=     0 DoSepK=T KAlg= 1 I1Cent= 0 FoldK=F
 E= -2753.47789897441     Delta-E=       -0.000000000035 Rises=F Damp=F
 DIIS: error= 3.66D-08 at cycle   7 NSaved=   7.
 NSaved= 7 IEnMin= 7 EnMin= -2753.47789897441     IErMin= 7 ErrMin= 3.66D-08
 ErrMax= 3.66D-08 EMaxC= 1.00D-01 BMatC= 4.26D-13 BMatP= 7.61D-11
 IDIUse=1 WtCom= 1.00D+00 WtEn= 0.00D+00
 Coeff-Com:  0.225D-06 0.306D-04 0.335D-03-0.293D-02 0.275D-02 0.158D+00
 Coeff-Com:  0.842D+00
 Coeff:      0.225D-06 0.306D-04 0.335D-03-0.293D-02 0.275D-02 0.158D+00
 Coeff:      0.842D+00
 Gap=     0.556 Goal=   None    Shift=    0.000
 RMSDP=5.77D-09 MaxDP=2.25D-07 DE=-3.46D-11 OVMax= 2.41D-07

 SCF Done:  E(RLC-wPBE) =  -2753.47789897     A.U. after    7 cycles
             Convg  =    0.5768D-08             -V/T =  2.0014
 KE= 2.749515557152D+03 PE=-6.579049748654D+03 EE= 1.076056292527D+03
 Leave Link  502 at Fri May  8 00:53:38 2020, MaxMem= 1073741824 cpu:     167.6
 (Enter /home/matheus/.gaussian/g09/l601.exe)
 Copying SCF densities to generalized density rwf, IOpCl= 0 IROHF=0.

 **********************************************************************

            Population analysis using the SCF density.

 **********************************************************************

 Orbital symmetries:
       Occupied  (A) (A) (A) (A) (A) (A) (A) (A) (A) (A) (A) (A)
                 (A) (A) (A) (A) (A) (A)
       Virtual   (A) (A) (A) (A) (A) (A) (A) (A) (A) (A) (A) (A)
                 (A) (A) (A) (A) (A) (A) (A) (A) (A) (A) (A) (A)
                 (A) (A) (A) (A) (A) (A) (A) (A) (A) (A) (A) (A)
                 (A) (A) (A) (A) (A) (A) (A) (A) (A) (A) (A) (A)
                 (A) (A) (A) (A) (A) (A) (A) (A) (A) (A) (A) (A)
                 (A) (A) (A) (A) (A) (A) (A) (A) (A) (A) (A) (A)
                 (A) (A) (A) (A) (A) (A) (A) (A) (A) (A) (A) (A)
                 (A) (A) (A) (A) (A) (A) (A) (A) (A) (A) (A) (A)
                 (A) (A) (A) (A) (A) (A) (A) (A) (A) (A) (A) (A)
                 (A) (A) (A) (A) (A) (A) (A) (A) (A) (A) (A) (A)
                 (A) (A) (A) (A) (A) (A) (A) (A) (A) (A) (A) (A)
                 (A) (A) (A) (A) (A) (A) (A) (A) (A) (A) (A) (A)
                 (A) (A) (A) (A) (A) (A) (A) (A) (A) (A) (A) (A)
                 (A) (A) (A) (A) (A) (A) (A) (A) (A) (A) (A) (A)
                 (A) (A) (A) (A) (A) (A) (A) (A) (A) (A) (A)
 The electronic state is 1-A.
 Alpha  occ. eigenvalues -- -511.18549 -66.73374 -60.39483 -60.39481 -60.39480
 Alpha  occ. eigenvalues --   -9.66931  -7.41183  -7.41181  -7.41181  -3.35590
 Alpha  occ. eigenvalues --   -3.35589  -3.35589  -3.35588  -3.35588  -1.08852
 Alpha  occ. eigenvalues --   -0.52698  -0.52694  -0.52692
 Alpha virt. eigenvalues --    0.02878   0.04876   0.08391   0.09705   0.10997
 Alpha virt. eigenvalues --    0.12191   0.13087   0.14296   0.16591   0.17132
 Alpha virt. eigenvalues --    0.17721   0.19685   0.21274   0.26263   0.27517
 Alpha virt. eigenvalues --    0.28135   0.28660   0.32871   0.33880   0.35713
 Alpha virt. eigenvalues --    0.36344   0.37440   0.37755   0.39669   0.41986
 Alpha virt. eigenvalues --    0.42673   0.43939   0.54738   0.56310   0.58589
 Alpha virt. eigenvalues --    0.59560   0.66727   0.66909   0.70306   0.71932
 Alpha virt. eigenvalues --    0.75368   0.76596   0.77215   0.78553   0.79207
 Alpha virt. eigenvalues --    0.81400   0.82352   0.83634   0.85587   0.86027
 Alpha virt. eigenvalues --    0.87565   0.88578   0.89931   0.92613   0.95363
 Alpha virt. eigenvalues --    0.98883   0.99337   1.01922   1.03933   1.05283
 Alpha virt. eigenvalues --    1.07220   1.08820   1.09756   1.13610   1.14155
 Alpha virt. eigenvalues --    1.15821   1.19729   1.20829   1.25835   1.27927
 Alpha virt. eigenvalues --    1.33972   1.35839   1.42350   1.45970   1.46384
 Alpha virt. eigenvalues --    1.58991   1.60711   1.63511   1.73937   1.78049
 Alpha virt. eigenvalues --    1.82619   1.86368   1.87644   1.89793   2.19665
 Alpha virt. eigenvalues --    2.23286   2.27319   2.29708   2.32261   2.33938
 Alpha virt. eigenvalues --    2.35834   2.36632   2.38082   2.40254   2.41745
 Alpha virt. eigenvalues --    2.43771   2.49218   2.50302   2.52982   2.53555
 Alpha virt. eigenvalues --    2.54333   2.55993   2.56753   2.58397   2.60504
 Alpha virt. eigenvalues --    2.63867   2.64311   2.65087   2.67212   2.69013
 Alpha virt. eigenvalues --    2.73319   2.76311   2.78694   2.83799   2.88828
 Alpha virt. eigenvalues --    2.91103   2.98842   3.05260   3.13123   3.14596
 Alpha virt. eigenvalues --    3.22620   3.27848   3.32337   3.36905   3.52294
 Alpha virt. eigenvalues --    3.60611   3.65758   3.83567   3.87201   4.03342
 Alpha virt. eigenvalues --    4.38907   4.48118   4.52125   4.56433   4.59606
 Alpha virt. eigenvalues --    4.72165   4.88430   4.89500   4.94799   5.05722
 Alpha virt. eigenvalues --    5.13054   5.16282   5.59486   5.65071   5.87388
 Alpha virt. eigenvalues --    5.95048   6.02723   6.13078   6.84128   6.85097
 Alpha virt. eigenvalues --    7.30046   7.40041   7.63256   7.64120   7.70906
 Alpha virt. eigenvalues --    7.82829   8.04021   8.10297   8.17900   8.23087
 Alpha virt. eigenvalues --    8.36761   8.39275   8.66054   8.89398   9.62187
 Alpha virt. eigenvalues --    9.70407   9.78614   9.87182   9.97091  10.04089
 Alpha virt. eigenvalues --   10.16415  10.24566  10.47953  10.93463  11.48091
 Alpha virt. eigenvalues --   11.57488  11.62794  12.04009  12.08084  13.23574
 Alpha virt. eigenvalues --   13.64879  14.53241  62.79979  64.55151
          Condensed to atoms (all electrons):
              1          2          3          4          5
     1  O    0.002544  -0.002324  -0.001160   0.001396  -0.010418
     2  O   -0.002324   0.006108   0.000731  -0.004116  -0.000585
     3  H   -0.001160   0.000731   0.000698  -0.000398   0.002272
     4  H    0.001396  -0.004116  -0.000398   0.004609  -0.030354
     5  Kr  -0.010418  -0.000585   0.002272  -0.030354  36.075952
 Mulliken atomic charges:
              1
     1  O    0.009962
     2  O    0.000185
     3  H   -0.002144
     4  H    0.028863
     5  Kr  -0.036866
 Sum of Mulliken atomic charges =   0.00000
 Mulliken charges with hydrogens summed into heavy atoms:
              1
     1  O    0.007818
     2  O    0.029048
     5  Kr  -0.036866
 Sum of Mulliken charges with hydrogens summed into heavy atoms =   0.00000
          Condensed to fragments (all electrons):
     1       0.036866
     2      -0.036866
 Electronic spatial extent (au):  <R**2>=            167.1235
 Charge=              0.0000 electrons
 Dipole moment (field-independent basis, Debye):
    X=             -0.0009    Y=              0.0005    Z=              0.0000  Tot=              0.0010
 Quadrupole moment (field-independent basis, Debye-Ang):
   XX=            -17.5405   YY=            -17.5498   ZZ=            -17.5559
   XY=             -0.0042   XZ=              0.0001   YZ=              0.0002
 Traceless Quadrupole moment (field-independent basis, Debye-Ang):
   XX=              0.0082   YY=             -0.0011   ZZ=             -0.0072
   XY=             -0.0042   XZ=              0.0001   YZ=              0.0002
 Octapole moment (field-independent basis, Debye-Ang**2):
  XXX=            -52.4946  YYY=              0.9463  ZZZ=             -0.1349  XYY=            -17.5086
  XXY=              0.3064  XXZ=             -0.0452  XZZ=            -17.5118  YZZ=              0.3160
  YYZ=             -0.0446  XYZ=              0.0003
 Hexadecapole moment (field-independent basis, Debye-Ang**3):
 XXXX=           -122.7459 YYYY=            -18.0561 ZZZZ=            -18.0427 XXXY=              0.9235
 XXXZ=             -0.1353 YYYX=              0.9295 YYYZ=              0.0018 ZZZX=             -0.1347
 ZZZY=              0.0032 XXYY=            -23.4753 XXZZ=            -23.4744 YYZZ=             -6.0139
 XXYZ=              0.0010 YYXZ=             -0.0450 ZZXY=              0.3087
 N-N= 0.000000000000D+00 E-N=-6.579049745839D+03  KE= 2.749515557152D+03
 No NMR shielding tensors so no spin-rotation constants.
 Leave Link  601 at Fri May  8 00:53:38 2020, MaxMem= 1073741824 cpu:       0.7
 (Enter /home/matheus/.gaussian/g09/l122.exe)
 Counterpoise: doing MCBS calculation for fragment   1
 Leave Link  122 at Fri May  8 00:53:38 2020, MaxMem= 1073741824 cpu:       0.0
 (Enter /home/matheus/.gaussian/g09/l301.exe)
 Basis read from rwf:  (5D, 7F)
 No pseudopotential information found on rwf file.
 There are   138 symmetry adapted basis functions of A   symmetry.
 Integral buffers will be    131072 words long.
 Raffenetti 2 integral format.
 Two-electron integral symmetry is turned on.
   138 basis functions,   198 primitive gaussians,   160 cartesian basis functions
     9 alpha electrons        9 beta electrons
       nuclear repulsion energy        36.6035600706 Hartrees.
 IExCor=32609 DFT=T Ex+Corr=LC-wPBE ExCW=0 ScaHFX=  1.000000
 ScaDFX=  1.000000  0.000000  1.000000  1.000000 ScalE2=  1.000000  1.000000
 IRadAn=      5 IRanWt=     -1 IRanGd=            0 ICorTp=0
  HFx wShort=  0.000000 wLong=  0.550000 cFull=  0.000000 cShort=  0.000000 cLong=  1.000000
  DFx wShort=  0.000000 wLong=  0.550000 cFull=  0.000000 cShort=  0.000000 cLong=  1.000000
 NAtoms=    5 NActive=    4 NUniq=    4 SFac= 1.00D+00 NAtFMM=   60 NAOKFM=F Big=F
 No density basis found on file   718.
 Leave Link  301 at Fri May  8 00:53:38 2020, MaxMem= 1073741824 cpu:       0.2
 (Enter /home/matheus/.gaussian/g09/l302.exe)
 NPDir=0 NMtPBC=     1 NCelOv=     1 NCel=       1 NClECP=     1 NCelD=      1
         NCelK=      1 NCelE2=     1 NClLst=     1 CellRange=     0.0.
 One-electron integrals computed using PRISM.
 NBasis=   138 RedAO= T  NBF=   138
 NBsUse=   138 1.00D-06 NBFU=   138
 Precomputing XC quadrature grid using
 IXCGrd= 2 IRadAn=           5 IRanWt=          -1 IRanGd=           0 AccXCQ= 0.00D+00.
 NRdTot=     344 NPtTot=       92556 NUsed=       95038 NTot=       95070
 NSgBfM=   160   160   160   160   160 NAtAll=     4     4.
 Leave Link  302 at Fri May  8 00:53:38 2020, MaxMem= 1073741824 cpu:       0.8
 (Enter /home/matheus/.gaussian/g09/l303.exe)
 DipDrv:  MaxL=1.
 Leave Link  303 at Fri May  8 00:53:38 2020, MaxMem= 1073741824 cpu:       0.1
 (Enter /home/matheus/.gaussian/g09/l401.exe)
 Harris functional with IExCor=32609 diagonalized for initial guess.
 ExpMin= 2.53D-02 ExpMax= 1.53D+04 ExpMxC= 5.22D+02 IAcc=3 IRadAn=         5 AccDes= 0.00D+00
 HarFok:  IExCor=32609 AccDes= 0.00D+00 IRadAn=         5 IDoV= 1
 ScaDFX=  1.000000  1.000000  1.000000  1.000000
 FoFCou: FMM=F IPFlag=           0 FMFlag=      100000 FMFlg1=           0
         NFxFlg=           0 DoJE=T BraDBF=F KetDBF=T FulRan=T
         Omega=  0.000000  0.000000  1.000000  0.000000  0.000000 ICntrl=     500 IOpCl=  0
         NMat0=    1 NMatS0=    1 NMatT0=    0 NMatD0=    1 NMtDS0=    0 NMtDT0=    0
         I1Cent=           4 NGrid=           0.
 Petite list used in FoFCou.
 Harris En= -151.500293044521    
 Initial guess orbital symmetries:
       Occupied  (A) (A) (A) (A) (A) (A) (A) (A) (A)
       Virtual   (A) (A) (A) (A) (A) (A) (A) (A) (A) (A) (A) (A)
                 (A) (A) (A) (A) (A) (A) (A) (A) (A) (A) (A) (A)
                 (A) (A) (A) (A) (A) (A) (A) (A) (A) (A) (A) (A)
                 (A) (A) (A) (A) (A) (A) (A) (A) (A) (A) (A) (A)
                 (A) (A) (A) (A) (A) (A) (A) (A) (A) (A) (A) (A)
                 (A) (A) (A) (A) (A) (A) (A) (A) (A) (A) (A) (A)
                 (A) (A) (A) (A) (A) (A) (A) (A) (A) (A) (A) (A)
                 (A) (A) (A) (A) (A) (A) (A) (A) (A) (A) (A) (A)
                 (A) (A) (A) (A) (A) (A) (A) (A) (A) (A) (A) (A)
                 (A) (A) (A) (A) (A) (A) (A) (A) (A) (A) (A) (A)
                 (A) (A) (A) (A) (A) (A) (A) (A) (A)
 The electronic state of the initial guess is 1-A.
 Leave Link  401 at Fri May  8 00:53:38 2020, MaxMem= 1073741824 cpu:       2.0
 (Enter /home/matheus/.gaussian/g09/l502.exe)
 Closed shell SCF:
 Requested convergence on RMS density matrix=1.00D-08 within 128 cycles.
 Requested convergence on MAX density matrix=1.00D-06.
 Requested convergence on             energy=1.00D-06.
 No special actions if energy rises.
 Using DIIS extrapolation, IDIIS=  1040.
 Integral symmetry usage will be decided dynamically.
        94980 words used for storage of precomputed grid.
 IEnd=      192360 IEndB=      192360 NGot=  1073741824 MDV=  1073591865
 LenX=  1073591865 LenY=  1073565824
 Fock matrices will be formed incrementally for  20 cycles.

 Cycle   1  Pass 1  IDiag  1:
 FoFJK:  IHMeth= 1 ICntrl=     0 DoSepK=T KAlg= 1 I1Cent= 0 FoldK=F
 FoFCou: FMM=F IPFlag=           0 FMFlag=      100000 FMFlg1=           0
         NFxFlg=           0 DoJE=T BraDBF=F KetDBF=F FulRan=T
         Omega=  0.000000  0.000000  1.000000  0.000000  0.000000 ICntrl=     500 IOpCl=  0
         NMat0=    1 NMatS0=    1 NMatT0=    0 NMatD0=    1 NMtDS0=    0 NMtDT0=    0
         I1Cent=           0 NGrid=           0.
 Symmetry not used in FoFCou.
 E= -151.507099972169    
 DIIS: error= 1.66D-02 at cycle   1 NSaved=   1.
 NSaved= 1 IEnMin= 1 EnMin= -151.507099972169     IErMin= 1 ErrMin= 1.66D-02
 ErrMax= 1.66D-02 EMaxC= 1.00D-01 BMatC= 4.01D-02 BMatP= 4.01D-02
 IDIUse=3 WtCom= 8.34D-01 WtEn= 1.66D-01
 Coeff-Com:  0.100D+01
 Coeff-En:   0.100D+01
 Coeff:      0.100D+01
 Gap=     0.542 Goal=   None    Shift=    0.000
 GapD=    0.542 DampG=2.000 DampE=0.500 DampFc=1.0000 IDamp=-1.
 RMSDP=1.05D-03 MaxDP=2.51D-02              OVMax= 4.99D-02

 Cycle   2  Pass 1  IDiag  1:
 RMSU=  7.30D-04    CP:  9.88D-01
 FoFJK:  IHMeth= 1 ICntrl=     0 DoSepK=T KAlg= 1 I1Cent= 0 FoldK=F
 E= -151.523155204272     Delta-E=       -0.016055232103 Rises=F Damp=F
 DIIS: error= 9.31D-03 at cycle   2 NSaved=   2.
 NSaved= 2 IEnMin= 2 EnMin= -151.523155204272     IErMin= 2 ErrMin= 9.31D-03
 ErrMax= 9.31D-03 EMaxC= 1.00D-01 BMatC= 1.52D-02 BMatP= 4.01D-02
 IDIUse=3 WtCom= 9.07D-01 WtEn= 9.31D-02
 Coeff-Com:  0.367D+00 0.633D+00
 Coeff-En:   0.105D+00 0.895D+00
 Coeff:      0.342D+00 0.658D+00
 Gap=     0.466 Goal=   None    Shift=    0.000
 RMSDP=5.56D-04 MaxDP=2.18D-02 DE=-1.61D-02 OVMax= 2.17D-02

 Cycle   3  Pass 1  IDiag  1:
 RMSU=  3.36D-04    CP:  9.84D-01  7.24D-01
 FoFJK:  IHMeth= 1 ICntrl=     0 DoSepK=T KAlg= 1 I1Cent= 0 FoldK=F
 E= -151.531557034211     Delta-E=       -0.008401829939 Rises=F Damp=F
 DIIS: error= 2.32D-03 at cycle   3 NSaved=   3.
 NSaved= 3 IEnMin= 3 EnMin= -151.531557034211     IErMin= 3 ErrMin= 2.32D-03
 ErrMax= 2.32D-03 EMaxC= 1.00D-01 BMatC= 4.02D-04 BMatP= 1.52D-02
 IDIUse=3 WtCom= 9.77D-01 WtEn= 2.32D-02
 Coeff-Com:  0.384D-01 0.160D+00 0.802D+00
 Coeff-En:   0.000D+00 0.000D+00 0.100D+01
 Coeff:      0.375D-01 0.156D+00 0.807D+00
 Gap=     0.458 Goal=   None    Shift=    0.000
 RMSDP=8.31D-05 MaxDP=2.17D-03 DE=-8.40D-03 OVMax= 4.06D-03

 Cycle   4  Pass 1  IDiag  1:
 RMSU=  4.01D-05    CP:  9.82D-01  7.76D-01  1.03D+00
 FoFJK:  IHMeth= 1 ICntrl=     0 DoSepK=T KAlg= 1 I1Cent= 0 FoldK=F
 E= -151.531812684537     Delta-E=       -0.000255650326 Rises=F Damp=F
 DIIS: error= 3.49D-04 at cycle   4 NSaved=   4.
 NSaved= 4 IEnMin= 4 EnMin= -151.531812684537     IErMin= 4 ErrMin= 3.49D-04
 ErrMax= 3.49D-04 EMaxC= 1.00D-01 BMatC= 9.99D-06 BMatP= 4.02D-04
 IDIUse=3 WtCom= 9.97D-01 WtEn= 3.49D-03
 Coeff-Com: -0.867D-02-0.122D-01 0.913D-01 0.930D+00
 Coeff-En:   0.000D+00 0.000D+00 0.000D+00 0.100D+01
 Coeff:     -0.864D-02-0.122D-01 0.909D-01 0.930D+00
 Gap=     0.460 Goal=   None    Shift=    0.000
 RMSDP=2.14D-05 MaxDP=1.02D-03 DE=-2.56D-04 OVMax= 8.29D-04

 Cycle   5  Pass 1  IDiag  1:
 RMSU=  6.06D-06    CP:  9.82D-01  7.77D-01  1.06D+00  1.08D+00
 FoFJK:  IHMeth= 1 ICntrl=     0 DoSepK=T KAlg= 1 I1Cent= 0 FoldK=F
 E= -151.531821659352     Delta-E=       -0.000008974815 Rises=F Damp=F
 DIIS: error= 6.06D-05 at cycle   5 NSaved=   5.
 NSaved= 5 IEnMin= 5 EnMin= -151.531821659352     IErMin= 5 ErrMin= 6.06D-05
 ErrMax= 6.06D-05 EMaxC= 1.00D-01 BMatC= 2.39D-07 BMatP= 9.99D-06
 IDIUse=1 WtCom= 1.00D+00 WtEn= 0.00D+00
 Coeff-Com: -0.454D-03-0.280D-02-0.382D-01-0.123D+00 0.116D+01
 Coeff:     -0.454D-03-0.280D-02-0.382D-01-0.123D+00 0.116D+01
 Gap=     0.460 Goal=   None    Shift=    0.000
 RMSDP=5.55D-06 MaxDP=1.49D-04 DE=-8.97D-06 OVMax= 4.00D-04

 Cycle   6  Pass 1  IDiag  1:
 RMSU=  1.72D-06    CP:  9.82D-01  7.78D-01  1.07D+00  1.13D+00  1.35D+00
 FoFJK:  IHMeth= 1 ICntrl=     0 DoSepK=T KAlg= 1 I1Cent= 0 FoldK=F
 E= -151.531822298086     Delta-E=       -0.000000638734 Rises=F Damp=F
 DIIS: error= 1.59D-05 at cycle   6 NSaved=   6.
 NSaved= 6 IEnMin= 6 EnMin= -151.531822298086     IErMin= 6 ErrMin= 1.59D-05
 ErrMax= 1.59D-05 EMaxC= 1.00D-01 BMatC= 1.22D-08 BMatP= 2.39D-07
 IDIUse=1 WtCom= 1.00D+00 WtEn= 0.00D+00
 Coeff-Com:  0.323D-03 0.979D-03 0.354D-02-0.941D-02-0.191D+00 0.120D+01
 Coeff:      0.323D-03 0.979D-03 0.354D-02-0.941D-02-0.191D+00 0.120D+01
[...]
 RMSDP=1.83D-05 MaxDP=8.31D-04              OVMax= 3.03D-04

 Cycle   2  Pass 1  IDiag  1:
 RMSU=  1.29D-05    CP:  1.00D+00
 FoFJK:  IHMeth= 1 ICntrl=     0 DoSepK=T KAlg= 1 I1Cent= 0 FoldK=F
 E= -2753.47778100894     Delta-E=       -0.000000556890 Rises=F Damp=F
 DIIS: error= 3.26D-06 at cycle   2 NSaved=   2.
 NSaved= 2 IEnMin= 2 EnMin= -2753.47778100894     IErMin= 2 ErrMin= 3.26D-06
 ErrMax= 3.26D-06 EMaxC= 1.00D-01 BMatC= 3.79D-09 BMatP= 5.17D-06
 IDIUse=1 WtCom= 1.00D+00 WtEn= 0.00D+00
 Coeff-Com: -0.773D-02 0.101D+01
 Coeff:     -0.773D-02 0.101D+01
 Gap=     0.554 Goal=   None    Shift=    0.000
 RMSDP=1.66D-06 MaxDP=6.26D-05 DE=-5.57D-07 OVMax= 4.59D-05

 Cycle   3  Pass 1  IDiag  1:
 RMSU=  5.25D-07    CP:  1.00D+00  1.08D+00
 FoFJK:  IHMeth= 1 ICntrl=     0 DoSepK=T KAlg= 1 I1Cent= 0 FoldK=F
 E= -2753.47778101555     Delta-E=       -0.000000006610 Rises=F Damp=F
 DIIS: error= 4.73D-07 at cycle   3 NSaved=   3.
 NSaved= 3 IEnMin= 3 EnMin= -2753.47778101555     IErMin= 3 ErrMin= 4.73D-07
 ErrMax= 4.73D-07 EMaxC= 1.00D-01 BMatC= 9.73D-11 BMatP= 3.79D-09
 IDIUse=1 WtCom= 1.00D+00 WtEn= 0.00D+00
 Coeff-Com:  0.317D-03-0.126D+00 0.113D+01
 Coeff:      0.317D-03-0.126D+00 0.113D+01
 Gap=     0.554 Goal=   None    Shift=    0.000
 RMSDP=1.99D-07 MaxDP=7.23D-06 DE=-6.61D-09 OVMax= 9.23D-06

 Cycle   4  Pass 1  IDiag  1:
 RMSU=  5.62D-08    CP:  1.00D+00  1.09D+00  1.20D+00
 FoFJK:  IHMeth= 1 ICntrl=     0 DoSepK=T KAlg= 1 I1Cent= 0 FoldK=F
 E= -2753.47778101574     Delta-E=       -0.000000000196 Rises=F Damp=F
 DIIS: error= 2.60D-07 at cycle   4 NSaved=   4.
 NSaved= 4 IEnMin= 4 EnMin= -2753.47778101574     IErMin= 4 ErrMin= 2.60D-07
 ErrMax= 2.60D-07 EMaxC= 1.00D-01 BMatC= 8.40D-12 BMatP= 9.73D-11
 IDIUse=1 WtCom= 1.00D+00 WtEn= 0.00D+00
 Coeff-Com:  0.182D-03-0.453D-01 0.270D+00 0.775D+00
 Coeff:      0.182D-03-0.453D-01 0.270D+00 0.775D+00
 Gap=     0.554 Goal=   None    Shift=    0.000
 RMSDP=1.88D-08 MaxDP=8.99D-07 DE=-1.96D-10 OVMax= 8.45D-07

 Cycle   5  Pass 1  IDiag  1:
 RMSU=  8.07D-09    CP:  1.00D+00  1.09D+00  1.21D+00  1.12D+00
 FoFJK:  IHMeth= 1 ICntrl=     0 DoSepK=T KAlg= 1 I1Cent= 0 FoldK=F
 E= -2753.47778101574     Delta-E=        0.000000000005 Rises=F Damp=F
 DIIS: error= 4.10D-08 at cycle   5 NSaved=   5.
 NSaved= 5 IEnMin= 4 EnMin= -2753.47778101574     IErMin= 5 ErrMin= 4.10D-08
 ErrMax= 4.10D-08 EMaxC= 1.00D-01 BMatC= 2.84D-13 BMatP= 8.40D-12
 IDIUse=1 WtCom= 1.00D+00 WtEn= 0.00D+00
 Coeff-Com: -0.101D-04 0.570D-02-0.543D-01 0.137D-01 0.103D+01
 Coeff:     -0.101D-04 0.570D-02-0.543D-01 0.137D-01 0.103D+01
 Gap=     0.554 Goal=   None    Shift=    0.000
 RMSDP=8.60D-09 MaxDP=5.06D-07 DE= 4.55D-12 OVMax= 3.76D-07

 SCF Done:  E(RLC-wPBE) =  -2753.47778102     A.U. after    5 cycles
             Convg  =    0.8596D-08             -V/T =  2.0014
 KE= 2.749554812650D+03 PE=-6.579092689678D+03 EE= 1.076060096013D+03
 Leave Link  502 at Fri May  8 01:15:48 2020, MaxMem= 1073741824 cpu:      88.4
 (Enter /home/matheus/.gaussian/g09/l122.exe)
 Restoring MOs from calculation   4 to rwf.
 Counterpoise: doing MCBS calculation for fragment   1
 Leave Link  122 at Fri May  8 01:15:48 2020, MaxMem= 1073741824 cpu:       0.0
 (Enter /home/matheus/.gaussian/g09/l301.exe)
 Basis read from rwf:  (5D, 7F)
 No pseudopotential information found on rwf file.
 There are   138 symmetry adapted basis functions of A   symmetry.
 Integral buffers will be    131072 words long.
 Raffenetti 2 integral format.
 Two-electron integral symmetry is turned on.
   138 basis functions,   198 primitive gaussians,   160 cartesian basis functions
     9 alpha electrons        9 beta electrons
       nuclear repulsion energy        36.6035600706 Hartrees.
 IExCor=32609 DFT=T Ex+Corr=LC-wPBE ExCW=0 ScaHFX=  1.000000
 ScaDFX=  1.000000  0.000000  1.000000  1.000000 ScalE2=  1.000000  1.000000
 IRadAn=      5 IRanWt=     -1 IRanGd=            0 ICorTp=0
  HFx wShort=  0.000000 wLong=  0.550000 cFull=  0.000000 cShort=  0.000000 cLong=  1.000000
  DFx wShort=  0.000000 wLong=  0.550000 cFull=  0.000000 cShort=  0.000000 cLong=  1.000000
 NAtoms=    5 NActive=    4 NUniq=    4 SFac= 1.00D+00 NAtFMM=   60 NAOKFM=F Big=F
 No density basis found on file   718.
 Leave Link  301 at Fri May  8 01:15:48 2020, MaxMem= 1073741824 cpu:       0.2
 (Enter /home/matheus/.gaussian/g09/l302.exe)
 NPDir=0 NMtPBC=     1 NCelOv=     1 NCel=       1 NClECP=     1 NCelD=      1
         NCelK=      1 NCelE2=     1 NClLst=     1 CellRange=     0.0.
 One-electron integrals computed using PRISM.
 NBasis=   138 RedAO= T  NBF=   138
 NBsUse=   138 1.00D-06 NBFU=   138
 Precomputing XC quadrature grid using
 IXCGrd= 2 IRadAn=           5 IRanWt=          -1 IRanGd=           0 AccXCQ= 0.00D+00.
 NRdTot=     344 NPtTot=       92556 NUsed=       95038 NTot=       95070
 NSgBfM=   160   160   160   160   160 NAtAll=     4     4.
 Leave Link  302 at Fri May  8 01:15:48 2020, MaxMem= 1073741824 cpu:       0.8
 (Enter /home/matheus/.gaussian/g09/l303.exe)
 DipDrv:  MaxL=1.
 Leave Link  303 at Fri May  8 01:15:48 2020, MaxMem= 1073741824 cpu:       0.2
 (Enter /home/matheus/.gaussian/g09/l401.exe)
 Initial guess read from the read-write file.
 Guess basis will be translated and rotated to current coordinates.
 Initial guess orbital symmetries:
       Occupied  (A) (A) (A) (A) (A) (A) (A) (A) (A)
       Virtual   (A) (A) (A) (A) (A) (A) (A) (A) (A) (A) (A) (A)
                 (A) (A) (A) (A) (A) (A) (A) (A) (A) (A) (A) (A)
                 (A) (A) (A) (A) (A) (A) (A) (A) (A) (A) (A) (A)
                 (A) (A) (A) (A) (A) (A) (A) (A) (A) (A) (A) (A)
                 (A) (A) (A) (A) (A) (A) (A) (A) (A) (A) (A) (A)
                 (A) (A) (A) (A) (A) (A) (A) (A) (A) (A) (A) (A)
                 (A) (A) (A) (A) (A) (A) (A) (A) (A) (A) (A) (A)
                 (A) (A) (A) (A) (A) (A) (A) (A) (A) (A) (A) (A)
                 (A) (A) (A) (A) (A) (A) (A) (A) (A) (A) (A) (A)
                 (A) (A) (A) (A) (A) (A) (A) (A) (A) (A) (A) (A)
                 (A) (A) (A) (A) (A) (A) (A) (A) (A)
 The electronic state of the initial guess is 1-A.
 Generating alternative initial guess.
 Harris functional with IExCor=32609 diagonalized for initial guess.
 ExpMin= 2.53D-02 ExpMax= 1.53D+04 ExpMxC= 5.22D+02 IAcc=3 IRadAn=         5 AccDes= 0.00D+00
 HarFok:  IExCor=32609 AccDes= 0.00D+00 IRadAn=         5 IDoV= 1
 ScaDFX=  1.000000  1.000000  1.000000  1.000000
 FoFCou: FMM=F IPFlag=           0 FMFlag=      100000 FMFlg1=           0
         NFxFlg=           0 DoJE=T BraDBF=F KetDBF=T FulRan=T
         Omega=  0.000000  0.000000  1.000000  0.000000  0.000000 ICntrl=     500 IOpCl=  0
         NMat0=    1 NMatS0=    1 NMatT0=    0 NMatD0=    1 NMtDS0=    0 NMtDT0=    0
         I1Cent=           4 NGrid=           0.
 Petite list used in FoFCou.
 Harris En= -151.500292992813    
 Leave Link  401 at Fri May  8 01:15:48 2020, MaxMem= 1073741824 cpu:       2.4
 (Enter /home/matheus/.gaussian/g09/l502.exe)
 Closed shell SCF:
 Requested convergence on RMS density matrix=1.00D-08 within 128 cycles.
 Requested convergence on MAX density matrix=1.00D-06.
 Requested convergence on             energy=1.00D-06.
 No special actions if energy rises.
 Using DIIS extrapolation, IDIIS=  1040.
 Integral symmetry usage will be decided dynamically.
        94980 words used for storage of precomputed grid.
 IEnd=      192360 IEndB=      192360 NGot=  1073741824 MDV=  1073591865
 LenX=  1073591865 LenY=  1073565824
 Fock matrices will be formed incrementally for  20 cycles.

 Cycle   1  Pass 1  IDiag  1:
 FoFJK:  IHMeth= 1 ICntrl=     0 DoSepK=T KAlg= 1 I1Cent= 0 FoldK=F
 FoFCou: FMM=F IPFlag=           0 FMFlag=      100000 FMFlg1=           0
         NFxFlg=           0 DoJE=T BraDBF=F KetDBF=F FulRan=T
         Omega=  0.000000  0.000000  1.000000  0.000000  0.000000 ICntrl=     500 IOpCl=  0
         NMat0=    1 NMatS0=    1 NMatT0=    0 NMatD0=    1 NMtDS0=    0 NMtDT0=    0
         I1Cent=           0 NGrid=           0.
 Symmetry not used in FoFCou.
 E= -151.531822204781    
 DIIS: error= 2.48D-05 at cycle   1 NSaved=   1.
 NSaved= 1 IEnMin= 1 EnMin= -151.531822204781     IErMin= 1 ErrMin= 2.48D-05
 ErrMax= 2.48D-05 EMaxC= 1.00D-01 BMatC= 5.29D-08 BMatP= 5.29D-08
 IDIUse=1 WtCom= 1.00D+00 WtEn= 0.00D+00
 Coeff-Com:  0.100D+01
 Coeff:      0.100D+01
 Gap=     0.460 Goal=   None    Shift=    0.000
 RMSDP=1.08D-06 MaxDP=1.90D-05              OVMax= 7.80D-05

 Cycle   2  Pass 1  IDiag  1:
 RMSU=  7.62D-07    CP:  1.00D+00
 FoFJK:  IHMeth= 1 ICntrl=     0 DoSepK=T KAlg= 1 I1Cent= 0 FoldK=F
 E= -151.531822244869     Delta-E=       -0.000000040088 Rises=F Damp=F
 DIIS: error= 4.64D-06 at cycle   2 NSaved=   2.
 NSaved= 2 IEnMin= 2 EnMin= -151.531822244869     IErMin= 2 ErrMin= 4.64D-06
 ErrMax= 4.64D-06 EMaxC= 1.00D-01 BMatC= 2.01D-09 BMatP= 5.29D-08
 IDIUse=1 WtCom= 1.00D+00 WtEn= 0.00D+00
 Coeff-Com: -0.128D+00 0.113D+01
 Coeff:     -0.128D+00 0.113D+01
 Gap=     0.460 Goal=   None    Shift=    0.000
 RMSDP=3.89D-07 MaxDP=7.03D-06 DE=-4.01D-08 OVMax= 3.50D-05

 Cycle   3  Pass 1  IDiag  1:
 RMSU=  1.54D-07    CP:  1.00D+00  1.30D+00
 FoFJK:  IHMeth= 1 ICntrl=     0 DoSepK=T KAlg= 1 I1Cent= 0 FoldK=F
 E= -151.531822249434     Delta-E=       -0.000000004565 Rises=F Damp=F
 DIIS: error= 1.28D-06 at cycle   3 NSaved=   3.
 NSaved= 3 IEnMin= 3 EnMin= -151.531822249434     IErMin= 3 ErrMin= 1.28D-06
 ErrMax= 1.28D-06 EMaxC= 1.00D-01 BMatC= 1.86D-10 BMatP= 2.01D-09
 IDIUse=1 WtCom= 1.00D+00 WtEn= 0.00D+00
 Coeff-Com: -0.432D-02-0.183D+00 0.119D+01
 Coeff:     -0.432D-02-0.183D+00 0.119D+01
 Gap=     0.460 Goal=   None    Shift=    0.000
 RMSDP=1.53D-07 MaxDP=3.02D-06 DE=-4.57D-09 OVMax= 1.42D-05

 Cycle   4  Pass 1  IDiag  1:
 RMSU=  4.71D-08    CP:  1.00D+00  1.39D+00  1.45D+00
 FoFJK:  IHMeth= 1 ICntrl=     0 DoSepK=T KAlg= 1 I1Cent= 0 FoldK=F
 E= -151.531822255168     Delta-E=       -0.000000005734 Rises=F Damp=F
 DIIS: error= 5.75D-07 at cycle   4 NSaved=   4.
 NSaved= 4 IEnMin= 4 EnMin= -151.531822255168     IErMin= 4 ErrMin= 5.75D-07
 ErrMax= 5.75D-07 EMaxC= 1.00D-01 BMatC= 8.03D-11 BMatP= 1.86D-10
 IDIUse=1 WtCom= 1.00D+00 WtEn= 0.00D+00
 Coeff-Com:  0.103D-01-0.195D+00 0.531D+00 0.654D+00
 Coeff:      0.103D-01-0.195D+00 0.531D+00 0.654D+00
 Gap=     0.460 Goal=   None    Shift=    0.000
 RMSDP=4.72D-08 MaxDP=1.52D-06 DE=-5.73D-09 OVMax= 3.41D-06

 Cycle   5  Pass 1  IDiag  1:
 RMSU=  1.73D-08    CP:  1.00D+00  1.40D+00  1.60D+00  7.91D-01
 FoFJK:  IHMeth= 1 ICntrl=     0 DoSepK=T KAlg= 1 I1Cent= 0 FoldK=F
 E= -151.531822255243     Delta-E=       -0.000000000075 Rises=F Damp=F
 DIIS: error= 2.07D-07 at cycle   5 NSaved=   5.
 NSaved= 5 IEnMin= 5 EnMin= -151.531822255243     IErMin= 5 ErrMin= 2.07D-07
 ErrMax= 2.07D-07 EMaxC= 1.00D-01 BMatC= 6.07D-12 BMatP= 8.03D-11
 IDIUse=1 WtCom= 1.00D+00 WtEn= 0.00D+00
 Coeff-Com:  0.317D-02-0.259D-01-0.315D-01 0.165D+00 0.889D+00
 Coeff:      0.317D-02-0.259D-01-0.315D-01 0.165D+00 0.889D+00
 Gap=     0.460 Goal=   None    Shift=    0.000
 RMSDP=1.96D-08 MaxDP=4.17D-07 DE=-7.50D-11 OVMax= 1.49D-06

 Cycle   6  Pass 1  IDiag  1:
 RMSU=  7.47D-09    CP:  1.00D+00  1.41D+00  1.65D+00  9.35D-01  1.18D+00
 FoFJK:  IHMeth= 1 ICntrl=     0 DoSepK=T KAlg= 1 I1Cent= 0 FoldK=F
 E= -151.531822255254     Delta-E=       -0.000000000011 Rises=F Damp=F
 DIIS: error= 7.97D-08 at cycle   6 NSaved=   6.
 NSaved= 6 IEnMin= 6 EnMin= -151.531822255254     IErMin= 6 ErrMin= 7.97D-08
 ErrMax= 7.97D-08 EMaxC= 1.00D-01 BMatC= 1.10D-12 BMatP= 6.07D-12
 IDIUse=1 WtCom= 1.00D+00 WtEn= 0.00D+00
 Coeff-Com: -0.442D-03 0.197D-01-0.849D-01-0.390D-01 0.299D+00 0.806D+00
 Coeff:     -0.442D-03 0.197D-01-0.849D-01-0.390D-01 0.299D+00 0.806D+00
 Gap=     0.460 Goal=   None    Shift=    0.000
 RMSDP=8.03D-09 MaxDP=1.02D-07 DE=-1.08D-11 OVMax= 7.77D-07

 SCF Done:  E(RLC-wPBE) =  -151.531822255     A.U. after    6 cycles
             Convg  =    0.8029D-08             -V/T =  2.0071
 KE= 1.504632420966D+02 PE=-4.315406300051D+02 EE= 9.294200558267D+01
 Leave Link  502 at Fri May  8 01:15:54 2020, MaxMem= 1073741824 cpu:      45.2
 (Enter /home/matheus/.gaussian/g09/l122.exe)
 Restoring MOs from calculation   5 to rwf.
 Counterpoise: doing MCBS calculation for fragment   2
 Leave Link  122 at Fri May  8 01:15:54 2020, MaxMem= 1073741824 cpu:       0.0
 (Enter /home/matheus/.gaussian/g09/l301.exe)
 Basis read from rwf:  (5D, 7F)
 No pseudopotential information found on rwf file.
 There are    59 symmetry adapted basis functions of A   symmetry.
 Integral buffers will be    131072 words long.
 Raffenetti 2 integral format.
 Two-electron integral symmetry is turned on.
    59 basis functions,   217 primitive gaussians,    69 cartesian basis functions
    18 alpha electrons       18 beta electrons
       nuclear repulsion energy         0.0000000000 Hartrees.
 IExCor=32609 DFT=T Ex+Corr=LC-wPBE ExCW=0 ScaHFX=  1.000000
 ScaDFX=  1.000000  0.000000  1.000000  1.000000 ScalE2=  1.000000  1.000000
 IRadAn=      5 IRanWt=     -1 IRanGd=            0 ICorTp=0
  HFx wShort=  0.000000 wLong=  0.550000 cFull=  0.000000 cShort=  0.000000 cLong=  1.000000
  DFx wShort=  0.000000 wLong=  0.550000 cFull=  0.000000 cShort=  0.000000 cLong=  1.000000
 NAtoms=    5 NActive=    1 NUniq=    1 SFac= 1.00D+00 NAtFMM=   60 NAOKFM=F Big=F
 No density basis found on file   718.
 Leave Link  301 at Fri May  8 01:15:54 2020, MaxMem= 1073741824 cpu:       0.2
 (Enter /home/matheus/.gaussian/g09/l302.exe)
 NPDir=0 NMtPBC=     1 NCelOv=     1 NCel=       1 NClECP=     1 NCelD=      1
         NCelK=      1 NCelE2=     1 NClLst=     1 CellRange=     0.0.
 One-electron integrals computed using PRISM.
 NBasis=    59 RedAO= T  NBF=    59
 NBsUse=    59 1.00D-06 NBFU=    59
 Precomputing XC quadrature grid using
 IXCGrd= 2 IRadAn=           5 IRanWt=          -1 IRanGd=           0 AccXCQ= 0.00D+00.
 NRdTot=      81 NPtTot=       30352 NUsed=       30981 NTot=       31013
 NSgBfM=    69    69    69    69    69 NAtAll=     1     1.
 Leave Link  302 at Fri May  8 01:15:54 2020, MaxMem= 1073741824 cpu:       0.6
 (Enter /home/matheus/.gaussian/g09/l303.exe)
 DipDrv:  MaxL=1.
 Leave Link  303 at Fri May  8 01:15:54 2020, MaxMem= 1073741824 cpu:       0.1
 (Enter /home/matheus/.gaussian/g09/l401.exe)
 Initial guess read from the read-write file.
 Guess basis will be translated and rotated to current coordinates.
 Initial guess orbital symmetries:
       Occupied  (A) (A) (A) (A) (A) (A) (A) (A) (A) (A) (A) (A)
                 (A) (A) (A) (A) (A) (A)
       Virtual   (A) (A) (A) (A) (A) (A) (A) (A) (A) (A) (A) (A)
                 (A) (A) (A) (A) (A) (A) (A) (A) (A) (A) (A) (A)
                 (A) (A) (A) (A) (A) (A) (A) (A) (A) (A) (A) (A)
                 (A) (A) (A) (A) (A)
 The electronic state of the initial guess is 1-A.
 Generating alternative initial guess.
 Harris functional with IExCor=32609 diagonalized for initial guess.
 ExpMin= 4.00D-02 ExpMax= 1.17D+07 ExpMxC= 1.33D+04 IAcc=3 IRadAn=         5 AccDes= 0.00D+00
 HarFok:  IExCor=32609 AccDes= 0.00D+00 IRadAn=         5 IDoV= 1
 ScaDFX=  1.000000  1.000000  1.000000  1.000000
 FoFCou: FMM=F IPFlag=           0 FMFlag=      100000 FMFlg1=           0
         NFxFlg=           0 DoJE=T BraDBF=F KetDBF=T FulRan=T
         Omega=  0.000000  0.000000  1.000000  0.000000  0.000000 ICntrl=     500 IOpCl=  0
         NMat0=    1 NMatS0=    1 NMatT0=    0 NMatD0=    1 NMtDS0=    0 NMtDT0=    0
         I1Cent=           4 NGrid=           0.
 Petite list used in FoFCou.
 Harris En= -2753.24576836237    
 Leave Link  401 at Fri May  8 01:15:54 2020, MaxMem= 1073741824 cpu:       1.0
 (Enter /home/matheus/.gaussian/g09/l502.exe)
 Closed shell SCF:
 Requested convergence on RMS density matrix=1.00D-08 within 128 cycles.
 Requested convergence on MAX density matrix=1.00D-06.
 Requested convergence on             energy=1.00D-06.
 No special actions if energy rises.
 Using DIIS extrapolation, IDIIS=  1040.
 Integral symmetry usage will be decided dynamically.
        30923 words used for storage of precomputed grid.
 IEnd=       64406 IEndB=       64406 NGot=  1073741824 MDV=  1073698889
 LenX=  1073698889 LenY=  1073693687
 Fock matrices will be formed incrementally for  20 cycles.

 Cycle   1  Pass 1  IDiag  1:
 FoFJK:  IHMeth= 1 ICntrl=     0 DoSepK=T KAlg= 1 I1Cent= 0 FoldK=F
 FoFCou: FMM=F IPFlag=           0 FMFlag=      100000 FMFlg1=           0
         NFxFlg=           0 DoJE=T BraDBF=F KetDBF=F FulRan=T
         Omega=  0.000000  0.000000  1.000000  0.000000  0.000000 ICntrl=     500 IOpCl=  0
         NMat0=    1 NMatS0=    1 NMatT0=    0 NMatD0=    1 NMtDS0=    0 NMtDT0=    0
         I1Cent=           0 NGrid=           0.
 Symmetry not used in FoFCou.
 E= -2753.47775989058    
 DIIS: error= 1.01D-13 at cycle   1 NSaved=   1.
 NSaved= 1 IEnMin= 1 EnMin= -2753.47775989058     IErMin= 1 ErrMin= 1.01D-13
 ErrMax= 1.01D-13 EMaxC= 1.00D-01 BMatC= 1.57D-25 BMatP= 1.57D-25
 IDIUse=1 WtCom= 1.00D+00 WtEn= 0.00D+00
 Coeff-Com:  0.100D+01
 Coeff:      0.100D+01
 Gap=     0.626 Goal=   None    Shift=    0.000
 DSYEVD returned Info=          89 IAlg= 4 N=    59 NDim=    59 NE2=    18198197 trying DSYEV.
 RMSDP=5.85D-15 MaxDP=1.47D-13              OVMax= 1.62D-14

 SCF Done:  E(RLC-wPBE) =  -2753.47775989     A.U. after    1 cycles
             Convg  =    0.5847D-14             -V/T =  2.0014
 KE= 2.749561508178D+03 PE=-6.579099712888D+03 EE= 1.076060444820D+03
 Leave Link  502 at Fri May  8 01:15:56 2020, MaxMem= 1073741824 cpu:      11.7
 (Enter /home/matheus/.gaussian/g09/l122.exe)
 Restoring MOs from calculation   1 to rwf.
 Counterpoise: corrected energy =   -2905.009604099975
 Counterpoise: BSSE energy =       0.000024822957
 Leave Link  122 at Fri May  8 01:15:56 2020, MaxMem= 1073741824 cpu:       0.0
 (Enter /home/matheus/.gaussian/g09/l108.exe)
 Scan completed.

 Summary of the potential surface scan:
   N      R1          SCF    
 ----  ---------  -----------
    1     3.0000  -2753.47776
    2     3.1000  -2753.47776
    3     3.2000  -2753.47776
    4     3.3000  -2753.47776
    5     3.4000  -2753.47776
    6     3.5000  -2753.47776
    7     3.6000  -2753.47776
    8     3.7000  -2753.47776
    9     3.8000  -2753.47776
   10     3.9000  -2753.47776
   11     4.0000  -2753.47776
   12     4.1000  -2753.47776
   13     4.2000  -2753.47776
   14     4.3000  -2753.47776
   15     4.4000  -2753.47776
   16     4.5000  -2753.47776
   17     4.6000  -2753.47776
   18     4.7000  -2753.47776
   19     4.8000  -2753.47776
   20     4.9000  -2753.47776
   21     5.0000  -2753.47776
 ----  ---------  -----------
  
 Leave Link  108 at Fri May  8 01:15:56 2020, MaxMem= 1073741824 cpu:       0.0
 (Enter /home/matheus/.gaussian/g09/l9999.exe)

 Test job not archived.
 1\1\GINC-REDGIANT\Scan\RLC-wPBE\Aug-CC-pVTZ\H2Kr1O2\MATHEUS\08-May-202
 0\1\\#p lc-wpbe/aug-cc-PVTz iop(3/107=0550000000) iop(3/108=0550000000
 ) int=ultrafine counterpoise=2 Scan\\TCC\\0,1\O,0,0.,0.,0.725\O,0,0.,0
 .,-0.725\H,0,-0.4593602974,-0.795635374,1.0235104166\H,0,0.,0.91872059
 47,-1.0235104166\Kr,0,0.,R1,0.\\R1=3.,s,20,0.1\\Version=EM64L-G09RevC.
 01\State=1-A\HF=-2753.4777599,-2753.4777599,-2753.4777599,-2753.477759
 9,-2753.4777599,-2753.4777599,-2753.4777599,-2753.4777599,-2753.477759
 9,-2753.4777599,-2753.4777599,-2753.4777599,-2753.4777599,-2753.477759
 9,-2753.4777599,-2753.4777599,-2753.4777599,-2753.4777599,-2753.477759
 9,-2753.4777599,-2753.4777599\RMSD=1.997e-09,5.419e-11,1.021e-11,4.442
 e-12,2.189e-12,1.233e-12,6.872e-13,3.857e-13,2.187e-13,1.175e-13,6.434
 e-14,3.608e-14,1.947e-14,1.289e-14,6.317e-15,8.240e-15,9.641e-15,8.790
 e-15,1.062e-14,3.604e-15,5.847e-15\PG=C01 [X(H2Kr1O2)]\\@


 THERE'S A SUCKER BORN EVERY MINUTE

              -- PHINEAS TAYLOR (P.T.) BARNUM
 Job cpu time:  0 days  3 hours  9 minutes 24.7 seconds.
 File lengths (MBytes):  RWF=     33 Int=      0 D2E=      0 Chk=      8 Scr=      1
 Normal termination of Gaussian 09 at Fri May  8 01:15:56 2020.
