 Entering Gaussian System, Link 0=g09
 Input=/home/matheus/.ptcc/Inputs/H2O2-Kr_32.com
 Output=/home/matheus/.ptcc/Logs-MP4/H2O2-Kr_32.log
 Initial command:
 /home/matheus/.gaussian/g09/l1.exe /home/matheus/.gaussian/g09/scratch/Gau-3228.inp -scrdir=/home/matheus/.gaussian/g09/scratch/
 Entering Link 1 = /home/matheus/.gaussian/g09/l1.exe PID=      3230.
  
 Copyright (c) 1988,1990,1992,1993,1995,1998,2003,2009,2011,
            Gaussian, Inc.  All Rights Reserved.
  
 This is part of the Gaussian(R) 09 program.  It is based on
 the Gaussian(R) 03 system (copyright 2003, Gaussian, Inc.),
 the Gaussian(R) 98 system (copyright 1998, Gaussian, Inc.),
 the Gaussian(R) 94 system (copyright 1995, Gaussian, Inc.),
 the Gaussian 92(TM) system (copyright 1992, Gaussian, Inc.),
 the Gaussian 90(TM) system (copyright 1990, Gaussian, Inc.),
 the Gaussian 88(TM) system (copyright 1988, Gaussian, Inc.),
 the Gaussian 86(TM) system (copyright 1986, Carnegie Mellon
 University), and the Gaussian 82(TM) system (copyright 1983,
 Carnegie Mellon University). Gaussian is a federally registered
 trademark of Gaussian, Inc.
  
 This software contains proprietary and confidential information,
 including trade secrets, belonging to Gaussian, Inc.
  
 This software is provided under written license and may be
 used, copied, transmitted, or stored only in accord with that
 written license.
  
 The following legend is applicable only to US Government
 contracts under FAR:
  
                    RESTRICTED RIGHTS LEGEND
  
 Use, reproduction and disclosure by the US Government is
 subject to restrictions as set forth in subparagraphs (a)
 and (c) of the Commercial Computer Software - Restricted
 Rights clause in FAR 52.227-19.
  
 Gaussian, Inc.
 340 Quinnipiac St., Bldg. 40, Wallingford CT 06492
  
  
 ---------------------------------------------------------------
 Warning -- This program may not be used in any manner that
 competes with the business of Gaussian, Inc. or will provide
 assistance to any competitor of Gaussian, Inc.  The licensee
 of this program is prohibited from giving any competitor of
 Gaussian, Inc. access to this program.  By using this program,
 the user acknowledges that Gaussian, Inc. is engaged in the
 business of creating and licensing software in the field of
 computational chemistry and represents and warrants to the
 licensee that it is not a competitor of Gaussian, Inc. and that
 it will not use this program in any manner prohibited above.
 ---------------------------------------------------------------
  

 Cite this work as:
 Gaussian 09, Revision C.01,
 M. J. Frisch, G. W. Trucks, H. B. Schlegel, G. E. Scuseria, 
 M. A. Robb, J. R. Cheeseman, G. Scalmani, V. Barone, B. Mennucci, 
 G. A. Petersson, H. Nakatsuji, M. Caricato, X. Li, H. P. Hratchian, 
 A. F. Izmaylov, J. Bloino, G. Zheng, J. L. Sonnenberg, M. Hada, 
 M. Ehara, K. Toyota, R. Fukuda, J. Hasegawa, M. Ishida, T. Nakajima, 
 Y. Honda, O. Kitao, H. Nakai, T. Vreven, J. A. Montgomery, Jr., 
 J. E. Peralta, F. Ogliaro, M. Bearpark, J. J. Heyd, E. Brothers, 
 K. N. Kudin, V. N. Staroverov, T. Keith, R. Kobayashi, J. Normand, 
 K. Raghavachari, A. Rendell, J. C. Burant, S. S. Iyengar, J. Tomasi, 
 M. Cossi, N. Rega, J. M. Millam, M. Klene, J. E. Knox, J. B. Cross, 
 V. Bakken, C. Adamo, J. Jaramillo, R. Gomperts, R. E. Stratmann, 
 O. Yazyev, A. J. Austin, R. Cammi, C. Pomelli, J. W. Ochterski, 
 R. L. Martin, K. Morokuma, V. G. Zakrzewski, G. A. Voth, 
 P. Salvador, J. J. Dannenberg, S. Dapprich, A. D. Daniels, 
 O. Farkas, J. B. Foresman, J. V. Ortiz, J. Cioslowski, 
 and D. J. Fox, Gaussian, Inc., Wallingford CT, 2010.
 
 ******************************************
 Gaussian 09:  EM64L-G09RevC.01 23-Sep-2011
                17-Dec-2019 
 ******************************************
 %mem=2GB
 %nproc=2
 Will use up to    2 processors via shared memory.
 -------------------------------------
 #p mp4/aug-cc-PVTz int=ultrafine Scan
 -------------------------------------
 1/38=1,60=1/1,8;
 2/12=2,17=6,18=5,29=3,40=1/2;
 3/5=16,6=1,7=10,11=9,16=1,25=1,30=1,75=-5/1,2,3;
 4//1;
 5/5=2,38=5/2;
 8/6=4,9=120000,10=1/1,4;
 9/5=5/13;
 6/7=2,8=2,9=2,10=2,18=1/1;
 1/60=1/8(1);
 99/9=1/99;
 2/29=3/2;
 3/5=16,6=1,7=10,11=9,16=1,25=1,30=1,75=-5/1,2,3;
 4/5=5,16=3/1;
 5/5=2,38=5/2;
 8/6=4,9=120000,10=1/1,4;
 9/5=5/13;
 1/60=1/8(-6);
 99/9=1/99;
 Leave Link    1 at Tue Dec 17 09:13:56 2019, MaxMem=  268435456 cpu:       0.0
 (Enter /home/matheus/.gaussian/g09/l101.exe)
 ----
 PTCC
 ----
 Charge =  0 Multiplicity = 1
 Symbolic Z-Matrix:
 O                     0.        0.        0.725 
 O                     0.        0.       -0.725 
 H                    -0.59054   0.70378   1.02351 
 H                     0.        0.91872  -1.02351 
 Kr                    0.       R1        0. 
       Variables:
  R1                    3.     Scan 20    0.1    
 
 NAtoms=      5 NQM=        0 NQMF=       0 NMMI=      5 NMMIF=      0
                NMic=       0 NMicF=      0.
                    Isotopes and Nuclear Properties:
 (Nuclear quadrupole moments (NQMom) in fm**2, nuclear magnetic moments (NMagM)
  in nuclear magnetons)

  Atom         1           2           3           4           5
 IAtWgt=          16          16           1           1          84
 AtmWgt=  15.9949146  15.9949146   1.0078250   1.0078250  83.9115064
 NucSpn=           0           0           1           1           0
 AtZEff=   0.0000000   0.0000000   0.0000000   0.0000000   0.0000000
 NQMom=    0.0000000   0.0000000   0.0000000   0.0000000   0.0000000
 NMagM=    0.0000000   0.0000000   2.7928460   2.7928460   0.0000000
 Leave Link  101 at Tue Dec 17 09:13:56 2019, MaxMem=  268435456 cpu:       0.1
 (Enter /home/matheus/.gaussian/g09/l108.exe)
 Scan the potential surface.
 Variable   Value     No. Steps Step-Size
 -------- ----------- --------- ---------
     1       3.000000      20      0.1000
 A total of     21 points will be computed.
 Leave Link  108 at Tue Dec 17 09:13:56 2019, MaxMem=  268435456 cpu:       0.0
 (Enter /home/matheus/.gaussian/g09/l202.exe)
 ---------------------------------------------------------------------------------------------------
                            Z-MATRIX (ANGSTROMS AND DEGREES)
   CD    Cent   Atom    N1       Length/X        N2       Alpha/Y        N3        Beta/Z          J
 ---------------------------------------------------------------------------------------------------
      1      1  O        0   0.000000          0.000000          0.725000
      2      2  O        0   0.000000          0.000000         -0.725000
      3      3  H        0  -0.590542          0.703781          1.023510
      4      4  H        0   0.000000          0.918721         -1.023510
      5      5  Kr       0   0.000000          3.000000          0.000000
 ---------------------------------------------------------------------------------------------------
                         Z-Matrix orientation:                         
 ---------------------------------------------------------------------
 Center     Atomic      Atomic             Coordinates (Angstroms)
 Number     Number       Type             X           Y           Z
 ---------------------------------------------------------------------
      1          8           0        0.000000    0.000000    0.725000
      2          8           0        0.000000    0.000000   -0.725000
      3          1           0       -0.590542    0.703781    1.023510
      4          1           0        0.000000    0.918721   -1.023510
      5         36           0        0.000000    3.000000    0.000000
 ---------------------------------------------------------------------
                    Distance matrix (angstroms):
                    1          2          3          4          5
     1  O    0.000000
     2  O    1.450000   0.000000
     3  H    0.966000   1.975180   0.000000
     4  H    1.975180   0.966000   2.141316   0.000000
     5  Kr   3.086361   3.086361   2.582428   2.319331   0.000000
 Stoichiometry    H2KrO2
 Framework group  C1[X(H2KrO2)]
 Deg. of freedom     9
 Full point group                 C1      NOp   1
 Largest Abelian subgroup         C1      NOp   1
 Largest concise Abelian subgroup C1      NOp   1
                         Standard orientation:                         
 ---------------------------------------------------------------------
 Center     Atomic      Atomic             Coordinates (Angstroms)
 Number     Number       Type             X           Y           Z
 ---------------------------------------------------------------------
      1          8           0       -2.031661   -0.717244   -0.068894
      2          8           0       -2.028133    0.730229    0.016606
      3          1           0       -1.333152   -1.052071    0.508282
      4          1           0       -1.108715    1.025573    0.041099
      5         36           0        0.970006   -0.002150   -0.003641
 ---------------------------------------------------------------------
 Rotational constants (GHZ):     26.2249700      2.3786625      2.1869902
 Leave Link  202 at Tue Dec 17 09:13:56 2019, MaxMem=  268435456 cpu:       0.0
 (Enter /home/matheus/.gaussian/g09/l301.exe)
 Standard basis: Aug-CC-pVTZ (5D, 7F)
 Ernie: Thresh=  0.10000D-02 Tol=  0.10000D-05 Strict=F.
 Ernie:  38 primitive shells out of 205 were deleted.
 There are   197 symmetry adapted basis functions of A   symmetry.
 Integral buffers will be    131072 words long.
 Raffenetti 1 integral format.
 Two-electron integral symmetry is turned on.
   197 basis functions,   415 primitive gaussians,   229 cartesian basis functions
    27 alpha electrons       27 beta electrons
       nuclear repulsion energy       151.0050746500 Hartrees.
 IExCor=    0 DFT=F Ex=HF Corr=None ExCW=0 ScaHFX=  1.000000
 ScaDFX=  1.000000  1.000000  1.000000  1.000000 ScalE2=  1.000000  1.000000
 IRadAn=      5 IRanWt=     -1 IRanGd=            0 ICorTp=0
 NAtoms=    5 NActive=    5 NUniq=    5 SFac= 1.00D+00 NAtFMM=   60 NAOKFM=F Big=F
 Leave Link  301 at Tue Dec 17 09:13:57 2019, MaxMem=  268435456 cpu:       0.1
 (Enter /home/matheus/.gaussian/g09/l302.exe)
 NPDir=0 NMtPBC=     1 NCelOv=     1 NCel=       1 NClECP=     1 NCelD=      1
         NCelK=      1 NCelE2=     1 NClLst=     1 CellRange=     0.0.
 One-electron integrals computed using PRISM.
 NBasis=   197 RedAO= T  NBF=   197
 NBsUse=   197 1.00D-06 NBFU=   197
 Leave Link  302 at Tue Dec 17 09:13:57 2019, MaxMem=  268435456 cpu:       0.2
 (Enter /home/matheus/.gaussian/g09/l303.exe)
 DipDrv:  MaxL=1.
 Leave Link  303 at Tue Dec 17 09:13:57 2019, MaxMem=  268435456 cpu:       0.1
 (Enter /home/matheus/.gaussian/g09/l401.exe)
 Harris functional with IExCor=  205 diagonalized for initial guess.
 ExpMin= 2.53D-02 ExpMax= 1.17D+07 ExpMxC= 1.33D+04 IAcc=3 IRadAn=         5 AccDes= 0.00D+00
 HarFok:  IExCor=  205 AccDes= 0.00D+00 IRadAn=         5 IDoV= 1
 ScaDFX=  1.000000  1.000000  1.000000  1.000000
 FoFCou: FMM=F IPFlag=           0 FMFlag=      100000 FMFlg1=           0
         NFxFlg=           0 DoJE=T BraDBF=F KetDBF=T FulRan=T
         Omega=  0.000000  0.000000  1.000000  0.000000  0.000000 ICntrl=     500 IOpCl=  0
         NMat0=    1 NMatS0=    1 NMatT0=    0 NMatD0=    1 NMtDS0=    0 NMtDT0=    0
         I1Cent=           4 NGrid=           0.
 Petite list used in FoFCou.
 Harris En= -2901.92729271066    
 Initial guess orbital symmetries:
       Occupied  (A) (A) (A) (A) (A) (A) (A) (A) (A) (A) (A) (A)
                 (A) (A) (A) (A) (A) (A) (A) (A) (A) (A) (A) (A)
                 (A) (A) (A)
       Virtual   (A) (A) (A) (A) (A) (A) (A) (A) (A) (A) (A) (A)
                 (A) (A) (A) (A) (A) (A) (A) (A) (A) (A) (A) (A)
                 (A) (A) (A) (A) (A) (A) (A) (A) (A) (A) (A) (A)
                 (A) (A) (A) (A) (A) (A) (A) (A) (A) (A) (A) (A)
                 (A) (A) (A) (A) (A) (A) (A) (A) (A) (A) (A) (A)
                 (A) (A) (A) (A) (A) (A) (A) (A) (A) (A) (A) (A)
                 (A) (A) (A) (A) (A) (A) (A) (A) (A) (A) (A) (A)
                 (A) (A) (A) (A) (A) (A) (A) (A) (A) (A) (A) (A)
                 (A) (A) (A) (A) (A) (A) (A) (A) (A) (A) (A) (A)
                 (A) (A) (A) (A) (A) (A) (A) (A) (A) (A) (A) (A)
                 (A) (A) (A) (A) (A) (A) (A) (A) (A) (A) (A) (A)
                 (A) (A) (A) (A) (A) (A) (A) (A) (A) (A) (A) (A)
                 (A) (A) (A) (A) (A) (A) (A) (A) (A) (A) (A) (A)
                 (A) (A) (A) (A) (A) (A) (A) (A) (A) (A) (A) (A)
                 (A) (A)
 The electronic state of the initial guess is 1-A.
 Leave Link  401 at Tue Dec 17 09:13:58 2019, MaxMem=  268435456 cpu:       1.2
 (Enter /home/matheus/.gaussian/g09/l502.exe)
 Closed shell SCF:
 Requested convergence on RMS density matrix=1.00D-08 within 128 cycles.
 Requested convergence on MAX density matrix=1.00D-06.
 Requested convergence on             energy=1.00D-06.
 No special actions if energy rises.
 Using DIIS extrapolation, IDIIS=  1040.
 Integral symmetry usage will be decided dynamically.
 IEnd=      178489 IEndB=      178489 NGot=   268435456 MDV=   268326278
 LenX=   268326278 LenY=   268273396
 Fock matrices will be formed incrementally for  20 cycles.

 Cycle   1  Pass 0  IDiag  1:
 FoFCou: FMM=F IPFlag=           0 FMFlag=      100000 FMFlg1=           0
         NFxFlg=           0 DoJE=F BraDBF=F KetDBF=F FulRan=T
         Omega=  0.000000  0.000000  1.000000  0.000000  0.000000 ICntrl=       0 IOpCl=  0
         NMat0=    1 NMatS0=    1 NMatT0=    0 NMatD0=    1 NMtDS0=    0 NMtDT0=    0
         I1Cent=           0 NGrid=           0.
 Symmetry not used in FoFCou.
 E= -2902.75055264195    
 DIIS: error= 5.38D-02 at cycle   1 NSaved=   1.
 NSaved= 1 IEnMin= 1 EnMin= -2902.75055264195     IErMin= 1 ErrMin= 5.38D-02
 ErrMax= 5.38D-02 EMaxC= 1.00D-01 BMatC= 7.01D-01 BMatP= 7.01D-01
 IDIUse=3 WtCom= 4.62D-01 WtEn= 5.38D-01
 Coeff-Com:  0.100D+01
 Coeff-En:   0.100D+01
 Coeff:      0.100D+01
 Gap=     0.688 Goal=   None    Shift=    0.000
 GapD=    0.688 DampG=2.000 DampE=0.500 DampFc=1.0000 IDamp=-1.
 RMSDP=2.29D-03 MaxDP=1.54D-01              OVMax= 5.36D-02

 Cycle   2  Pass 0  IDiag  1:
 RMSU=  1.60D-03    CP:  1.01D+00
 E= -2902.85679848078     Delta-E=       -0.106245838826 Rises=F Damp=F
 DIIS: error= 8.07D-03 at cycle   2 NSaved=   2.
 NSaved= 2 IEnMin= 2 EnMin= -2902.85679848078     IErMin= 2 ErrMin= 8.07D-03
 ErrMax= 8.07D-03 EMaxC= 1.00D-01 BMatC= 4.29D-02 BMatP= 7.01D-01
 IDIUse=3 WtCom= 9.19D-01 WtEn= 8.07D-02
 Coeff-Com:  0.155D+00 0.845D+00
 Coeff-En:   0.000D+00 0.100D+01
 Coeff:      0.143D+00 0.857D+00
 Gap=     0.521 Goal=   None    Shift=    0.000
 RMSDP=8.37D-04 MaxDP=4.36D-02 DE=-1.06D-01 OVMax= 2.46D-02

 Cycle   3  Pass 0  IDiag  1:
 RMSU=  4.59D-04    CP:  1.01D+00  7.76D-01
 E= -2902.87169228441     Delta-E=       -0.014893803631 Rises=F Damp=F
 DIIS: error= 2.28D-03 at cycle   3 NSaved=   3.
 NSaved= 3 IEnMin= 3 EnMin= -2902.87169228441     IErMin= 3 ErrMin= 2.28D-03
 ErrMax= 2.28D-03 EMaxC= 1.00D-01 BMatC= 2.54D-03 BMatP= 4.29D-02
 IDIUse=3 WtCom= 9.77D-01 WtEn= 2.28D-02
 Coeff-Com: -0.568D-02 0.174D+00 0.832D+00
 Coeff-En:   0.000D+00 0.000D+00 0.100D+01
 Coeff:     -0.555D-02 0.170D+00 0.836D+00
 Gap=     0.496 Goal=   None    Shift=    0.000
 RMSDP=1.32D-04 MaxDP=5.09D-03 DE=-1.49D-02 OVMax= 7.90D-03

 Cycle   4  Pass 0  IDiag  1:
 RMSU=  5.04D-05    CP:  1.01D+00  8.08D-01  8.74D-01
 E= -2902.87294862608     Delta-E=       -0.001256341675 Rises=F Damp=F
 DIIS: error= 3.51D-04 at cycle   4 NSaved=   4.
 NSaved= 4 IEnMin= 4 EnMin= -2902.87294862608     IErMin= 4 ErrMin= 3.51D-04
 ErrMax= 3.51D-04 EMaxC= 1.00D-01 BMatC= 5.41D-05 BMatP= 2.54D-03
 IDIUse=3 WtCom= 9.96D-01 WtEn= 3.51D-03
 Coeff-Com: -0.456D-02 0.125D-01 0.159D+00 0.833D+00
 Coeff-En:   0.000D+00 0.000D+00 0.000D+00 0.100D+01
 Coeff:     -0.454D-02 0.124D-01 0.159D+00 0.833D+00
 Gap=     0.501 Goal=   None    Shift=    0.000
 RMSDP=2.36D-05 MaxDP=7.24D-04 DE=-1.26D-03 OVMax= 1.77D-03

 Cycle   5  Pass 0  IDiag  1:
 RMSU=  1.42D-05    CP:  1.01D+00  8.09D-01  8.92D-01  9.66D-01
 E= -2902.87299349012     Delta-E=       -0.000044864043 Rises=F Damp=F
 DIIS: error= 1.32D-04 at cycle   5 NSaved=   5.
 NSaved= 5 IEnMin= 5 EnMin= -2902.87299349012     IErMin= 5 ErrMin= 1.32D-04
 ErrMax= 1.32D-04 EMaxC= 1.00D-01 BMatC= 3.83D-06 BMatP= 5.41D-05
 IDIUse=3 WtCom= 9.99D-01 WtEn= 1.32D-03
 Coeff-Com:  0.873D-03-0.155D-01-0.741D-01-0.441D-03 0.109D+01
 Coeff-En:   0.000D+00 0.000D+00 0.000D+00 0.000D+00 0.100D+01
 Coeff:      0.872D-03-0.155D-01-0.740D-01-0.440D-03 0.109D+01
 Gap=     0.501 Goal=   None    Shift=    0.000
 RMSDP=1.16D-05 MaxDP=3.33D-04 DE=-4.49D-05 OVMax= 7.66D-04

 Cycle   6  Pass 0  IDiag  1:
 RMSU=  5.11D-06    CP:  1.01D+00  8.08D-01  8.89D-01  1.05D+00  1.26D+00
 E= -2902.87299927180     Delta-E=       -0.000005781676 Rises=F Damp=F
 DIIS: error= 3.21D-05 at cycle   6 NSaved=   6.
 NSaved= 6 IEnMin= 6 EnMin= -2902.87299927180     IErMin= 6 ErrMin= 3.21D-05
 ErrMax= 3.21D-05 EMaxC= 1.00D-01 BMatC= 2.39D-07 BMatP= 3.83D-06
 IDIUse=1 WtCom= 1.00D+00 WtEn= 0.00D+00
 Coeff-Com:  0.199D-03 0.132D-03-0.700D-02-0.517D-01-0.302D-01 0.109D+01
 Coeff:      0.199D-03 0.132D-03-0.700D-02-0.517D-01-0.302D-01 0.109D+01
 Gap=     0.501 Goal=   None    Shift=    0.000
 RMSDP=3.54D-06 MaxDP=1.21D-04 DE=-5.78D-06 OVMax= 2.50D-04

 Initial convergence to 1.0D-05 achieved.  Increase integral accuracy.
 Cycle   7  Pass 1  IDiag  1:
 E= -2902.87299977411     Delta-E=       -0.000000502312 Rises=F Damp=F
 DIIS: error= 9.99D-06 at cycle   1 NSaved=   1.
 NSaved= 1 IEnMin= 1 EnMin= -2902.87299977411     IErMin= 1 ErrMin= 9.99D-06
 ErrMax= 9.99D-06 EMaxC= 1.00D-01 BMatC= 3.44D-08 BMatP= 3.44D-08
 IDIUse=1 WtCom= 1.00D+00 WtEn= 0.00D+00
 Coeff-Com:  0.100D+01
 Coeff:      0.100D+01
 Gap=     0.501 Goal=   None    Shift=    0.000
 RMSDP=3.54D-06 MaxDP=1.21D-04 DE=-5.02D-07 OVMax= 8.09D-05

 Cycle   8  Pass 1  IDiag  1:
 RMSU=  7.53D-07    CP:  1.00D+00
 E= -2902.87299982839     Delta-E=       -0.000000054279 Rises=F Damp=F
 DIIS: error= 7.18D-06 at cycle   2 NSaved=   2.
 NSaved= 2 IEnMin= 2 EnMin= -2902.87299982839     IErMin= 2 ErrMin= 7.18D-06
 ErrMax= 7.18D-06 EMaxC= 1.00D-01 BMatC= 1.56D-08 BMatP= 3.44D-08
 IDIUse=1 WtCom= 1.00D+00 WtEn= 0.00D+00
 Coeff-Com:  0.336D+00 0.664D+00
 Coeff:      0.336D+00 0.664D+00
 Gap=     0.501 Goal=   None    Shift=    0.000
 RMSDP=4.43D-07 MaxDP=1.90D-05 DE=-5.43D-08 OVMax= 3.26D-05

 Cycle   9  Pass 1  IDiag  1:
 RMSU=  2.87D-07    CP:  1.00D+00  1.17D+00
 E= -2902.87299984498     Delta-E=       -0.000000016592 Rises=F Damp=F
 DIIS: error= 3.48D-06 at cycle   3 NSaved=   3.
 NSaved= 3 IEnMin= 3 EnMin= -2902.87299984498     IErMin= 3 ErrMin= 3.48D-06
 ErrMax= 3.48D-06 EMaxC= 1.00D-01 BMatC= 2.85D-09 BMatP= 1.56D-08
 IDIUse=1 WtCom= 1.00D+00 WtEn= 0.00D+00
 Coeff-Com: -0.440D+00-0.218D+00 0.166D+01
 Coeff:     -0.440D+00-0.218D+00 0.166D+01
 Gap=     0.501 Goal=   None    Shift=    0.000
 RMSDP=6.63D-07 MaxDP=1.62D-05 DE=-1.66D-08 OVMax= 6.29D-05

 Cycle  10  Pass 1  IDiag  1:
 RMSU=  7.84D-08    CP:  1.00D+00  1.72D+00  1.68D+00
 E= -2902.87299985525     Delta-E=       -0.000000010262 Rises=F Damp=F
 DIIS: error= 7.16D-07 at cycle   4 NSaved=   4.
 NSaved= 4 IEnMin= 4 EnMin= -2902.87299985525     IErMin= 4 ErrMin= 7.16D-07
 ErrMax= 7.16D-07 EMaxC= 1.00D-01 BMatC= 9.55D-11 BMatP= 2.85D-09
 IDIUse=1 WtCom= 1.00D+00 WtEn= 0.00D+00
 Coeff-Com:  0.752D-01 0.149D-01-0.325D+00 0.123D+01
 Coeff:      0.752D-01 0.149D-01-0.325D+00 0.123D+01
 Gap=     0.501 Goal=   None    Shift=    0.000
 RMSDP=8.56D-08 MaxDP=2.09D-06 DE=-1.03D-08 OVMax= 1.02D-05

 Cycle  11  Pass 1  IDiag  1:
 RMSU=  2.09D-08    CP:  1.00D+00  1.77D+00  1.76D+00  1.51D+00
 E= -2902.87299985557     Delta-E=       -0.000000000323 Rises=F Damp=F
 DIIS: error= 2.80D-07 at cycle   5 NSaved=   5.
 NSaved= 5 IEnMin= 5 EnMin= -2902.87299985557     IErMin= 5 ErrMin= 2.80D-07
 ErrMax= 2.80D-07 EMaxC= 1.00D-01 BMatC= 1.56D-11 BMatP= 9.55D-11
 IDIUse=1 WtCom= 1.00D+00 WtEn= 0.00D+00
 Coeff-Com:  0.604D-01 0.306D-01-0.227D+00-0.111D+00 0.125D+01
 Coeff:      0.604D-01 0.306D-01-0.227D+00-0.111D+00 0.125D+01
 Gap=     0.501 Goal=   None    Shift=    0.000
 RMSDP=3.90D-08 MaxDP=1.08D-06 DE=-3.23D-10 OVMax= 4.77D-06

 Cycle  12  Pass 1  IDiag  1:
 RMSU=  6.53D-09    CP:  1.00D+00  1.78D+00  1.79D+00  1.77D+00  1.56D+00
 E= -2902.87299985564     Delta-E=       -0.000000000075 Rises=F Damp=F
 DIIS: error= 8.31D-08 at cycle   6 NSaved=   6.
 NSaved= 6 IEnMin= 6 EnMin= -2902.87299985564     IErMin= 6 ErrMin= 8.31D-08
 ErrMax= 8.31D-08 EMaxC= 1.00D-01 BMatC= 1.31D-12 BMatP= 1.56D-11
 IDIUse=1 WtCom= 1.00D+00 WtEn= 0.00D+00
 Coeff-Com: -0.773D-02-0.233D-02 0.321D-01-0.656D-01-0.143D+00 0.119D+01
 Coeff:     -0.773D-02-0.233D-02 0.321D-01-0.656D-01-0.143D+00 0.119D+01
 Gap=     0.501 Goal=   None    Shift=    0.000
 RMSDP=1.00D-08 MaxDP=2.82D-07 DE=-7.46D-11 OVMax= 1.06D-06

 Cycle  13  Pass 1  IDiag  1:
 RMSU=  2.71D-09    CP:  1.00D+00  1.78D+00  1.79D+00  1.82D+00  1.77D+00
                    CP:  1.37D+00
 E= -2902.87299985563     Delta-E=        0.000000000015 Rises=F Damp=F
 DIIS: error= 2.98D-08 at cycle   7 NSaved=   7.
 NSaved= 7 IEnMin= 6 EnMin= -2902.87299985564     IErMin= 7 ErrMin= 2.98D-08
 ErrMax= 2.98D-08 EMaxC= 1.00D-01 BMatC= 2.27D-13 BMatP= 1.31D-12
 IDIUse=1 WtCom= 1.00D+00 WtEn= 0.00D+00
 Coeff-Com: -0.976D-02-0.457D-02 0.372D-01 0.998D-02-0.224D+00 0.251D+00
 Coeff-Com:  0.940D+00
 Coeff:     -0.976D-02-0.457D-02 0.372D-01 0.998D-02-0.224D+00 0.251D+00
 Coeff:      0.940D+00
 Gap=     0.501 Goal=   None    Shift=    0.000
 RMSDP=3.24D-09 MaxDP=9.32D-08 DE= 1.55D-11 OVMax= 4.10D-07

 SCF Done:  E(RHF) =  -2902.87299986     A.U. after   13 cycles
             Convg  =    0.3243D-08             -V/T =  2.0001
 KE= 2.902658775842D+03 PE=-7.241772175004D+03 EE= 1.285235324656D+03
 Leave Link  502 at Tue Dec 17 09:14:48 2019, MaxMem=  268435456 cpu:      99.9
 (Enter /home/matheus/.gaussian/g09/l801.exe)
 Windowed orbitals will be sorted by symmetry type.
 ExpMin= 2.53D-02 ExpMax= 1.17D+07 ExpMxC= 1.33D+04 IAcc=3 IRadAn=         5 AccDes= 0.00D+00
 HarFok:  IExCor=  205 AccDes= 0.00D+00 IRadAn=         5 IDoV=-2
 ScaDFX=  1.000000  1.000000  1.000000  1.000000
 DSYEVD returned Info=          93 IAlg= 4 N=    46 NDim=    46 NE2=     4547561 trying DSYEV.
 DSYEVD returned Info=          93 IAlg= 4 N=    46 NDim=    46 NE2=     4547561 trying DSYEV.
 Largest valence mixing into a core orbital is  1.45D-04
 Largest core mixing into a valence orbital is  2.62D-05
 Range of M.O.s used for correlation:    12   197
 NBasis=   197 NAE=    27 NBE=    27 NFC=    11 NFV=     0
 NROrb=    186 NOA=    16 NOB=    16 NVA=   170 NVB=   170

 **** Warning!!: The largest alpha MO coefficient is  0.16706402D+02

 Leave Link  801 at Tue Dec 17 09:14:48 2019, MaxMem=  268435456 cpu:       0.3
 (Enter /home/matheus/.gaussian/g09/l804.exe)
 Closed-shell transformation, MDV=   268435456 ITran=4 ISComp=1.
 Semi-Direct transformation.
 ModeAB=           2 MOrb=            16 LenV=     267323786
 LASXX=     48528660 LTotXX=    48528660 LenRXX=    48528660
 LTotAB=    49298776 MaxLAS=    78372960 LenRXY=    78372960
 NonZer=    97057320 LenScr=   146313216 LnRSAI=           0
 LnScr1=           0 LExtra=           0 Total=    273214836
 MaxDsk=          -1 SrtSym=           F ITran=            4
 DoSDTr:  NPSUse=  2
 JobTyp=0 Pass  1:  I=   1 to  16.
 (rs|ai) integrals will be sorted in core.
 Complete sort for first half transformation.
 First half transformation complete.
 Begin second half transformation for I=  10.
 Begin second half transformation for I=  10.
 Complete sort for second half transformation.
 Second half transformation complete.
 SymMOI:  orbitals are not symmetric.
 Spin components of T(2) and E(2):
     alpha-alpha T2 =       0.2615581562D-01 E2=     -0.1003730275D+00
     alpha-beta  T2 =       0.1423943969D+00 E2=     -0.5577436194D+00
     beta-beta   T2 =       0.2615581562D-01 E2=     -0.1003730275D+00
 ANorm=    0.1093026088D+01
 E2 =    -0.7584896745D+00 EUMP2 =    -0.29036314895301D+04
 Leave Link  804 at Tue Dec 17 09:15:11 2019, MaxMem=  268435456 cpu:      45.4
 (Enter /home/matheus/.gaussian/g09/l913.exe)
 CIDS:  MDV=   268435456.
 Frozen-core window:  NFC=  11 NFV=   0.
 IFCWin=0 IBDFC=1 NFBD=     0     0 NFCmp=     0     0 NFFFC=     0     0
 Using DD3R+UMP44R for 1st iteration, S=T.
 Using DD4RQ for 2nd and later iterations.
 Would need an additional       431206676 words for in-memory AO integral storage.
 MP4(SDTQ)
 =========
 DD1Dir will call FoFDir   1 times, MxPair=       272
 NAB=   136 NAA=     0 NBB=     0 NumPrc=  2.
 Integrals replicated using symmetry in FoFDir.
 MinBra= 0 MaxBra= 3 Meth= 1.
 IRaf=       0 NMat= 272 IRICut=     340 DoRegI=T DoRafI=T ISym2E= 2 JSym2E=2.
 MP4(D)= -0.14936547D-01
 MP4(S)= -0.65572541D-02
 MP4(R+Q)=  0.15601579D-01
 T4(AAA)= -0.10652886D-02
 T4(AAB)= -0.14350444D-01
 Time for triples=     1309.30 seconds.
 MP4(T)=   -0.30831466D-01
 E3=       -0.11049979D-01        EUMP3=      -0.29036425395D+04
 E4(DQ)=    0.66503274D-03        UMP4(DQ)=   -0.29036418745D+04
 E4(SDQ)=  -0.58922214D-02        UMP4(SDQ)=  -0.29036484317D+04
 E4(SDTQ)= -0.36723687D-01        UMP4(SDTQ)= -0.29036792632D+04
 VARIATIONAL ENERGIES WITH THE FIRST-ORDER WAVEFUNCTION:
 E(VAR1)=  -0.29035171245D+04     E(CISD,4)=  -0.29035163508D+04
 Largest amplitude= 4.52D-02
 Leave Link  913 at Tue Dec 17 09:26:53 2019, MaxMem=  268435456 cpu:    1400.5
 (Enter /home/matheus/.gaussian/g09/l601.exe)
 Copying SCF densities to generalized density rwf, IOpCl= 0 IROHF=0.

 **********************************************************************

            Population analysis using the SCF density.

 **********************************************************************

 Orbital symmetries:
       Occupied  (A) (A) (A) (A) (A) (A) (A) (A) (A) (A) (A) (A)
                 (A) (A) (A) (A) (A) (A) (A) (A) (A) (A) (A) (A)
                 (A) (A) (A)
       Virtual   (A) (A) (A) (A) (A) (A) (A) (A) (A) (A) (A) (A)
                 (A) (A) (A) (A) (A) (A) (A) (A) (A) (A) (A) (A)
                 (A) (A) (A) (A) (A) (A) (A) (A) (A) (A) (A) (A)
                 (A) (A) (A) (A) (A) (A) (A) (A) (A) (A) (A) (A)
                 (A) (A) (A) (A) (A) (A) (A) (A) (A) (A) (A) (A)
                 (A) (A) (A) (A) (A) (A) (A) (A) (A) (A) (A) (A)
                 (A) (A) (A) (A) (A) (A) (A) (A) (A) (A) (A) (A)
                 (A) (A) (A) (A) (A) (A) (A) (A) (A) (A) (A) (A)
                 (A) (A) (A) (A) (A) (A) (A) (A) (A) (A) (A) (A)
                 (A) (A) (A) (A) (A) (A) (A) (A) (A) (A) (A) (A)
                 (A) (A) (A) (A) (A) (A) (A) (A) (A) (A) (A) (A)
                 (A) (A) (A) (A) (A) (A) (A) (A) (A) (A) (A) (A)
                 (A) (A) (A) (A) (A) (A) (A) (A) (A) (A) (A) (A)
                 (A) (A) (A) (A) (A) (A) (A) (A) (A) (A) (A) (A)
                 (A) (A)
 The electronic state is 1-A.
 Alpha  occ. eigenvalues -- -520.19638 -69.93395 -63.04052 -63.04051 -63.04048
 Alpha  occ. eigenvalues --  -20.62883 -20.62696 -10.88061  -8.36277  -8.36264
 Alpha  occ. eigenvalues --   -8.36245  -3.85656  -3.85654  -3.85632  -3.85621
 Alpha  occ. eigenvalues --   -3.85616  -1.46822  -1.21616  -1.18731  -0.76433
 Alpha  occ. eigenvalues --   -0.64955  -0.59958  -0.57018  -0.55515  -0.54947
 Alpha  occ. eigenvalues --   -0.53844  -0.46508
 Alpha virt. eigenvalues --    0.03573   0.04588   0.08540   0.09437   0.11454
 Alpha virt. eigenvalues --    0.13364   0.14453   0.15940   0.18226   0.18922
 Alpha virt. eigenvalues --    0.19276   0.20872   0.22668   0.25893   0.26184
 Alpha virt. eigenvalues --    0.26935   0.28392   0.30827   0.34409   0.35250
 Alpha virt. eigenvalues --    0.35502   0.37405   0.40168   0.41118   0.42350
 Alpha virt. eigenvalues --    0.45449   0.47645   0.51354   0.56878   0.58245
 Alpha virt. eigenvalues --    0.63557   0.63818   0.65957   0.69196   0.72507
 Alpha virt. eigenvalues --    0.72910   0.75934   0.79012   0.80833   0.82244
 Alpha virt. eigenvalues --    0.82664   0.83298   0.85637   0.87861   0.89961
 Alpha virt. eigenvalues --    0.91656   0.92704   0.93936   0.96707   0.98281
 Alpha virt. eigenvalues --    0.99265   1.01052   1.02574   1.04793   1.07103
 Alpha virt. eigenvalues --    1.08436   1.10545   1.13005   1.13961   1.18283
 Alpha virt. eigenvalues --    1.20167   1.25978   1.26096   1.30220   1.31323
 Alpha virt. eigenvalues --    1.39080   1.44929   1.45358   1.49670   1.51584
 Alpha virt. eigenvalues --    1.57483   1.57788   1.60859   1.64767   1.69548
 Alpha virt. eigenvalues --    1.74351   1.80376   1.97433   2.03830   2.07837
 Alpha virt. eigenvalues --    2.14990   2.22937   2.24267   2.27217   2.30645
 Alpha virt. eigenvalues --    2.34331   2.36358   2.37196   2.42264   2.44532
 Alpha virt. eigenvalues --    2.46630   2.47789   2.48861   2.51467   2.52341
 Alpha virt. eigenvalues --    2.57296   2.59268   2.61566   2.64798   2.67706
 Alpha virt. eigenvalues --    2.69474   2.69818   2.73042   2.74275   2.76563
 Alpha virt. eigenvalues --    2.78123   2.81247   2.83210   2.88303   2.90027
 Alpha virt. eigenvalues --    2.93089   2.96389   2.99071   3.07891   3.09191
 Alpha virt. eigenvalues --    3.12359   3.21695   3.30325   3.30990   3.82905
 Alpha virt. eigenvalues --    3.87193   4.17310   4.21726   4.24216   4.28887
 Alpha virt. eigenvalues --    4.34603   4.40280   4.41731   4.43670   4.49670
 Alpha virt. eigenvalues --    4.66661   4.72920   4.87430   4.94590   4.97173
 Alpha virt. eigenvalues --    5.22939   5.26993   5.30403   5.32853   5.38577
 Alpha virt. eigenvalues --    5.42240   5.81652   6.17348   6.36339   6.42340
 Alpha virt. eigenvalues --    6.46202   6.67339   6.73696   6.77136   6.89799
 Alpha virt. eigenvalues --    7.02061   7.13908   7.18115   7.21211   7.22982
 Alpha virt. eigenvalues --    7.24511   7.25822   7.30021   7.31464   7.42572
 Alpha virt. eigenvalues --    7.53336   7.55488   7.61863   7.81602   7.91056
 Alpha virt. eigenvalues --    8.32879   8.42980   8.56236  14.59511  15.33635
          Condensed to atoms (all electrons):
              1          2          3          4          5
     1  O    8.145945  -0.100691   0.227010   0.008831  -0.019509
     2  O   -0.100691   8.145460   0.018184   0.236957  -0.013957
     3  H    0.227010   0.018184   0.503810  -0.008642  -0.001053
     4  H    0.008831   0.236957  -0.008642   0.499469  -0.010447
     5  Kr  -0.019509  -0.013957  -0.001053  -0.010447  36.031947
 Mulliken atomic charges:
              1
     1  O   -0.261586
     2  O   -0.285954
     3  H    0.260691
     4  H    0.273832
     5  Kr   0.013018
 Sum of Mulliken atomic charges =   0.00000
 Mulliken charges with hydrogens summed into heavy atoms:
              1
     1  O   -0.000896
     2  O   -0.012122
     5  Kr   0.013018
 Sum of Mulliken charges with hydrogens summed into heavy atoms =   0.00000
 Electronic spatial extent (au):  <R**2>=            477.5252
 Charge=              0.0000 electrons
 Dipole moment (field-independent basis, Debye):
    X=              3.2698    Y=             -0.1485    Z=              0.9260  Tot=              3.4016
 Quadrupole moment (field-independent basis, Debye-Ang):
   XX=            -38.7097   YY=            -27.9765   ZZ=            -29.7268
   XY=              0.5426   XZ=             -1.2426   YZ=             -1.2030
 Traceless Quadrupole moment (field-independent basis, Debye-Ang):
   XX=             -6.5720   YY=              4.1611   ZZ=              2.4109
   XY=              0.5426   XZ=             -1.2426   YZ=             -1.2030
 Octapole moment (field-independent basis, Debye-Ang**2):
  XXX=             43.8905  YYY=             -0.3858  ZZZ=              0.3284  XYY=              7.1616
  XXY=             -1.3248  XXZ=              0.7863  XZZ=              7.3362  YZZ=             -0.7759
  YYZ=              1.4278  XYZ=              1.6007
 Hexadecapole moment (field-independent basis, Debye-Ang**3):
 XXXX=           -459.5989 YYYY=            -62.3380 ZZZZ=            -28.7535 XXXY=              1.6881
 XXXZ=             -0.0977 YYYX=              1.0264 YYYZ=             -1.7020 ZZZX=             -0.8048
 ZZZY=             -0.9168 XXYY=            -85.4180 XXZZ=            -74.5267 YYZZ=            -16.3791
 XXYZ=             -2.1623 YYXZ=             -1.9204 ZZXY=              1.0889
 N-N= 1.510050746500D+02 E-N=-7.241772172723D+03  KE= 2.902658775842D+03
 Leave Link  601 at Tue Dec 17 09:26:53 2019, MaxMem=  268435456 cpu:       0.1
 (Enter /home/matheus/.gaussian/g09/l108.exe)
 Variable Step   Value    
 -------- ---- -----------
     1       1    5.858151
 Leave Link  108 at Tue Dec 17 09:26:53 2019, MaxMem=  268435456 cpu:       0.0
 (Enter /home/matheus/.gaussian/g09/l202.exe)
 ---------------------------------------------------------------------------------------------------
                            Z-MATRIX (ANGSTROMS AND DEGREES)
   CD    Cent   Atom    N1       Length/X        N2       Alpha/Y        N3        Beta/Z          J
 ---------------------------------------------------------------------------------------------------
      1      1  O        0   0.000000          0.000000          0.725000
      2      2  O        0   0.000000          0.000000         -0.725000
      3      3  H        0  -0.590542          0.703781          1.023510
      4      4  H        0   0.000000          0.918721         -1.023510
      5      5  Kr       0   0.000000          3.100000          0.000000
 ---------------------------------------------------------------------------------------------------
                         Z-Matrix orientation:                         
 ---------------------------------------------------------------------
 Center     Atomic      Atomic             Coordinates (Angstroms)
 Number     Number       Type             X           Y           Z
 ---------------------------------------------------------------------
      1          8           0        0.000000    0.000000    0.725000
      2          8           0        0.000000    0.000000   -0.725000
      3          1           0       -0.590542    0.703781    1.023510
      4          1           0        0.000000    0.918721   -1.023510
      5         36           0        0.000000    3.100000    0.000000
 ---------------------------------------------------------------------
                    Distance matrix (angstroms):
                    1          2          3          4          5
     1  O    0.000000
     2  O    1.450000   0.000000
     3  H    0.966000   1.975180   0.000000
     4  H    1.975180   0.966000   2.141316   0.000000
     5  Kr   3.183650   3.183650   2.671737   2.409472   0.000000
 Stoichiometry    H2KrO2
 Framework group  C1[X(H2KrO2)]
 Deg. of freedom     9
 Full point group                 C1      NOp   1
 RotChk:  IX=0 Diff= 3.15D-04
 Largest Abelian subgroup         C1      NOp   1
 Largest concise Abelian subgroup C1      NOp   1
                         Standard orientation:                         
 ---------------------------------------------------------------------
 Center     Atomic      Atomic             Coordinates (Angstroms)
 Number     Number       Type             X           Y           Z
 ---------------------------------------------------------------------
      1          8           0       -2.098204   -0.717435   -0.069128
      2          8           0       -2.094929    0.730039    0.016374
      3          1           0       -1.399560   -1.052135    0.507958
      4          1           0       -1.175562    1.025550    0.040751
      5         36           0        1.003338   -0.002062   -0.003519
 ---------------------------------------------------------------------
 Rotational constants (GHZ):     26.2250889      2.2264172      2.0576239
 Leave Link  202 at Tue Dec 17 09:26:53 2019, MaxMem=  268435456 cpu:       0.0
 (Enter /home/matheus/.gaussian/g09/l301.exe)
 Standard basis: Aug-CC-pVTZ (5D, 7F)
 Ernie: Thresh=  0.10000D-02 Tol=  0.10000D-05 Strict=F.
 Ernie:  38 primitive shells out of 205 were deleted.
 There are   197 symmetry adapted basis functions of A   symmetry.
 Integral buffers will be    131072 words long.
 Raffenetti 1 integral format.
 Two-electron integral symmetry is turned on.
   197 basis functions,   415 primitive gaussians,   229 cartesian basis functions
    27 alpha electrons       27 beta electrons
       nuclear repulsion energy       147.4332435839 Hartrees.
 IExCor=    0 DFT=F Ex=HF Corr=None ExCW=0 ScaHFX=  1.000000
 ScaDFX=  1.000000  1.000000  1.000000  1.000000 ScalE2=  1.000000  1.000000
 IRadAn=      5 IRanWt=     -1 IRanGd=            0 ICorTp=0
 NAtoms=    5 NActive=    5 NUniq=    5 SFac= 1.00D+00 NAtFMM=   60 NAOKFM=F Big=F
 Leave Link  301 at Tue Dec 17 09:26:53 2019, MaxMem=  268435456 cpu:       0.0
 (Enter /home/matheus/.gaussian/g09/l302.exe)
 NPDir=0 NMtPBC=     1 NCelOv=     1 NCel=       1 NClECP=     1 NCelD=      1
         NCelK=      1 NCelE2=     1 NClLst=     1 CellRange=     0.0.
 One-electron integrals computed using PRISM.
 NBasis=   197 RedAO= T  NBF=   197
 NBsUse=   197 1.00D-06 NBFU=   197
 Leave Link  302 at Tue Dec 17 09:26:53 2019, MaxMem=  268435456 cpu:       0.2
 (Enter /home/matheus/.gaussian/g09/l303.exe)
 DipDrv:  MaxL=1.
 Leave Link  303 at Tue Dec 17 09:26:53 2019, MaxMem=  268435456 cpu:       0.0
 (Enter /home/matheus/.gaussian/g09/l401.exe)
 Initial guess read from the read-write file.
 B after Tr=     0.000000    0.000000    0.000000
         Rot=    1.000000    0.000000    0.000000    0.000000 Ang=   0.00 deg.
 Guess basis will be translated and rotated to current coordinates.
 Initial guess orbital symmetries:
       Occupied  (A) (A) (A) (A) (A) (A) (A) (A) (A) (A) (A) (A)
                 (A) (A) (A) (A) (A) (A) (A) (A) (A) (A) (A) (A)
                 (A) (A) (A)
       Virtual   (A) (A) (A) (A) (A) (A) (A) (A) (A) (A) (A) (A)
                 (A) (A) (A) (A) (A) (A) (A) (A) (A) (A) (A) (A)
                 (A) (A) (A) (A) (A) (A) (A) (A) (A) (A) (A) (A)
                 (A) (A) (A) (A) (A) (A) (A) (A) (A) (A) (A) (A)
                 (A) (A) (A) (A) (A) (A) (A) (A) (A) (A) (A) (A)
                 (A) (A) (A) (A) (A) (A) (A) (A) (A) (A) (A) (A)
                 (A) (A) (A) (A) (A) (A) (A) (A) (A) (A) (A) (A)
                 (A) (A) (A) (A) (A) (A) (A) (A) (A) (A) (A) (A)
                 (A) (A) (A) (A) (A) (A) (A) (A) (A) (A) (A) (A)
                 (A) (A) (A) (A) (A) (A) (A) (A) (A) (A) (A) (A)
                 (A) (A) (A) (A) (A) (A) (A) (A) (A) (A) (A) (A)
                 (A) (A) (A) (A) (A) (A) (A) (A) (A) (A) (A) (A)
                 (A) (A) (A) (A) (A) (A) (A) (A) (A) (A) (A) (A)
                 (A) (A) (A) (A) (A) (A) (A) (A) (A) (A) (A) (A)
                 (A) (A)
 The electronic state of the initial guess is 1-A.
 Generating alternative initial guess.
 Harris functional with IExCor=  205 diagonalized for initial guess.
 ExpMin= 2.53D-02 ExpMax= 1.17D+07 ExpMxC= 1.33D+04 IAcc=3 IRadAn=         5 AccDes= 0.00D+00
 HarFok:  IExCor=  205 AccDes= 0.00D+00 IRadAn=         5 IDoV= 1
 ScaDFX=  1.000000  1.000000  1.000000  1.000000
 FoFCou: FMM=F IPFlag=           0 FMFlag=      100000 FMFlg1=           0
         NFxFlg=           0 DoJE=T BraDBF=F KetDBF=T FulRan=T
         Omega=  0.000000  0.000000  1.000000  0.000000  0.000000 ICntrl=     500 IOpCl=  0
         NMat0=    1 NMatS0=    1 NMatT0=    0 NMatD0=    1 NMtDS0=    0 NMtDT0=    0
         I1Cent=           4 NGrid=           0.
 Petite list used in FoFCou.
 Harris En= -2901.92902240796    
 Leave Link  401 at Tue Dec 17 09:26:54 2019, MaxMem=  268435456 cpu:       1.3
 (Enter /home/matheus/.gaussian/g09/l502.exe)
 Closed shell SCF:
 Requested convergence on RMS density matrix=1.00D-08 within 128 cycles.
 Requested convergence on MAX density matrix=1.00D-06.
 Requested convergence on             energy=1.00D-06.
 No special actions if energy rises.
 Using DIIS extrapolation, IDIIS=  1040.
 Integral symmetry usage will be decided dynamically.
 IEnd=      178489 IEndB=      178489 NGot=   268435456 MDV=   268326278
 LenX=   268326278 LenY=   268273396
 Fock matrices will be formed incrementally for  20 cycles.

 Cycle   1  Pass 0  IDiag  1:
 FoFCou: FMM=F IPFlag=           0 FMFlag=      100000 FMFlg1=           0
         NFxFlg=           0 DoJE=F BraDBF=F KetDBF=F FulRan=T
         Omega=  0.000000  0.000000  1.000000  0.000000  0.000000 ICntrl=       0 IOpCl=  0
         NMat0=    1 NMatS0=    1 NMatT0=    0 NMatD0=    1 NMtDS0=    0 NMtDT0=    0
         I1Cent=           0 NGrid=           0.
 Symmetry not used in FoFCou.
 E= -2902.87596579344    
 DIIS: error= 6.14D-04 at cycle   1 NSaved=   1.
 NSaved= 1 IEnMin= 1 EnMin= -2902.87596579344     IErMin= 1 ErrMin= 6.14D-04
 ErrMax= 6.14D-04 EMaxC= 1.00D-01 BMatC= 7.93D-05 BMatP= 7.93D-05
 IDIUse=3 WtCom= 9.94D-01 WtEn= 6.14D-03
 Coeff-Com:  0.100D+01
 Coeff-En:   0.100D+01
 Coeff:      0.100D+01
 Gap=     0.503 Goal=   None    Shift=    0.000
 RMSDP=7.18D-05 MaxDP=2.88D-03              OVMax= 2.89D-03

 Cycle   2  Pass 0  IDiag  1:
 RMSU=  5.07D-05    CP:  1.00D+00
 E= -2902.87605662443     Delta-E=       -0.000090830992 Rises=F Damp=F
 DIIS: error= 1.16D-04 at cycle   2 NSaved=   2.
 NSaved= 2 IEnMin= 2 EnMin= -2902.87605662443     IErMin= 2 ErrMin= 1.16D-04
 ErrMax= 1.16D-04 EMaxC= 1.00D-01 BMatC= 2.64D-06 BMatP= 7.93D-05
 IDIUse=3 WtCom= 9.99D-01 WtEn= 1.16D-03
 Coeff-Com: -0.707D-01 0.107D+01
 Coeff-En:   0.000D+00 0.100D+01
 Coeff:     -0.706D-01 0.107D+01
 Gap=     0.501 Goal=   None    Shift=    0.000
 RMSDP=1.27D-05 MaxDP=4.75D-04 DE=-9.08D-05 OVMax= 6.96D-04

 Cycle   3  Pass 0  IDiag  1:
 RMSU=  6.04D-06    CP:  1.00D+00  1.13D+00
 E= -2902.87606018549     Delta-E=       -0.000003561060 Rises=F Damp=F
 DIIS: error= 4.07D-05 at cycle   3 NSaved=   3.
 NSaved= 3 IEnMin= 3 EnMin= -2902.87606018549     IErMin= 3 ErrMin= 4.07D-05
 ErrMax= 4.07D-05 EMaxC= 1.00D-01 BMatC= 4.21D-07 BMatP= 2.64D-06
 IDIUse=1 WtCom= 1.00D+00 WtEn= 0.00D+00
 Coeff-Com: -0.425D-01 0.270D+00 0.773D+00
 Coeff:     -0.425D-01 0.270D+00 0.773D+00
 Gap=     0.502 Goal=   None    Shift=    0.000
 RMSDP=2.65D-06 MaxDP=6.92D-05 DE=-3.56D-06 OVMax= 1.56D-04

 Initial convergence to 1.0D-05 achieved.  Increase integral accuracy.
 Cycle   4  Pass 1  IDiag  1:
 E= -2902.87606056048     Delta-E=       -0.000000374989 Rises=F Damp=F
 DIIS: error= 1.12D-05 at cycle   1 NSaved=   1.
 NSaved= 1 IEnMin= 1 EnMin= -2902.87606056048     IErMin= 1 ErrMin= 1.12D-05
 ErrMax= 1.12D-05 EMaxC= 1.00D-01 BMatC= 2.68D-08 BMatP= 2.68D-08
 IDIUse=1 WtCom= 1.00D+00 WtEn= 0.00D+00
 Coeff-Com:  0.100D+01
 Coeff:      0.100D+01
 Gap=     0.501 Goal=   None    Shift=    0.000
 RMSDP=2.65D-06 MaxDP=6.92D-05 DE=-3.75D-07 OVMax= 6.02D-05

 Cycle   5  Pass 1  IDiag  1:
 RMSU=  7.50D-07    CP:  1.00D+00
 E= -2902.87606060052     Delta-E=       -0.000000040047 Rises=F Damp=F
 DIIS: error= 4.91D-06 at cycle   2 NSaved=   2.
 NSaved= 2 IEnMin= 2 EnMin= -2902.87606060052     IErMin= 2 ErrMin= 4.91D-06
 ErrMax= 4.91D-06 EMaxC= 1.00D-01 BMatC= 9.01D-09 BMatP= 2.68D-08
 IDIUse=1 WtCom= 1.00D+00 WtEn= 0.00D+00
 Coeff-Com:  0.288D+00 0.712D+00
 Coeff:      0.288D+00 0.712D+00
 Gap=     0.502 Goal=   None    Shift=    0.000
 RMSDP=3.07D-07 MaxDP=9.70D-06 DE=-4.00D-08 OVMax= 3.22D-05

 Cycle   6  Pass 1  IDiag  1:
 RMSU=  2.01D-07    CP:  1.00D+00  1.11D+00
 E= -2902.87606060989     Delta-E=       -0.000000009369 Rises=F Damp=F
 DIIS: error= 2.88D-06 at cycle   3 NSaved=   3.
 NSaved= 3 IEnMin= 3 EnMin= -2902.87606060989     IErMin= 3 ErrMin= 2.88D-06
 ErrMax= 2.88D-06 EMaxC= 1.00D-01 BMatC= 1.54D-09 BMatP= 9.01D-09
 IDIUse=1 WtCom= 1.00D+00 WtEn= 0.00D+00
 Coeff-Com: -0.277D+00-0.525D-01 0.133D+01
 Coeff:     -0.277D+00-0.525D-01 0.133D+01
 Gap=     0.502 Goal=   None    Shift=    0.000
 RMSDP=3.71D-07 MaxDP=9.81D-06 DE=-9.37D-09 OVMax= 2.35D-05

 Cycle   7  Pass 1  IDiag  1:
 RMSU=  1.04D-07    CP:  1.00D+00  1.42D+00  1.33D+00
 E= -2902.87606061367     Delta-E=       -0.000000003782 Rises=F Damp=F
 DIIS: error= 6.21D-07 at cycle   4 NSaved=   4.
 NSaved= 4 IEnMin= 4 EnMin= -2902.87606061367     IErMin= 4 ErrMin= 6.21D-07
 ErrMax= 6.21D-07 EMaxC= 1.00D-01 BMatC= 1.17D-10 BMatP= 1.54D-09
 IDIUse=1 WtCom= 1.00D+00 WtEn= 0.00D+00
 Coeff-Com: -0.934D-01-0.556D-01 0.352D+00 0.797D+00
 Coeff:     -0.934D-01-0.556D-01 0.352D+00 0.797D+00
 Gap=     0.502 Goal=   None    Shift=    0.000
 RMSDP=6.48D-08 MaxDP=1.96D-06 DE=-3.78D-09 OVMax= 4.83D-06

 Cycle   8  Pass 1  IDiag  1:
 RMSU=  2.95D-08    CP:  1.00D+00  1.44D+00  1.38D+00  1.28D+00
 E= -2902.87606061386     Delta-E=       -0.000000000185 Rises=F Damp=F
 DIIS: error= 2.03D-07 at cycle   5 NSaved=   5.
 NSaved= 5 IEnMin= 5 EnMin= -2902.87606061386     IErMin= 5 ErrMin= 2.03D-07
 ErrMax= 2.03D-07 EMaxC= 1.00D-01 BMatC= 1.42D-11 BMatP= 1.17D-10
 IDIUse=1 WtCom= 1.00D+00 WtEn= 0.00D+00
 Coeff-Com:  0.632D-01 0.246D-01-0.295D+00-0.125D+00 0.133D+01
 Coeff:      0.632D-01 0.246D-01-0.295D+00-0.125D+00 0.133D+01
 Gap=     0.502 Goal=   None    Shift=    0.000
 RMSDP=4.77D-08 MaxDP=1.11D-06 DE=-1.85D-10 OVMax= 3.31D-06

 Cycle   9  Pass 1  IDiag  1:
 RMSU=  9.33D-09    CP:  1.00D+00  1.44D+00  1.38D+00  1.57D+00  1.35D+00
 E= -2902.87606061390     Delta-E=       -0.000000000044 Rises=F Damp=F
 DIIS: error= 6.06D-08 at cycle   6 NSaved=   6.
 NSaved= 6 IEnMin= 6 EnMin= -2902.87606061390     IErMin= 6 ErrMin= 6.06D-08
 ErrMax= 6.06D-08 EMaxC= 1.00D-01 BMatC= 9.09D-13 BMatP= 1.42D-11
 IDIUse=1 WtCom= 1.00D+00 WtEn= 0.00D+00
 Coeff-Com: -0.328D-02 0.117D-02 0.160D-01-0.262D-01-0.163D+00 0.118D+01
 Coeff:     -0.328D-02 0.117D-02 0.160D-01-0.262D-01-0.163D+00 0.118D+01
 Gap=     0.502 Goal=   None    Shift=    0.000
 RMSDP=9.04D-09 MaxDP=1.81D-07 DE=-4.41D-11 OVMax= 9.27D-07

 SCF Done:  E(RHF) =  -2902.87606061     A.U. after    9 cycles
             Convg  =    0.9037D-08             -V/T =  2.0001
 KE= 2.902637841557D+03 PE=-7.234643888454D+03 EE= 1.281696742699D+03
 Leave Link  502 at Tue Dec 17 09:27:28 2019, MaxMem=  268435456 cpu:      68.6
 (Enter /home/matheus/.gaussian/g09/l801.exe)
 Windowed orbitals will be sorted by symmetry type.
 ExpMin= 2.53D-02 ExpMax= 1.17D+07 ExpMxC= 1.33D+04 IAcc=3 IRadAn=         5 AccDes= 0.00D+00
 HarFok:  IExCor=  205 AccDes= 0.00D+00 IRadAn=         5 IDoV=-2
 ScaDFX=  1.000000  1.000000  1.000000  1.000000
 DSYEVD returned Info=         119 IAlg= 4 N=    59 NDim=    59 NE2=     4547561 trying DSYEV.
 Largest valence mixing into a core orbital is  1.45D-04
 Largest core mixing into a valence orbital is  2.63D-05
 Range of M.O.s used for correlation:    12   197
 NBasis=   197 NAE=    27 NBE=    27 NFC=    11 NFV=     0
 NROrb=    186 NOA=    16 NOB=    16 NVA=   170 NVB=   170

 **** Warning!!: The largest alpha MO coefficient is  0.16463396D+02

 Leave Link  801 at Tue Dec 17 09:27:28 2019, MaxMem=  268435456 cpu:       0.2
 (Enter /home/matheus/.gaussian/g09/l804.exe)
 Closed-shell transformation, MDV=   268435456 ITran=4 ISComp=1.
 Semi-Direct transformation.
 ModeAB=           2 MOrb=            16 LenV=     267325136
 LASXX=     48528660 LTotXX=    48528660 LenRXX=    48528660
 LTotAB=    49298776 MaxLAS=    78372960 LenRXY=    78372960
 NonZer=    97057320 LenScr=   146313216 LnRSAI=           0
 LnScr1=           0 LExtra=           0 Total=    273214836
 MaxDsk=          -1 SrtSym=           F ITran=            4
 DoSDTr:  NPSUse=  2
 JobTyp=0 Pass  1:  I=   1 to  16.
 (rs|ai) integrals will be sorted in core.
 Complete sort for first half transformation.
 First half transformation complete.
 Begin second half transformation for I=  10.
 Begin second half transformation for I=  10.
 Complete sort for second half transformation.
 Second half transformation complete.
 SymMOI:  orbitals are not symmetric.
 Spin components of T(2) and E(2):
     alpha-alpha T2 =       0.2606946555D-01 E2=     -0.1000736932D+00
     alpha-beta  T2 =       0.1422835198D+00 E2=     -0.5570579017D+00
     beta-beta   T2 =       0.2606946555D-01 E2=     -0.1000736932D+00
 ANorm=    0.1092896359D+01
 E2 =    -0.7572052881D+00 EUMP2 =    -0.29036332659020D+04
 Leave Link  804 at Tue Dec 17 09:27:51 2019, MaxMem=  268435456 cpu:      46.1
 (Enter /home/matheus/.gaussian/g09/l913.exe)
 CIDS:  MDV=   268435456.
 Frozen-core window:  NFC=  11 NFV=   0.
 IFCWin=0 IBDFC=1 NFBD=     0     0 NFCmp=     0     0 NFFFC=     0     0
 Using DD3R+UMP44R for 1st iteration, S=T.
 Using DD4RQ for 2nd and later iterations.
 Would need an additional       431206676 words for in-memory AO integral storage.
 MP4(SDTQ)
 =========
 DD1Dir will call FoFDir   1 times, MxPair=       272
 NAB=   136 NAA=     0 NBB=     0 NumPrc=  2.
 Integrals replicated using symmetry in FoFDir.
 MinBra= 0 MaxBra= 3 Meth= 1.
 IRaf=       0 NMat= 272 IRICut=     340 DoRegI=T DoRafI=T ISym2E= 2 JSym2E=2.
 MP4(D)= -0.14936816D-01
 MP4(S)= -0.65214878D-02
 MP4(R+Q)=  0.15512654D-01
 T4(AAA)= -0.10536200D-02
 T4(AAB)= -0.14275478D-01
 Time for triples=     1302.03 seconds.
 MP4(T)=   -0.30658197D-01
 E3=       -0.11215302D-01        EUMP3=      -0.29036444812D+04
 E4(DQ)=    0.57583716D-03        UMP4(DQ)=   -0.29036439054D+04
 E4(SDQ)=  -0.59456507D-02        UMP4(SDQ)=  -0.29036504269D+04
 E4(SDTQ)= -0.36603847D-01        UMP4(SDTQ)= -0.29036810851D+04
 VARIATIONAL ENERGIES WITH THE FIRST-ORDER WAVEFUNCTION:
 E(VAR1)=  -0.29035194013D+04     E(CISD,4)=  -0.29035187218D+04
 Largest amplitude= 4.62D-02
 Leave Link  913 at Tue Dec 17 09:39:29 2019, MaxMem=  268435456 cpu:    1394.3
 (Enter /home/matheus/.gaussian/g09/l108.exe)
 Variable Step   Value    
 -------- ---- -----------
     1       2    6.047124
 Leave Link  108 at Tue Dec 17 09:39:29 2019, MaxMem=  268435456 cpu:       0.0
 (Enter /home/matheus/.gaussian/g09/l202.exe)
 ---------------------------------------------------------------------------------------------------
                            Z-MATRIX (ANGSTROMS AND DEGREES)
   CD    Cent   Atom    N1       Length/X        N2       Alpha/Y        N3        Beta/Z          J
 ---------------------------------------------------------------------------------------------------
      1      1  O        0   0.000000          0.000000          0.725000
      2      2  O        0   0.000000          0.000000         -0.725000
      3      3  H        0  -0.590542          0.703781          1.023510
      4      4  H        0   0.000000          0.918721         -1.023510
      5      5  Kr       0   0.000000          3.200000          0.000000
 ---------------------------------------------------------------------------------------------------
                         Z-Matrix orientation:                         
 ---------------------------------------------------------------------
 Center     Atomic      Atomic             Coordinates (Angstroms)
 Number     Number       Type             X           Y           Z
 ---------------------------------------------------------------------
      1          8           0        0.000000    0.000000    0.725000
      2          8           0        0.000000    0.000000   -0.725000
      3          1           0       -0.590542    0.703781    1.023510
      4          1           0        0.000000    0.918721   -1.023510
      5         36           0        0.000000    3.200000    0.000000
 ---------------------------------------------------------------------
                    Distance matrix (angstroms):
                    1          2          3          4          5
     1  O    0.000000
     2  O    1.450000   0.000000
     3  H    0.966000   1.975180   0.000000
     4  H    1.975180   0.966000   2.141316   0.000000
     5  Kr   3.281101   3.281101   2.761779   2.500362   0.000000
 Stoichiometry    H2KrO2
 Framework group  C1[X(H2KrO2)]
 Deg. of freedom     9
 Full point group                 C1      NOp   1
 RotChk:  IX=0 Diff= 2.93D-04
 Largest Abelian subgroup         C1      NOp   1
 Largest concise Abelian subgroup C1      NOp   1
                         Standard orientation:                         
 ---------------------------------------------------------------------
 Center     Atomic      Atomic             Coordinates (Angstroms)
 Number     Number       Type             X           Y           Z
 ---------------------------------------------------------------------
      1          8           0       -2.164760   -0.717610   -0.069346
      2          8           0       -2.161711    0.729864    0.016159
      3          1           0       -1.465987   -1.052197    0.507650
      4          1           0       -1.242390    1.025526    0.040419
      5         36           0        1.036671   -0.001982   -0.003405
 ---------------------------------------------------------------------
 Rotational constants (GHZ):     26.2252031      2.0883037      1.9391001
 Leave Link  202 at Tue Dec 17 09:39:29 2019, MaxMem=  268435456 cpu:       0.0
 (Enter /home/matheus/.gaussian/g09/l301.exe)
 Standard basis: Aug-CC-pVTZ (5D, 7F)
 Ernie: Thresh=  0.10000D-02 Tol=  0.10000D-05 Strict=F.
 Ernie:  38 primitive shells out of 205 were deleted.
 There are   197 symmetry adapted basis functions of A   symmetry.
 Integral buffers will be    131072 words long.
 Raffenetti 1 integral format.
 Two-electron integral symmetry is turned on.
   197 basis functions,   415 primitive gaussians,   229 cartesian basis functions
    27 alpha electrons       27 beta electrons
       nuclear repulsion energy       144.0697749215 Hartrees.
 IExCor=    0 DFT=F Ex=HF Corr=None ExCW=0 ScaHFX=  1.000000
 ScaDFX=  1.000000  1.000000  1.000000  1.000000 ScalE2=  1.000000  1.000000
 IRadAn=      5 IRanWt=     -1 IRanGd=            0 ICorTp=0
 NAtoms=    5 NActive=    5 NUniq=    5 SFac= 1.00D+00 NAtFMM=   60 NAOKFM=F Big=F
 Leave Link  301 at Tue Dec 17 09:39:29 2019, MaxMem=  268435456 cpu:       0.0
 (Enter /home/matheus/.gaussian/g09/l302.exe)
 NPDir=0 NMtPBC=     1 NCelOv=     1 NCel=       1 NClECP=     1 NCelD=      1
         NCelK=      1 NCelE2=     1 NClLst=     1 CellRange=     0.0.
 One-electron integrals computed using PRISM.
 NBasis=   197 RedAO= T  NBF=   197
 NBsUse=   197 1.00D-06 NBFU=   197
 Leave Link  302 at Tue Dec 17 09:39:29 2019, MaxMem=  268435456 cpu:       0.2
 (Enter /home/matheus/.gaussian/g09/l303.exe)
 DipDrv:  MaxL=1.
 Leave Link  303 at Tue Dec 17 09:39:29 2019, MaxMem=  268435456 cpu:       0.0
 (Enter /home/matheus/.gaussian/g09/l401.exe)
 Initial guess read from the read-write file.
 B after Tr=     0.000000    0.000000    0.000000
         Rot=    1.000000    0.000000    0.000000    0.000000 Ang=   0.00 deg.
 Guess basis will be translated and rotated to current coordinates.
 Initial guess orbital symmetries:
       Occupied  (A) (A) (A) (A) (A) (A) (A) (A) (A) (A) (A) (A)
                 (A) (A) (A) (A) (A) (A) (A) (A) (A) (A) (A) (A)
                 (A) (A) (A)
       Virtual   (A) (A) (A) (A) (A) (A) (A) (A) (A) (A) (A) (A)
                 (A) (A) (A) (A) (A) (A) (A) (A) (A) (A) (A) (A)
                 (A) (A) (A) (A) (A) (A) (A) (A) (A) (A) (A) (A)
                 (A) (A) (A) (A) (A) (A) (A) (A) (A) (A) (A) (A)
                 (A) (A) (A) (A) (A) (A) (A) (A) (A) (A) (A) (A)
                 (A) (A) (A) (A) (A) (A) (A) (A) (A) (A) (A) (A)
                 (A) (A) (A) (A) (A) (A) (A) (A) (A) (A) (A) (A)
                 (A) (A) (A) (A) (A) (A) (A) (A) (A) (A) (A) (A)
                 (A) (A) (A) (A) (A) (A) (A) (A) (A) (A) (A) (A)
                 (A) (A) (A) (A) (A) (A) (A) (A) (A) (A) (A) (A)
                 (A) (A) (A) (A) (A) (A) (A) (A) (A) (A) (A) (A)
                 (A) (A) (A) (A) (A) (A) (A) (A) (A) (A) (A) (A)
                 (A) (A) (A) (A) (A) (A) (A) (A) (A) (A) (A) (A)
                 (A) (A) (A) (A) (A) (A) (A) (A) (A) (A) (A) (A)
                 (A) (A)
 The electronic state of the initial guess is 1-A.
 Generating alternative initial guess.
 Harris functional with IExCor=  205 diagonalized for initial guess.
 ExpMin= 2.53D-02 ExpMax= 1.17D+07 ExpMxC= 1.33D+04 IAcc=3 IRadAn=         5 AccDes= 0.00D+00
 HarFok:  IExCor=  205 AccDes= 0.00D+00 IRadAn=         5 IDoV= 1
 ScaDFX=  1.000000  1.000000  1.000000  1.000000
 FoFCou: FMM=F IPFlag=           0 FMFlag=      100000 FMFlg1=           0
         NFxFlg=           0 DoJE=T BraDBF=F KetDBF=T FulRan=T
         Omega=  0.000000  0.000000  1.000000  0.000000  0.000000 ICntrl=     500 IOpCl=  0
         NMat0=    1 NMatS0=    1 NMatT0=    0 NMatD0=    1 NMtDS0=    0 NMtDT0=    0
         I1Cent=           4 NGrid=           0.
 Petite list used in FoFCou.
 Harris En= -2901.93017254311    
 Leave Link  401 at Tue Dec 17 09:39:30 2019, MaxMem=  268435456 cpu:       1.2
 (Enter /home/matheus/.gaussian/g09/l502.exe)
 Closed shell SCF:
 Requested convergence on RMS density matrix=1.00D-08 within 128 cycles.
 Requested convergence on MAX density matrix=1.00D-06.
 Requested convergence on             energy=1.00D-06.
 No special actions if energy rises.
 Using DIIS extrapolation, IDIIS=  1040.
 Integral symmetry usage will be decided dynamically.
 IEnd=      178489 IEndB=      178489 NGot=   268435456 MDV=   268326278
 LenX=   268326278 LenY=   268273396
 Fock matrices will be formed incrementally for  20 cycles.

 Cycle   1  Pass 0  IDiag  1:
 FoFCou: FMM=F IPFlag=           0 FMFlag=      100000 FMFlg1=           0
         NFxFlg=           0 DoJE=F BraDBF=F KetDBF=F FulRan=T
         Omega=  0.000000  0.000000  1.000000  0.000000  0.000000 ICntrl=       0 IOpCl=  0
         NMat0=    1 NMatS0=    1 NMatT0=    0 NMatD0=    1 NMtDS0=    0 NMtDT0=    0
         I1Cent=           0 NGrid=           0.
 Symmetry not used in FoFCou.
 E= -2902.87817393142    
 DIIS: error= 5.50D-04 at cycle   1 NSaved=   1.
 NSaved= 1 IEnMin= 1 EnMin= -2902.87817393142     IErMin= 1 ErrMin= 5.50D-04
 ErrMax= 5.50D-04 EMaxC= 1.00D-01 BMatC= 5.89D-05 BMatP= 5.89D-05
 IDIUse=3 WtCom= 9.95D-01 WtEn= 5.50D-03
 Coeff-Com:  0.100D+01
 Coeff-En:   0.100D+01
 Coeff:      0.100D+01
 Gap=     0.504 Goal=   None    Shift=    0.000
 RMSDP=6.22D-05 MaxDP=2.10D-03              OVMax= 2.37D-03

 Cycle   2  Pass 0  IDiag  1:
 RMSU=  4.40D-05    CP:  1.00D+00
 E= -2902.87824194809     Delta-E=       -0.000068016664 Rises=F Damp=F
 DIIS: error= 9.03D-05 at cycle   2 NSaved=   2.
 NSaved= 2 IEnMin= 2 EnMin= -2902.87824194809     IErMin= 2 ErrMin= 9.03D-05
 ErrMax= 9.03D-05 EMaxC= 1.00D-01 BMatC= 1.77D-06 BMatP= 5.89D-05
 IDIUse=1 WtCom= 1.00D+00 WtEn= 0.00D+00
 Coeff-Com: -0.782D-01 0.108D+01
 Coeff:     -0.782D-01 0.108D+01
 Gap=     0.502 Goal=   None    Shift=    0.000
 RMSDP=1.09D-05 MaxDP=3.98D-04 DE=-6.80D-05 OVMax= 5.55D-04

 Cycle   3  Pass 0  IDiag  1:
 RMSU=  5.11D-06    CP:  1.00D+00  1.13D+00
 E= -2902.87824451428     Delta-E=       -0.000002566190 Rises=F Damp=F
 DIIS: error= 3.34D-05 at cycle   3 NSaved=   3.
 NSaved= 3 IEnMin= 3 EnMin= -2902.87824451428     IErMin= 3 ErrMin= 3.34D-05
 ErrMax= 3.34D-05 EMaxC= 1.00D-01 BMatC= 2.54D-07 BMatP= 1.77D-06
 IDIUse=1 WtCom= 1.00D+00 WtEn= 0.00D+00
 Coeff-Com: -0.393D-01 0.255D+00 0.784D+00
 Coeff:     -0.393D-01 0.255D+00 0.784D+00
 Gap=     0.502 Goal=   None    Shift=    0.000
 RMSDP=2.20D-06 MaxDP=5.43D-05 DE=-2.57D-06 OVMax= 1.30D-04

 Initial convergence to 1.0D-05 achieved.  Increase integral accuracy.
 Cycle   4  Pass 1  IDiag  1:
 E= -2902.87824475287     Delta-E=       -0.000000238595 Rises=F Damp=F
 DIIS: error= 9.10D-06 at cycle   1 NSaved=   1.
 NSaved= 1 IEnMin= 1 EnMin= -2902.87824475287     IErMin= 1 ErrMin= 9.10D-06
 ErrMax= 9.10D-06 EMaxC= 1.00D-01 BMatC= 2.05D-08 BMatP= 2.05D-08
 IDIUse=1 WtCom= 1.00D+00 WtEn= 0.00D+00
 Coeff-Com:  0.100D+01
 Coeff:      0.100D+01
 Gap=     0.502 Goal=   None    Shift=    0.000
 RMSDP=2.20D-06 MaxDP=5.43D-05 DE=-2.39D-07 OVMax= 5.05D-05

 Cycle   5  Pass 1  IDiag  1:
 RMSU=  6.68D-07    CP:  1.00D+00
 E= -2902.87824478206     Delta-E=       -0.000000029192 Rises=F Damp=F
 DIIS: error= 5.09D-06 at cycle   2 NSaved=   2.
 NSaved= 2 IEnMin= 2 EnMin= -2902.87824478206     IErMin= 2 ErrMin= 5.09D-06
 ErrMax= 5.09D-06 EMaxC= 1.00D-01 BMatC= 7.28D-09 BMatP= 2.05D-08
 IDIUse=1 WtCom= 1.00D+00 WtEn= 0.00D+00
 Coeff-Com:  0.307D+00 0.693D+00
 Coeff:      0.307D+00 0.693D+00
 Gap=     0.502 Goal=   None    Shift=    0.000
 RMSDP=2.65D-07 MaxDP=8.40D-06 DE=-2.92D-08 OVMax= 2.80D-05

 Cycle   6  Pass 1  IDiag  1:
 RMSU=  1.76D-07    CP:  1.00D+00  1.10D+00
 E= -2902.87824478924     Delta-E=       -0.000000007176 Rises=F Damp=F
 DIIS: error= 2.29D-06 at cycle   3 NSaved=   3.
 NSaved= 3 IEnMin= 3 EnMin= -2902.87824478924     IErMin= 3 ErrMin= 2.29D-06
 ErrMax= 2.29D-06 EMaxC= 1.00D-01 BMatC= 1.10D-09 BMatP= 7.28D-09
 IDIUse=1 WtCom= 1.00D+00 WtEn= 0.00D+00
 Coeff-Com: -0.278D+00-0.799D-01 0.136D+01
 Coeff:     -0.278D+00-0.799D-01 0.136D+01
 Gap=     0.502 Goal=   None    Shift=    0.000
 RMSDP=3.20D-07 MaxDP=8.72D-06 DE=-7.18D-09 OVMax= 2.00D-05

 Cycle   7  Pass 1  IDiag  1:
 RMSU=  8.91D-08    CP:  1.00D+00  1.39D+00  1.34D+00
 E= -2902.87824479200     Delta-E=       -0.000000002763 Rises=F Damp=F
 DIIS: error= 5.77D-07 at cycle   4 NSaved=   4.
 NSaved= 4 IEnMin= 4 EnMin= -2902.87824479200     IErMin= 4 ErrMin= 5.77D-07
 ErrMax= 5.77D-07 EMaxC= 1.00D-01 BMatC= 8.56D-11 BMatP= 1.10D-09
 IDIUse=1 WtCom= 1.00D+00 WtEn= 0.00D+00
 Coeff-Com: -0.968D-01-0.625D-01 0.370D+00 0.789D+00
 Coeff:     -0.968D-01-0.625D-01 0.370D+00 0.789D+00
 Gap=     0.502 Goal=   None    Shift=    0.000
 RMSDP=5.45D-08 MaxDP=1.68D-06 DE=-2.76D-09 OVMax= 3.96D-06

 Cycle   8  Pass 1  IDiag  1:
 RMSU=  2.53D-08    CP:  1.00D+00  1.41D+00  1.38D+00  1.27D+00
 E= -2902.87824479212     Delta-E=       -0.000000000112 Rises=F Damp=F
 DIIS: error= 1.94D-07 at cycle   5 NSaved=   5.
 NSaved= 5 IEnMin= 5 EnMin= -2902.87824479212     IErMin= 5 ErrMin= 1.94D-07
 ErrMax= 1.94D-07 EMaxC= 1.00D-01 BMatC= 9.59D-12 BMatP= 8.56D-11
 IDIUse=1 WtCom= 1.00D+00 WtEn= 0.00D+00
 Coeff-Com:  0.665D-01 0.321D-01-0.310D+00-0.154D+00 0.137D+01
 Coeff:      0.665D-01 0.321D-01-0.310D+00-0.154D+00 0.137D+01
 Gap=     0.502 Goal=   None    Shift=    0.000
 RMSDP=4.11D-08 MaxDP=9.58D-07 DE=-1.12D-10 OVMax= 2.76D-06

 Cycle   9  Pass 1  IDiag  1:
 RMSU=  7.68D-09    CP:  1.00D+00  1.41D+00  1.38D+00  1.57D+00  1.37D+00
 E= -2902.87824479214     Delta-E=       -0.000000000025 Rises=F Damp=F
 DIIS: error= 4.94D-08 at cycle   6 NSaved=   6.
 NSaved= 6 IEnMin= 6 EnMin= -2902.87824479214     IErMin= 6 ErrMin= 4.94D-08
 ErrMax= 4.94D-08 EMaxC= 1.00D-01 BMatC= 5.34D-13 BMatP= 9.59D-12
 IDIUse=1 WtCom= 1.00D+00 WtEn= 0.00D+00
 Coeff-Com: -0.142D-01-0.460D-02 0.663D-01 0.534D-02-0.370D+00 0.132D+01
 Coeff:     -0.142D-01-0.460D-02 0.663D-01 0.534D-02-0.370D+00 0.132D+01
 Gap=     0.502 Goal=   None    Shift=    0.000
 RMSDP=7.68D-09 MaxDP=1.59D-07 DE=-2.55D-11 OVMax= 7.59D-07

 SCF Done:  E(RHF) =  -2902.87824479     A.U. after    9 cycles
             Convg  =    0.7681D-08             -V/T =  2.0001
 KE= 2.902622318070D+03 PE=-7.227937862862D+03 EE= 1.278367525078D+03
 Leave Link  502 at Tue Dec 17 09:40:03 2019, MaxMem=  268435456 cpu:      66.3
 (Enter /home/matheus/.gaussian/g09/l801.exe)
 Windowed orbitals will be sorted by symmetry type.
 ExpMin= 2.53D-02 ExpMax= 1.17D+07 ExpMxC= 1.33D+04 IAcc=3 IRadAn=         5 AccDes= 0.00D+00
 HarFok:  IExCor=  205 AccDes= 0.00D+00 IRadAn=         5 IDoV=-2
 ScaDFX=  1.000000  1.000000  1.000000  1.000000
 DSYEVD returned Info=          93 IAlg= 4 N=    46 NDim=    46 NE2=     4547561 trying DSYEV.
 DSYEVD returned Info=          89 IAlg= 4 N=    59 NDim=    59 NE2=     4547561 trying DSYEV.
 Largest valence mixing into a core orbital is  1.45D-04
 Largest core mixing into a valence orbital is  2.63D-05
 Range of M.O.s used for correlation:    12   197
 NBasis=   197 NAE=    27 NBE=    27 NFC=    11 NFV=     0
 NROrb=    186 NOA=    16 NOB=    16 NVA=   170 NVB=   170

 **** Warning!!: The largest alpha MO coefficient is  0.16674449D+02

 Leave Link  801 at Tue Dec 17 09:40:03 2019, MaxMem=  268435456 cpu:       0.2
 (Enter /home/matheus/.gaussian/g09/l804.exe)
 Closed-shell transformation, MDV=   268435456 ITran=4 ISComp=1.
 Semi-Direct transformation.
 ModeAB=           2 MOrb=            16 LenV=     267326324
 LASXX=     48528660 LTotXX=    48528660 LenRXX=    48528660
 LTotAB=    49298776 MaxLAS=    78372960 LenRXY=    78372960
 NonZer=    97057320 LenScr=   146313216 LnRSAI=           0
 LnScr1=           0 LExtra=           0 Total=    273214836
 MaxDsk=          -1 SrtSym=           F ITran=            4
 DoSDTr:  NPSUse=  2
 JobTyp=0 Pass  1:  I=   1 to  16.
 (rs|ai) integrals will be sorted in core.
 Complete sort for first half transformation.
 First half transformation complete.
 Begin second half transformation for I=  10.
 Begin second half transformation for I=  10.
 Complete sort for second half transformation.
 Second half transformation complete.
 SymMOI:  orbitals are not symmetric.
 Spin components of T(2) and E(2):
     alpha-alpha T2 =       0.2599559048D-01 E2=     -0.9982061850D-01
     alpha-beta  T2 =       0.1421835722D+00 E2=     -0.5564680862D+00
     beta-beta   T2 =       0.2599559048D-01 E2=     -0.9982061850D-01
 ANorm=    0.1092783031D+01
 E2 =    -0.7561093232D+00 EUMP2 =    -0.29036343541153D+04
 Leave Link  804 at Tue Dec 17 09:40:26 2019, MaxMem=  268435456 cpu:      45.1
 (Enter /home/matheus/.gaussian/g09/l913.exe)
 CIDS:  MDV=   268435456.
 Frozen-core window:  NFC=  11 NFV=   0.
 IFCWin=0 IBDFC=1 NFBD=     0     0 NFCmp=     0     0 NFFFC=     0     0
 Using DD3R+UMP44R for 1st iteration, S=T.
 Using DD4RQ for 2nd and later iterations.
 Would need an additional       431206676 words for in-memory AO integral storage.
 MP4(SDTQ)
 =========
 DD1Dir will call FoFDir   1 times, MxPair=       272
 NAB=   136 NAA=     0 NBB=     0 NumPrc=  2.
 Integrals replicated using symmetry in FoFDir.
 MinBra= 0 MaxBra= 3 Meth= 1.
 IRaf=       0 NMat= 272 IRICut=     340 DoRegI=T DoRafI=T ISym2E= 2 JSym2E=2.
 MP4(D)= -0.14937234D-01
 MP4(S)= -0.64908565D-02
 MP4(R+Q)=  0.15436458D-01
 T4(AAA)= -0.10437116D-02
 T4(AAB)= -0.14211525D-01
 Time for triples=     1296.22 seconds.
 MP4(T)=   -0.30510472D-01
 E3=       -0.11345623D-01        EUMP3=      -0.29036456997D+04
 E4(DQ)=    0.49922429D-03        UMP4(DQ)=   -0.29036452005D+04
 E4(SDQ)=  -0.59916322D-02        UMP4(SDQ)=  -0.29036516914D+04
 E4(SDTQ)= -0.36502105D-01        UMP4(SDTQ)= -0.29036822018D+04
 VARIATIONAL ENERGIES WITH THE FIRST-ORDER WAVEFUNCTION:
 E(VAR1)=  -0.29035209103D+04     E(CISD,4)=  -0.29035203105D+04
 Largest amplitude= 4.68D-02
 Leave Link  913 at Tue Dec 17 09:51:59 2019, MaxMem=  268435456 cpu:    1385.9
 (Enter /home/matheus/.gaussian/g09/l108.exe)
 Variable Step   Value    
 -------- ---- -----------
     1       3    6.236096
 Leave Link  108 at Tue Dec 17 09:51:59 2019, MaxMem=  268435456 cpu:       0.0
 (Enter /home/matheus/.gaussian/g09/l202.exe)
 ---------------------------------------------------------------------------------------------------
                            Z-MATRIX (ANGSTROMS AND DEGREES)
   CD    Cent   Atom    N1       Length/X        N2       Alpha/Y        N3        Beta/Z          J
 ---------------------------------------------------------------------------------------------------
      1      1  O        0   0.000000          0.000000          0.725000
      2      2  O        0   0.000000          0.000000         -0.725000
      3      3  H        0  -0.590542          0.703781          1.023510
      4      4  H        0   0.000000          0.918721         -1.023510
      5      5  Kr       0   0.000000          3.300000          0.000000
 ---------------------------------------------------------------------------------------------------
                         Z-Matrix orientation:                         
 ---------------------------------------------------------------------
 Center     Atomic      Atomic             Coordinates (Angstroms)
 Number     Number       Type             X           Y           Z
 ---------------------------------------------------------------------
      1          8           0        0.000000    0.000000    0.725000
      2          8           0        0.000000    0.000000   -0.725000
      3          1           0       -0.590542    0.703781    1.023510
      4          1           0        0.000000    0.918721   -1.023510
      5         36           0        0.000000    3.300000    0.000000
 ---------------------------------------------------------------------
                    Distance matrix (angstroms):
                    1          2          3          4          5
     1  O    0.000000
     2  O    1.450000   0.000000
     3  H    0.966000   1.975180   0.000000
     4  H    1.975180   0.966000   2.141316   0.000000
     5  Kr   3.378702   3.378702   2.852484   2.591923   0.000000
 Stoichiometry    H2KrO2
 Framework group  C1[X(H2KrO2)]
 Deg. of freedom     9
 Full point group                 C1      NOp   1
 RotChk:  IX=0 Diff= 2.74D-04
 Largest Abelian subgroup         C1      NOp   1
 Largest concise Abelian subgroup C1      NOp   1
                         Standard orientation:                         
 ---------------------------------------------------------------------
 Center     Atomic      Atomic             Coordinates (Angstroms)
 Number     Number       Type             X           Y           Z
 ---------------------------------------------------------------------
      1          8           0       -2.231327   -0.717770   -0.069550
      2          8           0       -2.228481    0.729703    0.015957
      3          1           0       -1.532433   -1.052255    0.507358
      4          1           0       -1.309201    1.025501    0.040102
      5         36           0        1.070003   -0.001909   -0.003298
 ---------------------------------------------------------------------
 Rotational constants (GHZ):     26.2253129      1.9626290      1.8302734
 Leave Link  202 at Tue Dec 17 09:51:59 2019, MaxMem=  268435456 cpu:       0.0
 (Enter /home/matheus/.gaussian/g09/l301.exe)
 Standard basis: Aug-CC-pVTZ (5D, 7F)
 Ernie: Thresh=  0.10000D-02 Tol=  0.10000D-05 Strict=F.
 Ernie:  38 primitive shells out of 205 were deleted.
 There are   197 symmetry adapted basis functions of A   symmetry.
 Integral buffers will be    131072 words long.
 Raffenetti 1 integral format.
 Two-electron integral symmetry is turned on.
   197 basis functions,   415 primitive gaussians,   229 cartesian basis functions
    27 alpha electrons       27 beta electrons
       nuclear repulsion energy       140.8977561815 Hartrees.
 IExCor=    0 DFT=F Ex=HF Corr=None ExCW=0 ScaHFX=  1.000000
 ScaDFX=  1.000000  1.000000  1.000000  1.000000 ScalE2=  1.000000  1.000000
 IRadAn=      5 IRanWt=     -1 IRanGd=            0 ICorTp=0
 NAtoms=    5 NActive=    5 NUniq=    5 SFac= 1.00D+00 NAtFMM=   60 NAOKFM=F Big=F
 Leave Link  301 at Tue Dec 17 09:51:59 2019, MaxMem=  268435456 cpu:       0.0
 (Enter /home/matheus/.gaussian/g09/l302.exe)
 NPDir=0 NMtPBC=     1 NCelOv=     1 NCel=       1 NClECP=     1 NCelD=      1
         NCelK=      1 NCelE2=     1 NClLst=     1 CellRange=     0.0.
 One-electron integrals computed using PRISM.
 NBasis=   197 RedAO= T  NBF=   197
 NBsUse=   197 1.00D-06 NBFU=   197
 Leave Link  302 at Tue Dec 17 09:51:59 2019, MaxMem=  268435456 cpu:       0.2
 (Enter /home/matheus/.gaussian/g09/l303.exe)
 DipDrv:  MaxL=1.
 Leave Link  303 at Tue Dec 17 09:51:59 2019, MaxMem=  268435456 cpu:       0.0
 (Enter /home/matheus/.gaussian/g09/l401.exe)
 Initial guess read from the read-write file.
 B after Tr=     0.000000    0.000000    0.000000
         Rot=    1.000000    0.000000    0.000000    0.000000 Ang=   0.00 deg.
 Guess basis will be translated and rotated to current coordinates.
 Initial guess orbital symmetries:
       Occupied  (A) (A) (A) (A) (A) (A) (A) (A) (A) (A) (A) (A)
                 (A) (A) (A) (A) (A) (A) (A) (A) (A) (A) (A) (A)
                 (A) (A) (A)
       Virtual   (A) (A) (A) (A) (A) (A) (A) (A) (A) (A) (A) (A)
                 (A) (A) (A) (A) (A) (A) (A) (A) (A) (A) (A) (A)
                 (A) (A) (A) (A) (A) (A) (A) (A) (A) (A) (A) (A)
                 (A) (A) (A) (A) (A) (A) (A) (A) (A) (A) (A) (A)
                 (A) (A) (A) (A) (A) (A) (A) (A) (A) (A) (A) (A)
                 (A) (A) (A) (A) (A) (A) (A) (A) (A) (A) (A) (A)
                 (A) (A) (A) (A) (A) (A) (A) (A) (A) (A) (A) (A)
                 (A) (A) (A) (A) (A) (A) (A) (A) (A) (A) (A) (A)
                 (A) (A) (A) (A) (A) (A) (A) (A) (A) (A) (A) (A)
                 (A) (A) (A) (A) (A) (A) (A) (A) (A) (A) (A) (A)
                 (A) (A) (A) (A) (A) (A) (A) (A) (A) (A) (A) (A)
                 (A) (A) (A) (A) (A) (A) (A) (A) (A) (A) (A) (A)
                 (A) (A) (A) (A) (A) (A) (A) (A) (A) (A) (A) (A)
                 (A) (A) (A) (A) (A) (A) (A) (A) (A) (A) (A) (A)
                 (A) (A)
 The electronic state of the initial guess is 1-A.
 Generating alternative initial guess.
 Harris functional with IExCor=  205 diagonalized for initial guess.
 ExpMin= 2.53D-02 ExpMax= 1.17D+07 ExpMxC= 1.33D+04 IAcc=3 IRadAn=         5 AccDes= 0.00D+00
 HarFok:  IExCor=  205 AccDes= 0.00D+00 IRadAn=         5 IDoV= 1
 ScaDFX=  1.000000  1.000000  1.000000  1.000000
 FoFCou: FMM=F IPFlag=           0 FMFlag=      100000 FMFlg1=           0
         NFxFlg=           0 DoJE=T BraDBF=F KetDBF=T FulRan=T
         Omega=  0.000000  0.000000  1.000000  0.000000  0.000000 ICntrl=     500 IOpCl=  0
         NMat0=    1 NMatS0=    1 NMatT0=    0 NMatD0=    1 NMtDS0=    0 NMtDT0=    0
         I1Cent=           4 NGrid=           0.
 Petite list used in FoFCou.
 Harris En= -2901.93093099974    
 Leave Link  401 at Tue Dec 17 09:52:00 2019, MaxMem=  268435456 cpu:       1.2
 (Enter /home/matheus/.gaussian/g09/l502.exe)
 Closed shell SCF:
 Requested convergence on RMS density matrix=1.00D-08 within 128 cycles.
 Requested convergence on MAX density matrix=1.00D-06.
 Requested convergence on             energy=1.00D-06.
 No special actions if energy rises.
 Using DIIS extrapolation, IDIIS=  1040.
 Integral symmetry usage will be decided dynamically.
 IEnd=      178489 IEndB=      178489 NGot=   268435456 MDV=   268326278
 LenX=   268326278 LenY=   268273396
 Fock matrices will be formed incrementally for  20 cycles.

 Cycle   1  Pass 0  IDiag  1:
 FoFCou: FMM=F IPFlag=           0 FMFlag=      100000 FMFlg1=           0
         NFxFlg=           0 DoJE=F BraDBF=F KetDBF=F FulRan=T
         Omega=  0.000000  0.000000  1.000000  0.000000  0.000000 ICntrl=       0 IOpCl=  0
         NMat0=    1 NMatS0=    1 NMatT0=    0 NMatD0=    1 NMtDS0=    0 NMtDT0=    0
         I1Cent=           0 NGrid=           0.
 Symmetry not used in FoFCou.
 E= -2902.87974042415    
 DIIS: error= 4.76D-04 at cycle   1 NSaved=   1.
 NSaved= 1 IEnMin= 1 EnMin= -2902.87974042415     IErMin= 1 ErrMin= 4.76D-04
 ErrMax= 4.76D-04 EMaxC= 1.00D-01 BMatC= 4.42D-05 BMatP= 4.42D-05
 IDIUse=3 WtCom= 9.95D-01 WtEn= 4.76D-03
 Coeff-Com:  0.100D+01
 Coeff-En:   0.100D+01
 Coeff:      0.100D+01
 Gap=     0.504 Goal=   None    Shift=    0.000
 RMSDP=5.46D-05 MaxDP=1.51D-03              OVMax= 2.07D-03

 Cycle   2  Pass 0  IDiag  1:
 RMSU=  3.86D-05    CP:  1.00D+00
 E= -2902.87979164557     Delta-E=       -0.000051221420 Rises=F Damp=F
 DIIS: error= 7.57D-05 at cycle   2 NSaved=   2.
 NSaved= 2 IEnMin= 2 EnMin= -2902.87979164557     IErMin= 2 ErrMin= 7.57D-05
 ErrMax= 7.57D-05 EMaxC= 1.00D-01 BMatC= 1.21D-06 BMatP= 4.42D-05
 IDIUse=1 WtCom= 1.00D+00 WtEn= 0.00D+00
 Coeff-Com: -0.838D-01 0.108D+01
 Coeff:     -0.838D-01 0.108D+01
 Gap=     0.503 Goal=   None    Shift=    0.000
 RMSDP=9.56D-06 MaxDP=3.29D-04 DE=-5.12D-05 OVMax= 4.51D-04

 Initial convergence to 1.0D-05 achieved.  Increase integral accuracy.
 Cycle   3  Pass 1  IDiag  1:
 E= -2902.87979352631     Delta-E=       -0.000001880742 Rises=F Damp=F
 DIIS: error= 2.46D-05 at cycle   1 NSaved=   1.
 NSaved= 1 IEnMin= 1 EnMin= -2902.87979352631     IErMin= 1 ErrMin= 2.46D-05
 ErrMax= 2.46D-05 EMaxC= 1.00D-01 BMatC= 1.52D-07 BMatP= 1.52D-07
 IDIUse=1 WtCom= 1.00D+00 WtEn= 0.00D+00
 Coeff-Com:  0.100D+01
 Coeff:      0.100D+01
 Gap=     0.503 Goal=   None    Shift=    0.000
 RMSDP=9.56D-06 MaxDP=3.29D-04 DE=-1.88D-06 OVMax= 1.35D-04

 Cycle   4  Pass 1  IDiag  1:
 RMSU=  1.58D-06    CP:  1.00D+00
 E= -2902.87979366487     Delta-E=       -0.000000138567 Rises=F Damp=F
 DIIS: error= 9.72D-06 at cycle   2 NSaved=   2.
 NSaved= 2 IEnMin= 2 EnMin= -2902.87979366487     IErMin= 2 ErrMin= 9.72D-06
 ErrMax= 9.72D-06 EMaxC= 1.00D-01 BMatC= 5.00D-08 BMatP= 1.52D-07
 IDIUse=1 WtCom= 1.00D+00 WtEn= 0.00D+00
 Coeff-Com:  0.340D+00 0.660D+00
 Coeff:      0.340D+00 0.660D+00
 Gap=     0.503 Goal=   None    Shift=    0.000
 RMSDP=6.96D-07 MaxDP=3.71D-05 DE=-1.39D-07 OVMax= 4.59D-05

 Cycle   5  Pass 1  IDiag  1:
 RMSU=  4.90D-07    CP:  1.00D+00  9.70D-01
 E= -2902.87979370230     Delta-E=       -0.000000037426 Rises=F Damp=F
 DIIS: error= 3.23D-06 at cycle   3 NSaved=   3.
 NSaved= 3 IEnMin= 3 EnMin= -2902.87979370230     IErMin= 3 ErrMin= 3.23D-06
 ErrMax= 3.23D-06 EMaxC= 1.00D-01 BMatC= 2.90D-09 BMatP= 5.00D-08
 IDIUse=1 WtCom= 1.00D+00 WtEn= 0.00D+00
 Coeff-Com: -0.901D-01-0.319D-01 0.112D+01
 Coeff:     -0.901D-01-0.319D-01 0.112D+01
 Gap=     0.503 Goal=   None    Shift=    0.000
 RMSDP=4.01D-07 MaxDP=1.32D-05 DE=-3.74D-08 OVMax= 3.20D-05

 Cycle   6  Pass 1  IDiag  1:
 RMSU=  1.40D-07    CP:  1.00D+00  1.09D+00  1.34D+00
 E= -2902.87979370866     Delta-E=       -0.000000006356 Rises=F Damp=F
 DIIS: error= 1.42D-06 at cycle   4 NSaved=   4.
 NSaved= 4 IEnMin= 4 EnMin= -2902.87979370866     IErMin= 4 ErrMin= 1.42D-06
 ErrMax= 1.42D-06 EMaxC= 1.00D-01 BMatC= 6.76D-10 BMatP= 2.90D-09
 IDIUse=1 WtCom= 1.00D+00 WtEn= 0.00D+00
 Coeff-Com: -0.847D-01-0.128D+00 0.321D+00 0.891D+00
 Coeff:     -0.847D-01-0.128D+00 0.321D+00 0.891D+00
 Gap=     0.503 Goal=   None    Shift=    0.000
 RMSDP=1.73D-07 MaxDP=5.14D-06 DE=-6.36D-09 OVMax= 1.18D-05

 Cycle   7  Pass 1  IDiag  1:
 RMSU=  6.51D-08    CP:  1.00D+00  1.12D+00  1.51D+00  1.17D+00
 E= -2902.87979370975     Delta-E=       -0.000000001090 Rises=F Damp=F
 DIIS: error= 4.46D-07 at cycle   5 NSaved=   5.
 NSaved= 5 IEnMin= 5 EnMin= -2902.87979370975     IErMin= 5 ErrMin= 4.46D-07
 ErrMax= 4.46D-07 EMaxC= 1.00D-01 BMatC= 3.92D-11 BMatP= 6.76D-10
 IDIUse=1 WtCom= 1.00D+00 WtEn= 0.00D+00
 Coeff-Com:  0.612D-02 0.137D-03-0.785D-01 0.297D-02 0.107D+01
 Coeff:      0.612D-02 0.137D-03-0.785D-01 0.297D-02 0.107D+01
 Gap=     0.503 Goal=   None    Shift=    0.000
 RMSDP=5.77D-08 MaxDP=1.36D-06 DE=-1.09D-09 OVMax= 3.62D-06

 Cycle   8  Pass 1  IDiag  1:
 RMSU=  1.73D-08    CP:  1.00D+00  1.11D+00  1.53D+00  1.33D+00  1.37D+00
 E= -2902.87979370985     Delta-E=       -0.000000000100 Rises=F Damp=F
 DIIS: error= 1.69D-07 at cycle   6 NSaved=   6.
 NSaved= 6 IEnMin= 6 EnMin= -2902.87979370985     IErMin= 6 ErrMin= 1.69D-07
 ErrMax= 1.69D-07 EMaxC= 1.00D-01 BMatC= 6.00D-12 BMatP= 3.92D-11
 IDIUse=1 WtCom= 1.00D+00 WtEn= 0.00D+00
 Coeff-Com:  0.137D-01 0.193D-01-0.543D-01-0.147D+00 0.859D-01 0.108D+01
 Coeff:      0.137D-01 0.193D-01-0.543D-01-0.147D+00 0.859D-01 0.108D+01
 Gap=     0.503 Goal=   None    Shift=    0.000
 RMSDP=2.71D-08 MaxDP=7.09D-07 DE=-1.00D-10 OVMax= 1.95D-06

 Cycle   9  Pass 1  IDiag  1:
 RMSU=  6.26D-09    CP:  1.00D+00  1.11D+00  1.54D+00  1.39D+00  1.58D+00
                    CP:  1.30D+00
 E= -2902.87979370986     Delta-E=       -0.000000000016 Rises=F Damp=F
 DIIS: error= 4.59D-08 at cycle   7 NSaved=   7.
 NSaved= 7 IEnMin= 7 EnMin= -2902.87979370986     IErMin= 7 ErrMin= 4.59D-08
 ErrMax= 4.59D-08 EMaxC= 1.00D-01 BMatC= 4.16D-13 BMatP= 6.00D-12
 IDIUse=1 WtCom= 1.00D+00 WtEn= 0.00D+00
[...]
 ---------------------------------------------------------------------
      1          8           0        0.000000    0.000000    0.725000
      2          8           0        0.000000    0.000000   -0.725000
      3          1           0       -0.590542    0.703781    1.023510
      4          1           0        0.000000    0.918721   -1.023510
      5         36           0        0.000000    5.000000    0.000000
 ---------------------------------------------------------------------
                    Distance matrix (angstroms):
                    1          2          3          4          5
     1  O    0.000000
     2  O    1.450000   0.000000
     3  H    0.966000   1.975180   0.000000
     4  H    1.975180   0.966000   2.141316   0.000000
     5  Kr   5.052289   5.052289   4.455762   4.207661   0.000000
 Stoichiometry    H2KrO2
 Framework group  C1[X(H2KrO2)]
 Deg. of freedom     9
 Full point group                 C1      NOp   1
 RotChk:  IX=0 Diff= 1.31D-04
 Largest Abelian subgroup         C1      NOp   1
 Largest concise Abelian subgroup C1      NOp   1
                         Standard orientation:                         
 ---------------------------------------------------------------------
 Center     Atomic      Atomic             Coordinates (Angstroms)
 Number     Number       Type             X           Y           Z
 ---------------------------------------------------------------------
      1          8           0       -3.363848   -0.719340   -0.071712
      2          8           0       -3.362692    0.728134    0.013834
      3          1           0       -2.663514   -1.052953    0.503953
      4          1           0       -2.443747    1.025099    0.036368
      5         36           0        1.636655   -0.001181   -0.002147
 ---------------------------------------------------------------------
 Rotational constants (GHZ):     26.2266545      0.8493910      0.8236131
 Leave Link  202 at Tue Dec 17 13:29:43 2019, MaxMem=  268435456 cpu:       0.0
 (Enter /home/matheus/.gaussian/g09/l301.exe)
 Standard basis: Aug-CC-pVTZ (5D, 7F)
 Ernie: Thresh=  0.10000D-02 Tol=  0.10000D-05 Strict=F.
 Ernie:  38 primitive shells out of 205 were deleted.
 There are   197 symmetry adapted basis functions of A   symmetry.
 Integral buffers will be    131072 words long.
 Raffenetti 1 integral format.
 Two-electron integral symmetry is turned on.
   197 basis functions,   415 primitive gaussians,   229 cartesian basis functions
    27 alpha electrons       27 beta electrons
       nuclear repulsion energy       105.7886539400 Hartrees.
 IExCor=    0 DFT=F Ex=HF Corr=None ExCW=0 ScaHFX=  1.000000
 ScaDFX=  1.000000  1.000000  1.000000  1.000000 ScalE2=  1.000000  1.000000
 IRadAn=      5 IRanWt=     -1 IRanGd=            0 ICorTp=0
 NAtoms=    5 NActive=    5 NUniq=    5 SFac= 1.00D+00 NAtFMM=   60 NAOKFM=F Big=F
 Leave Link  301 at Tue Dec 17 13:29:43 2019, MaxMem=  268435456 cpu:       0.0
 (Enter /home/matheus/.gaussian/g09/l302.exe)
 NPDir=0 NMtPBC=     1 NCelOv=     1 NCel=       1 NClECP=     1 NCelD=      1
         NCelK=      1 NCelE2=     1 NClLst=     1 CellRange=     0.0.
 One-electron integrals computed using PRISM.
 NBasis=   197 RedAO= T  NBF=   197
 NBsUse=   197 1.00D-06 NBFU=   197
 Leave Link  302 at Tue Dec 17 13:29:43 2019, MaxMem=  268435456 cpu:       0.2
 (Enter /home/matheus/.gaussian/g09/l303.exe)
 DipDrv:  MaxL=1.
 Leave Link  303 at Tue Dec 17 13:29:43 2019, MaxMem=  268435456 cpu:       0.0
 (Enter /home/matheus/.gaussian/g09/l401.exe)
 Initial guess read from the read-write file.
 B after Tr=     0.000000    0.000000    0.000000
         Rot=    1.000000    0.000000    0.000000    0.000000 Ang=   0.00 deg.
 Guess basis will be translated and rotated to current coordinates.
 Initial guess orbital symmetries:
       Occupied  (A) (A) (A) (A) (A) (A) (A) (A) (A) (A) (A) (A)
                 (A) (A) (A) (A) (A) (A) (A) (A) (A) (A) (A) (A)
                 (A) (A) (A)
       Virtual   (A) (A) (A) (A) (A) (A) (A) (A) (A) (A) (A) (A)
                 (A) (A) (A) (A) (A) (A) (A) (A) (A) (A) (A) (A)
                 (A) (A) (A) (A) (A) (A) (A) (A) (A) (A) (A) (A)
                 (A) (A) (A) (A) (A) (A) (A) (A) (A) (A) (A) (A)
                 (A) (A) (A) (A) (A) (A) (A) (A) (A) (A) (A) (A)
                 (A) (A) (A) (A) (A) (A) (A) (A) (A) (A) (A) (A)
                 (A) (A) (A) (A) (A) (A) (A) (A) (A) (A) (A) (A)
                 (A) (A) (A) (A) (A) (A) (A) (A) (A) (A) (A) (A)
                 (A) (A) (A) (A) (A) (A) (A) (A) (A) (A) (A) (A)
                 (A) (A) (A) (A) (A) (A) (A) (A) (A) (A) (A) (A)
                 (A) (A) (A) (A) (A) (A) (A) (A) (A) (A) (A) (A)
                 (A) (A) (A) (A) (A) (A) (A) (A) (A) (A) (A) (A)
                 (A) (A) (A) (A) (A) (A) (A) (A) (A) (A) (A) (A)
                 (A) (A) (A) (A) (A) (A) (A) (A) (A) (A) (A) (A)
                 (A) (A)
 The electronic state of the initial guess is 1-A.
 Generating alternative initial guess.
 Harris functional with IExCor=  205 diagonalized for initial guess.
 ExpMin= 2.53D-02 ExpMax= 1.17D+07 ExpMxC= 1.33D+04 IAcc=3 IRadAn=         5 AccDes= 0.00D+00
 HarFok:  IExCor=  205 AccDes= 0.00D+00 IRadAn=         5 IDoV= 1
 ScaDFX=  1.000000  1.000000  1.000000  1.000000
 FoFCou: FMM=F IPFlag=           0 FMFlag=      100000 FMFlg1=           0
         NFxFlg=           0 DoJE=T BraDBF=F KetDBF=T FulRan=T
         Omega=  0.000000  0.000000  1.000000  0.000000  0.000000 ICntrl=     500 IOpCl=  0
         NMat0=    1 NMatS0=    1 NMatT0=    0 NMatD0=    1 NMtDS0=    0 NMtDT0=    0
         I1Cent=           4 NGrid=           0.
 Petite list used in FoFCou.
 Harris En= -2901.93206626979    
 Leave Link  401 at Tue Dec 17 13:29:44 2019, MaxMem=  268435456 cpu:       1.1
 (Enter /home/matheus/.gaussian/g09/l502.exe)
 Closed shell SCF:
 Requested convergence on RMS density matrix=1.00D-08 within 128 cycles.
 Requested convergence on MAX density matrix=1.00D-06.
 Requested convergence on             energy=1.00D-06.
 No special actions if energy rises.
 Using DIIS extrapolation, IDIIS=  1040.
 Integral symmetry usage will be decided dynamically.
 IEnd=      178489 IEndB=      178489 NGot=   268435456 MDV=   268326278
 LenX=   268326278 LenY=   268273396
 Fock matrices will be formed incrementally for  20 cycles.

 Cycle   1  Pass 0  IDiag  1:
 FoFCou: FMM=F IPFlag=           0 FMFlag=      100000 FMFlg1=           0
         NFxFlg=           0 DoJE=F BraDBF=F KetDBF=F FulRan=T
         Omega=  0.000000  0.000000  1.000000  0.000000  0.000000 ICntrl=       0 IOpCl=  0
         NMat0=    1 NMatS0=    1 NMatT0=    0 NMatD0=    1 NMtDS0=    0 NMtDT0=    0
         I1Cent=           0 NGrid=           0.
 Symmetry not used in FoFCou.
 E= -2902.88314000146    
 DIIS: error= 4.50D-05 at cycle   1 NSaved=   1.
 NSaved= 1 IEnMin= 1 EnMin= -2902.88314000146     IErMin= 1 ErrMin= 4.50D-05
 ErrMax= 4.50D-05 EMaxC= 1.00D-01 BMatC= 6.82D-07 BMatP= 6.82D-07
 IDIUse=1 WtCom= 1.00D+00 WtEn= 0.00D+00
 Coeff-Com:  0.100D+01
 Coeff:      0.100D+01
 Gap=     0.502 Goal=   None    Shift=    0.000
 RMSDP=1.27D-05 MaxDP=3.21D-04              OVMax= 3.91D-04

 Cycle   2  Pass 0  IDiag  1:
 RMSU=  9.00D-06    CP:  1.00D+00
 E= -2902.88314075686     Delta-E=       -0.000000755404 Rises=F Damp=F
 DIIS: error= 1.15D-05 at cycle   2 NSaved=   2.
 NSaved= 2 IEnMin= 2 EnMin= -2902.88314075686     IErMin= 2 ErrMin= 1.15D-05
 ErrMax= 1.15D-05 EMaxC= 1.00D-01 BMatC= 2.13D-08 BMatP= 6.82D-07
 IDIUse=1 WtCom= 1.00D+00 WtEn= 0.00D+00
 Coeff-Com: -0.716D-02 0.101D+01
 Coeff:     -0.716D-02 0.101D+01
 Gap=     0.502 Goal=   None    Shift=    0.000
 RMSDP=1.46D-06 MaxDP=3.41D-05 DE=-7.55D-07 OVMax= 6.59D-05

 Initial convergence to 1.0D-05 achieved.  Increase integral accuracy.
 Cycle   3  Pass 1  IDiag  1:
 E= -2902.88314078232     Delta-E=       -0.000000025459 Rises=F Damp=F
 DIIS: error= 3.40D-06 at cycle   1 NSaved=   1.
 NSaved= 1 IEnMin= 1 EnMin= -2902.88314078232     IErMin= 1 ErrMin= 3.40D-06
 ErrMax= 3.40D-06 EMaxC= 1.00D-01 BMatC= 1.45D-09 BMatP= 1.45D-09
 IDIUse=1 WtCom= 1.00D+00 WtEn= 0.00D+00
 Coeff-Com:  0.100D+01
 Coeff:      0.100D+01
 Gap=     0.502 Goal=   None    Shift=    0.000
 RMSDP=1.46D-06 MaxDP=3.41D-05 DE=-2.55D-08 OVMax= 2.76D-05

 Cycle   4  Pass 1  IDiag  1:
 RMSU=  1.91D-07    CP:  1.00D+00
 E= -2902.88314078444     Delta-E=       -0.000000002121 Rises=F Damp=F
 DIIS: error= 1.35D-06 at cycle   2 NSaved=   2.
 NSaved= 2 IEnMin= 2 EnMin= -2902.88314078444     IErMin= 2 ErrMin= 1.35D-06
 ErrMax= 1.35D-06 EMaxC= 1.00D-01 BMatC= 1.78D-10 BMatP= 1.45D-09
 IDIUse=1 WtCom= 1.00D+00 WtEn= 0.00D+00
 Coeff-Com:  0.166D+00 0.834D+00
 Coeff:      0.166D+00 0.834D+00
 Gap=     0.502 Goal=   None    Shift=    0.000
 RMSDP=7.23D-08 MaxDP=3.05D-06 DE=-2.12D-09 OVMax= 5.65D-06

 Cycle   5  Pass 1  IDiag  1:
 RMSU=  4.20D-08    CP:  1.00D+00  1.15D+00
 E= -2902.88314078468     Delta-E=       -0.000000000241 Rises=F Damp=F
 DIIS: error= 3.25D-07 at cycle   3 NSaved=   3.
 NSaved= 3 IEnMin= 3 EnMin= -2902.88314078468     IErMin= 3 ErrMin= 3.25D-07
 ErrMax= 3.25D-07 EMaxC= 1.00D-01 BMatC= 2.45D-11 BMatP= 1.78D-10
 IDIUse=1 WtCom= 1.00D+00 WtEn= 0.00D+00
 Coeff-Com: -0.857D-01-0.122D-01 0.110D+01
 Coeff:     -0.857D-01-0.122D-01 0.110D+01
 Gap=     0.502 Goal=   None    Shift=    0.000
 RMSDP=4.28D-08 MaxDP=2.16D-06 DE=-2.41D-10 OVMax= 4.38D-06

 Cycle   6  Pass 1  IDiag  1:
 RMSU=  1.29D-08    CP:  1.00D+00  1.28D+00  1.27D+00
 E= -2902.88314078473     Delta-E=       -0.000000000050 Rises=F Damp=F
 DIIS: error= 1.55D-07 at cycle   4 NSaved=   4.
 NSaved= 4 IEnMin= 4 EnMin= -2902.88314078473     IErMin= 4 ErrMin= 1.55D-07
 ErrMax= 1.55D-07 EMaxC= 1.00D-01 BMatC= 5.95D-12 BMatP= 2.45D-11
 IDIUse=1 WtCom= 1.00D+00 WtEn= 0.00D+00
 Coeff-Com: -0.565D-01-0.116D+00 0.415D+00 0.757D+00
 Coeff:     -0.565D-01-0.116D+00 0.415D+00 0.757D+00
 Gap=     0.502 Goal=   None    Shift=    0.000
 RMSDP=1.26D-08 MaxDP=5.82D-07 DE=-4.96D-11 OVMax= 1.27D-06

 Cycle   7  Pass 1  IDiag  1:
 RMSU=  4.85D-09    CP:  1.00D+00  1.31D+00  1.39D+00  1.04D+00
 E= -2902.88314078474     Delta-E=       -0.000000000004 Rises=F Damp=F
 DIIS: error= 2.87D-08 at cycle   5 NSaved=   5.
 NSaved= 5 IEnMin= 5 EnMin= -2902.88314078474     IErMin= 5 ErrMin= 2.87D-08
 ErrMax= 2.87D-08 EMaxC= 1.00D-01 BMatC= 1.60D-13 BMatP= 5.95D-12
 IDIUse=1 WtCom= 1.00D+00 WtEn= 0.00D+00
 Coeff-Com:  0.164D-01 0.311D-01-0.155D+00-0.171D+00 0.128D+01
 Coeff:      0.164D-01 0.311D-01-0.155D+00-0.171D+00 0.128D+01
 Gap=     0.502 Goal=   None    Shift=    0.000
 RMSDP=3.48D-09 MaxDP=9.71D-08 DE=-4.09D-12 OVMax= 2.64D-07

 SCF Done:  E(RHF) =  -2902.88314078     A.U. after    7 cycles
             Convg  =    0.3479D-08             -V/T =  2.0001
 KE= 2.902586394016D+03 PE=-7.151854594015D+03 EE= 1.240596405274D+03
 Leave Link  502 at Tue Dec 17 13:30:03 2019, MaxMem=  268435456 cpu:      37.2
 (Enter /home/matheus/.gaussian/g09/l801.exe)
 Windowed orbitals will be sorted by symmetry type.
 ExpMin= 2.53D-02 ExpMax= 1.17D+07 ExpMxC= 1.33D+04 IAcc=3 IRadAn=         5 AccDes= 0.00D+00
 HarFok:  IExCor=  205 AccDes= 0.00D+00 IRadAn=         5 IDoV=-2
 ScaDFX=  1.000000  1.000000  1.000000  1.000000
 DSYEVD returned Info=          89 IAlg= 4 N=    59 NDim=    59 NE2=     4547561 trying DSYEV.
 Largest valence mixing into a core orbital is  1.48D-04
 Largest core mixing into a valence orbital is  2.64D-05
 Range of M.O.s used for correlation:    12   197
 NBasis=   197 NAE=    27 NBE=    27 NFC=    11 NFV=     0
 NROrb=    186 NOA=    16 NOB=    16 NVA=   170 NVB=   170

 **** Warning!!: The largest alpha MO coefficient is  0.15793754D+02

 Leave Link  801 at Tue Dec 17 13:30:03 2019, MaxMem=  268435456 cpu:       0.2
 (Enter /home/matheus/.gaussian/g09/l804.exe)
 Closed-shell transformation, MDV=   268435456 ITran=4 ISComp=1.
 Semi-Direct transformation.
 ModeAB=           4 MOrb=            16 LenV=     267347766
 LASXX=     48528660 LTotXX=    48528660 LenRXX=    97827436
 LTotAB=    49298776 MaxLAS=    72926880 LenRXY=           0
 NonZer=   146356096 LenScr=   220395520 LnRSAI=    72926880
 LnScr1=   110164992 LExtra=           0 Total=    501314828
 MaxDsk=          -1 SrtSym=           T ITran=            4
 DoSDTr:  NPSUse=  2
 JobTyp=0 Pass  1:  I=   1 to  16.
 (rs|ai) integrals will be sorted in core.
 Complete sort for first half transformation.
 First half transformation complete.
 Begin second half transformation for I=  10.
 Complete sort for second half transformation.
 Second half transformation complete.
 SymMOI:  orbitals are not symmetric.
 Spin components of T(2) and E(2):
     alpha-alpha T2 =       0.2557947498D-01 E2=     -0.9849691831D-01
     alpha-beta  T2 =       0.1414566513D+00 E2=     -0.5531042522D+00
     beta-beta   T2 =       0.2557947498D-01 E2=     -0.9849691831D-01
 ANorm=    0.1092069412D+01
 E2 =    -0.7500980888D+00 EUMP2 =    -0.29036332388736D+04
 Leave Link  804 at Tue Dec 17 13:30:23 2019, MaxMem=  268435456 cpu:      39.8
 (Enter /home/matheus/.gaussian/g09/l913.exe)
 CIDS:  MDV=   268435456.
 Frozen-core window:  NFC=  11 NFV=   0.
 IFCWin=0 IBDFC=1 NFBD=     0     0 NFCmp=     0     0 NFFFC=     0     0
 Using DD3R+UMP44R for 1st iteration, S=T.
 Using DD4RQ for 2nd and later iterations.
 Would need an additional       431206676 words for in-memory AO integral storage.
 MP4(SDTQ)
 =========
 DD1Dir will call FoFDir   1 times, MxPair=       272
 NAB=   136 NAA=     0 NBB=     0 NumPrc=  2.
 Integrals replicated using symmetry in FoFDir.
 MinBra= 0 MaxBra= 3 Meth= 1.
 IRaf=       0 NMat= 272 IRICut=     340 DoRegI=T DoRafI=T ISym2E= 2 JSym2E=2.
 MP4(D)= -0.14928436D-01
 MP4(S)= -0.63068868D-02
 MP4(R+Q)=  0.15041316D-01
 T4(AAA)= -0.99109721D-03
 T4(AAB)= -0.13861189D-01
 Time for triples=     1287.93 seconds.
 MP4(T)=   -0.29704573D-01
 E3=       -0.11922269D-01        EUMP3=      -0.29036451611D+04
 E4(DQ)=    0.11288027D-03        UMP4(DQ)=   -0.29036450483D+04
 E4(SDQ)=  -0.61940065D-02        UMP4(SDQ)=  -0.29036513551D+04
 E4(SDTQ)= -0.35898580D-01        UMP4(SDTQ)= -0.29036810597D+04
 VARIATIONAL ENERGIES WITH THE FIRST-ORDER WAVEFUNCTION:
 E(VAR1)=  -0.29035220896D+04     E(CISD,4)=  -0.29035219159D+04
 Largest amplitude= 2.05D-02
 Leave Link  913 at Tue Dec 17 13:41:48 2019, MaxMem=  268435456 cpu:    1366.3
 (Enter /home/matheus/.gaussian/g09/l108.exe)
 Scan completed.

 Summary of the potential surface scan:
   N      R1          SCF          MP2          MP3         MP4DQ       MP4SDQ       MP4SDTQ  
 ----  ---------  -----------  -----------  -----------  -----------  -----------  -----------
    1     3.0000  -2902.87300  -2903.63149  -2903.64254  -2903.64187  -2903.64843  -2903.67926
    2     3.1000  -2902.87606  -2903.63327  -2903.64448  -2903.64391  -2903.65043  -2903.68109
    3     3.2000  -2902.87824  -2903.63435  -2903.64570  -2903.64520  -2903.65169  -2903.68220
    4     3.3000  -2902.87979  -2903.63496  -2903.64641  -2903.64598  -2903.65244  -2903.68283
    5     3.4000  -2902.88088  -2903.63525  -2903.64678  -2903.64640  -2903.65284  -2903.68312
    6     3.5000  -2902.88165  -2903.63532  -2903.64692  -2903.64659  -2903.65301  -2903.68319
    7     3.6000  -2902.88217  -2903.63525  -2903.64691  -2903.64661  -2903.65302  -2903.68312
    8     3.7000  -2902.88253  -2903.63511  -2903.64681  -2903.64655  -2903.65294  -2903.68297
    9     3.8000  -2902.88278  -2903.63492  -2903.64666  -2903.64643  -2903.65280  -2903.68278
   10     3.9000  -2902.88294  -2903.63472  -2903.64649  -2903.64628  -2903.65264  -2903.68258
   11     4.0000  -2902.88304  -2903.63452  -2903.64631  -2903.64612  -2903.65248  -2903.68237
   12     4.1000  -2902.88310  -2903.63432  -2903.64614  -2903.64597  -2903.65231  -2903.68217
   13     4.2000  -2902.88314  -2903.63414  -2903.64598  -2903.64582  -2903.65216  -2903.68199
   14     4.3000  -2902.88316  -2903.63398  -2903.64584  -2903.64569  -2903.65202  -2903.68182
   15     4.4000  -2902.88317  -2903.63383  -2903.64570  -2903.64556  -2903.65189  -2903.68167
   16     4.5000  -2902.88317  -2903.63370  -2903.64558  -2903.64545  -2903.65177  -2903.68153
   17     4.6000  -2902.88317  -2903.63359  -2903.64548  -2903.64535  -2903.65167  -2903.68141
   18     4.7000  -2902.88316  -2903.63348  -2903.64538  -2903.64526  -2903.65158  -2903.68131
   19     4.8000  -2902.88316  -2903.63339  -2903.64530  -2903.64518  -2903.65149  -2903.68121
   20     4.9000  -2902.88315  -2903.63331  -2903.64523  -2903.64511  -2903.65142  -2903.68113
   21     5.0000  -2902.88314  -2903.63324  -2903.64516  -2903.64505  -2903.65136  -2903.68106
 ----  ---------  -----------  -----------  -----------  -----------  -----------  -----------
  
 Leave Link  108 at Tue Dec 17 13:41:48 2019, MaxMem=  268435456 cpu:       0.0
 (Enter /home/matheus/.gaussian/g09/l9999.exe)
 1\1\GINC-REDGIANT\Scan\RMP4SDTQ-FC\Aug-CC-pVTZ\H2Kr1O2\ROOT\17-Dec-201
 9\1\\#p mp4/aug-cc-PVTz int=ultrafine Scan\\PTCC\\0,1\O,0,0.,0.,0.725\
 O,0,0.,0.,-0.725\H,0,-0.5905422151,0.7037808064,1.0235104166\H,0,0.,0.
 9187205947,-1.0235104166\Kr,0,0.,R1,0.\\R1=3.,s,20,0.1\\Version=EM64L-
 G09RevC.01\State=1-A\HF=-2902.8729999,-2902.8760606,-2902.8782448,-290
 2.8797937,-2902.8808845,-2902.8816465,-2902.8821735,-2902.8825336,-290
 2.8827758,-2902.8829356,-2902.8830384,-2902.8831023,-2902.88314,-2902.
 8831604,-2902.8831694,-2902.8831711,-2902.8831683,-2902.8831628,-2902.
 8831559,-2902.8831484,-2902.8831408\MP2=-2903.6314895,-2903.6332659,-2
 903.6343541,-2903.6349641,-2903.6352486,-2903.6353186,-2903.6352532,-2
 903.6351084,-2903.6349222,-2903.6347198,-2903.6345172,-2903.6343238,-2
 903.6341444,-2903.6339811,-2903.6338342,-2903.633703,-2903.6335863,-29
 03.6334829,-2903.6333914,-2903.6333105,-2903.6332389\MP3=-2903.6425395
 ,-2903.6444812,-2903.6456997,-2903.6464132,-2903.6467807,-2903.6469179
 ,-2903.6469076,-2903.6468083,-2903.64666,-2903.6464895,-2903.6463138,-
 2903.646143,-2903.6459829,-2903.6458361,-2903.6457033,-2903.6455843,-2
 903.6454781,-2903.6453839,-2903.6453004,-2903.6452265,-2903.6451611\MP
 4D=-2903.6574761,-2903.659418,-2903.660637,-2903.6613506,-2903.661718,
 -2903.6618547,-2903.6618438,-2903.6617437,-2903.6615947,-2903.6614235,
 -2903.6612471,-2903.6610758,-2903.6609151,-2903.6607677,-2903.6606344,
 -2903.6605148,-2903.6604082,-2903.6603135,-2903.6602296,-2903.6601553,
 -2903.6600896\MP4DQ=-2903.6418745,-2903.6439054,-2903.6452005,-2903.64
 59793,-2903.6464021,-2903.646586,-2903.646615,-2903.6465486,-2903.6464
 278,-2903.6462803,-2903.6461237,-2903.6459688,-2903.6458218,-2903.6456
 857,-2903.6455618,-2903.6454501,-2903.64535,-2903.6452607,-2903.645181
 3,-2903.6451108,-2903.6450483\MP4SDQ=-2903.6484317,-2903.6504269,-2903
 .6516914,-2903.6524437,-2903.6528436,-2903.6530075,-2903.6530192,-2903
 .6529376,-2903.6528037,-2903.6526448,-2903.6524782,-2903.6523147,-2903
 .6521604,-2903.652018,-2903.6518886,-2903.6517722,-2903.651668,-2903.6
 515753,-2903.6514929,-2903.6514199,-2903.6513551\MP4SDTQ=-2903.6792632
 ,-2903.6810851,-2903.6822018,-2903.6828279,-2903.6831199,-2903.6831914
 ,-2903.683124,-2903.682975,-2903.6827837,-2903.682576,-2903.6823681,-2
 903.6821697,-2903.6819857,-2903.6818183,-2903.6816678,-2903.6815334,-2
 903.6814141,-2903.6813084,-2903.681215,-2903.6811325,-2903.6810597\RMS
 D=3.243e-09,9.037e-09,7.681e-09,8.165e-09,6.889e-09,5.866e-09,4.975e-0
 9,7.277e-09,4.505e-09,4.017e-09,4.098e-09,3.741e-09,3.275e-09,2.691e-0
 9,2.012e-09,9.305e-09,7.344e-09,5.860e-09,4.794e-09,4.033e-09,3.479e-0
 9\PG=C01 [X(H2Kr1O2)]\\@


 POCKETA-POCKETA
 BARON VON RICHTOFEN
 SLAUGHTERED THE ALLIES WITH
 HARDLY A CARE.
 KILLED EIGHTY-ONE WITH HIS
 BLOOD-COLORED TRIPLANE, THEN
 UN-AEROBATICALLY
 PLUNGED FROM THE AIR.
   -- TONY HOFFMAN
 Job cpu time:  0 days  8 hours 54 minutes 15.6 seconds.
 File lengths (MBytes):  RWF=   3950 Int=      0 D2E=      0 Chk=      4 Scr=      1
 Normal termination of Gaussian 09 at Tue Dec 17 13:41:49 2019.
