 Entering Gaussian System, Link 0=g09
 Input=/home/matheus/.ptcc/Inputs/H2O2-Kr_6.com
 Output=/home/matheus/.ptcc/Inputs/H2O2-Kr_6.log
 Initial command:
 /home/matheus/.gaussian/g09/l1.exe /home/matheus/.gaussian/g09/scratch/Gau-6896.inp -scrdir=/home/matheus/.gaussian/g09/scratch/
 Entering Link 1 = /home/matheus/.gaussian/g09/l1.exe PID=      6899.
  
 Copyright (c) 1988,1990,1992,1993,1995,1998,2003,2009,2011,
            Gaussian, Inc.  All Rights Reserved.
  
 This is part of the Gaussian(R) 09 program.  It is based on
 the Gaussian(R) 03 system (copyright 2003, Gaussian, Inc.),
 the Gaussian(R) 98 system (copyright 1998, Gaussian, Inc.),
 the Gaussian(R) 94 system (copyright 1995, Gaussian, Inc.),
 the Gaussian 92(TM) system (copyright 1992, Gaussian, Inc.),
 the Gaussian 90(TM) system (copyright 1990, Gaussian, Inc.),
 the Gaussian 88(TM) system (copyright 1988, Gaussian, Inc.),
 the Gaussian 86(TM) system (copyright 1986, Carnegie Mellon
 University), and the Gaussian 82(TM) system (copyright 1983,
 Carnegie Mellon University). Gaussian is a federally registered
 trademark of Gaussian, Inc.
  
 This software contains proprietary and confidential information,
 including trade secrets, belonging to Gaussian, Inc.
  
 This software is provided under written license and may be
 used, copied, transmitted, or stored only in accord with that
 written license.
  
 The following legend is applicable only to US Government
 contracts under FAR:
  
                    RESTRICTED RIGHTS LEGEND
  
 Use, reproduction and disclosure by the US Government is
 subject to restrictions as set forth in subparagraphs (a)
 and (c) of the Commercial Computer Software - Restricted
 Rights clause in FAR 52.227-19.
  
 Gaussian, Inc.
 340 Quinnipiac St., Bldg. 40, Wallingford CT 06492
  
  
 ---------------------------------------------------------------
 Warning -- This program may not be used in any manner that
 competes with the business of Gaussian, Inc. or will provide
 assistance to any competitor of Gaussian, Inc.  The licensee
 of this program is prohibited from giving any competitor of
 Gaussian, Inc. access to this program.  By using this program,
 the user acknowledges that Gaussian, Inc. is engaged in the
 business of creating and licensing software in the field of
 computational chemistry and represents and warrants to the
 licensee that it is not a competitor of Gaussian, Inc. and that
 it will not use this program in any manner prohibited above.
 ---------------------------------------------------------------
  

 Cite this work as:
 Gaussian 09, Revision C.01,
 M. J. Frisch, G. W. Trucks, H. B. Schlegel, G. E. Scuseria, 
 M. A. Robb, J. R. Cheeseman, G. Scalmani, V. Barone, B. Mennucci, 
 G. A. Petersson, H. Nakatsuji, M. Caricato, X. Li, H. P. Hratchian, 
 A. F. Izmaylov, J. Bloino, G. Zheng, J. L. Sonnenberg, M. Hada, 
 M. Ehara, K. Toyota, R. Fukuda, J. Hasegawa, M. Ishida, T. Nakajima, 
 Y. Honda, O. Kitao, H. Nakai, T. Vreven, J. A. Montgomery, Jr., 
 J. E. Peralta, F. Ogliaro, M. Bearpark, J. J. Heyd, E. Brothers, 
 K. N. Kudin, V. N. Staroverov, T. Keith, R. Kobayashi, J. Normand, 
 K. Raghavachari, A. Rendell, J. C. Burant, S. S. Iyengar, J. Tomasi, 
 M. Cossi, N. Rega, J. M. Millam, M. Klene, J. E. Knox, J. B. Cross, 
 V. Bakken, C. Adamo, J. Jaramillo, R. Gomperts, R. E. Stratmann, 
 O. Yazyev, A. J. Austin, R. Cammi, C. Pomelli, J. W. Ochterski, 
 R. L. Martin, K. Morokuma, V. G. Zakrzewski, G. A. Voth, 
 P. Salvador, J. J. Dannenberg, S. Dapprich, A. D. Daniels, 
 O. Farkas, J. B. Foresman, J. V. Ortiz, J. Cioslowski, 
 and D. J. Fox, Gaussian, Inc., Wallingford CT, 2010.
 
 ******************************************
 Gaussian 09:  EM64L-G09RevC.01 23-Sep-2011
                22-Nov-2019 
 ******************************************
 %mem=2GB
 %nproc=2
 Will use up to    2 processors via shared memory.
 -------------------------------------
 #p mp4/aug-cc-PVTz int=ultrafine Scan
 -------------------------------------
 1/38=1,60=1/1,8;
 2/12=2,17=6,18=5,29=3,40=1/2;
 3/5=16,6=1,7=10,11=9,16=1,25=1,30=1,75=-5/1,2,3;
 4//1;
 5/5=2,38=5/2;
 8/6=4,9=120000,10=1/1,4;
 9/5=5/13;
 6/7=2,8=2,9=2,10=2,18=1/1;
 1/60=1/8(1);
 99/9=1/99;
 2/29=3/2;
 3/5=16,6=1,7=10,11=9,16=1,25=1,30=1,75=-5/1,2,3;
 4/5=5,16=3/1;
 5/5=2,38=5/2;
 8/6=4,9=120000,10=1/1,4;
 9/5=5/13;
 1/60=1/8(-6);
 99/9=1/99;
 Leave Link    1 at Fri Nov 22 14:24:46 2019, MaxMem=  268435456 cpu:       0.0
 (Enter /home/matheus/.gaussian/g09/l101.exe)
 ----
 PTCC
 ----
 Charge =  0 Multiplicity = 1
 Symbolic Z-Matrix:
 O                     0.        0.        0.725 
 O                     0.        0.       -0.725 
 H                     0.79564   0.45936   1.02351 
 H                     0.        0.91872  -1.02351 
 Kr                    0.       R1        0. 
       Variables:
  R1                    3.     Scan 20    0.1    
 
 NAtoms=      5 NQM=        0 NQMF=       0 NMMI=      5 NMMIF=      0
                NMic=       0 NMicF=      0.
                    Isotopes and Nuclear Properties:
 (Nuclear quadrupole moments (NQMom) in fm**2, nuclear magnetic moments (NMagM)
  in nuclear magnetons)

  Atom         1           2           3           4           5
 IAtWgt=          16          16           1           1          84
 AtmWgt=  15.9949146  15.9949146   1.0078250   1.0078250  83.9115064
 NucSpn=           0           0           1           1           0
 AtZEff=   0.0000000   0.0000000   0.0000000   0.0000000   0.0000000
 NQMom=    0.0000000   0.0000000   0.0000000   0.0000000   0.0000000
 NMagM=    0.0000000   0.0000000   2.7928460   2.7928460   0.0000000
 Leave Link  101 at Fri Nov 22 14:24:47 2019, MaxMem=  268435456 cpu:       0.1
 (Enter /home/matheus/.gaussian/g09/l108.exe)
 Scan the potential surface.
 Variable   Value     No. Steps Step-Size
 -------- ----------- --------- ---------
     1       3.000000      20      0.1000
 A total of     21 points will be computed.
 Leave Link  108 at Fri Nov 22 14:24:47 2019, MaxMem=  268435456 cpu:       0.0
 (Enter /home/matheus/.gaussian/g09/l202.exe)
 ---------------------------------------------------------------------------------------------------
                            Z-MATRIX (ANGSTROMS AND DEGREES)
   CD    Cent   Atom    N1       Length/X        N2       Alpha/Y        N3        Beta/Z          J
 ---------------------------------------------------------------------------------------------------
      1      1  O        0   0.000000          0.000000          0.725000
      2      2  O        0   0.000000          0.000000         -0.725000
      3      3  H        0   0.795635          0.459360          1.023510
      4      4  H        0   0.000000          0.918721         -1.023510
      5      5  Kr       0   0.000000          3.000000          0.000000
 ---------------------------------------------------------------------------------------------------
                         Z-Matrix orientation:                         
 ---------------------------------------------------------------------
 Center     Atomic      Atomic             Coordinates (Angstroms)
 Number     Number       Type             X           Y           Z
 ---------------------------------------------------------------------
      1          8           0        0.000000    0.000000    0.725000
      2          8           0        0.000000    0.000000   -0.725000
      3          1           0        0.795635    0.459360    1.023510
      4          1           0        0.000000    0.918721   -1.023510
      5         36           0        0.000000    3.000000    0.000000
 ---------------------------------------------------------------------
                    Distance matrix (angstroms):
                    1          2          3          4          5
     1  O    0.000000
     2  O    1.450000   0.000000
     3  H    0.966000   1.975180   0.000000
     4  H    1.975180   0.966000   2.243734   0.000000
     5  Kr   3.086361   3.086361   2.852273   2.319331   0.000000
 Stoichiometry    H2KrO2
 Framework group  C1[X(H2KrO2)]
 Deg. of freedom     9
 Full point group                 C1      NOp   1
 Largest Abelian subgroup         C1      NOp   1
 Largest concise Abelian subgroup C1      NOp   1
                         Standard orientation:                         
 ---------------------------------------------------------------------
 Center     Atomic      Atomic             Coordinates (Angstroms)
 Number     Number       Type             X           Y           Z
 ---------------------------------------------------------------------
      1          8           0        2.028906   -0.709015   -0.097019
      2          8           0        2.021423    0.736213    0.020285
      3          1           0        1.580792   -1.073669    0.677176
      4          1           0        1.101242    1.028113    0.055175
      5         36           0       -0.974574   -0.004779   -0.003291
 ---------------------------------------------------------------------
 Rotational constants (GHZ):     25.8520084      2.3670759      2.1795084
 Leave Link  202 at Fri Nov 22 14:24:47 2019, MaxMem=  268435456 cpu:       0.0
 (Enter /home/matheus/.gaussian/g09/l301.exe)
 Standard basis: Aug-CC-pVTZ (5D, 7F)
 Ernie: Thresh=  0.10000D-02 Tol=  0.10000D-05 Strict=F.
 Ernie:  38 primitive shells out of 205 were deleted.
 There are   197 symmetry adapted basis functions of A   symmetry.
 Integral buffers will be    131072 words long.
 Raffenetti 1 integral format.
 Two-electron integral symmetry is turned on.
   197 basis functions,   415 primitive gaussians,   229 cartesian basis functions
    27 alpha electrons       27 beta electrons
       nuclear repulsion energy       150.2958872335 Hartrees.
 IExCor=    0 DFT=F Ex=HF Corr=None ExCW=0 ScaHFX=  1.000000
 ScaDFX=  1.000000  1.000000  1.000000  1.000000 ScalE2=  1.000000  1.000000
 IRadAn=      5 IRanWt=     -1 IRanGd=            0 ICorTp=0
 NAtoms=    5 NActive=    5 NUniq=    5 SFac= 1.00D+00 NAtFMM=   60 NAOKFM=F Big=F
 Leave Link  301 at Fri Nov 22 14:24:47 2019, MaxMem=  268435456 cpu:       0.1
 (Enter /home/matheus/.gaussian/g09/l302.exe)
 NPDir=0 NMtPBC=     1 NCelOv=     1 NCel=       1 NClECP=     1 NCelD=      1
         NCelK=      1 NCelE2=     1 NClLst=     1 CellRange=     0.0.
 One-electron integrals computed using PRISM.
 NBasis=   197 RedAO= T  NBF=   197
 NBsUse=   197 1.00D-06 NBFU=   197
 Leave Link  302 at Fri Nov 22 14:24:47 2019, MaxMem=  268435456 cpu:       0.2
 (Enter /home/matheus/.gaussian/g09/l303.exe)
 DipDrv:  MaxL=1.
 Leave Link  303 at Fri Nov 22 14:24:47 2019, MaxMem=  268435456 cpu:       0.1
 (Enter /home/matheus/.gaussian/g09/l401.exe)
 Harris functional with IExCor=  205 diagonalized for initial guess.
 ExpMin= 2.53D-02 ExpMax= 1.17D+07 ExpMxC= 1.33D+04 IAcc=3 IRadAn=         5 AccDes= 0.00D+00
 HarFok:  IExCor=  205 AccDes= 0.00D+00 IRadAn=         5 IDoV= 1
 ScaDFX=  1.000000  1.000000  1.000000  1.000000
 FoFCou: FMM=F IPFlag=           0 FMFlag=      100000 FMFlg1=           0
         NFxFlg=           0 DoJE=T BraDBF=F KetDBF=T FulRan=T
         Omega=  0.000000  0.000000  1.000000  0.000000  0.000000 ICntrl=     500 IOpCl=  0
         NMat0=    1 NMatS0=    1 NMatT0=    0 NMatD0=    1 NMtDS0=    0 NMtDT0=    0
         I1Cent=           4 NGrid=           0.
 Petite list used in FoFCou.
 Harris En= -2901.93022466172    
 Initial guess orbital symmetries:
       Occupied  (A) (A) (A) (A) (A) (A) (A) (A) (A) (A) (A) (A)
                 (A) (A) (A) (A) (A) (A) (A) (A) (A) (A) (A) (A)
                 (A) (A) (A)
       Virtual   (A) (A) (A) (A) (A) (A) (A) (A) (A) (A) (A) (A)
                 (A) (A) (A) (A) (A) (A) (A) (A) (A) (A) (A) (A)
                 (A) (A) (A) (A) (A) (A) (A) (A) (A) (A) (A) (A)
                 (A) (A) (A) (A) (A) (A) (A) (A) (A) (A) (A) (A)
                 (A) (A) (A) (A) (A) (A) (A) (A) (A) (A) (A) (A)
                 (A) (A) (A) (A) (A) (A) (A) (A) (A) (A) (A) (A)
                 (A) (A) (A) (A) (A) (A) (A) (A) (A) (A) (A) (A)
                 (A) (A) (A) (A) (A) (A) (A) (A) (A) (A) (A) (A)
                 (A) (A) (A) (A) (A) (A) (A) (A) (A) (A) (A) (A)
                 (A) (A) (A) (A) (A) (A) (A) (A) (A) (A) (A) (A)
                 (A) (A) (A) (A) (A) (A) (A) (A) (A) (A) (A) (A)
                 (A) (A) (A) (A) (A) (A) (A) (A) (A) (A) (A) (A)
                 (A) (A) (A) (A) (A) (A) (A) (A) (A) (A) (A) (A)
                 (A) (A) (A) (A) (A) (A) (A) (A) (A) (A) (A) (A)
                 (A) (A)
 The electronic state of the initial guess is 1-A.
 Leave Link  401 at Fri Nov 22 14:24:48 2019, MaxMem=  268435456 cpu:       1.3
 (Enter /home/matheus/.gaussian/g09/l502.exe)
 Closed shell SCF:
 Requested convergence on RMS density matrix=1.00D-08 within 128 cycles.
 Requested convergence on MAX density matrix=1.00D-06.
 Requested convergence on             energy=1.00D-06.
 No special actions if energy rises.
 Using DIIS extrapolation, IDIIS=  1040.
 Integral symmetry usage will be decided dynamically.
 IEnd=      178489 IEndB=      178489 NGot=   268435456 MDV=   268326278
 LenX=   268326278 LenY=   268273396
 Fock matrices will be formed incrementally for  20 cycles.

 Cycle   1  Pass 0  IDiag  1:
 FoFCou: FMM=F IPFlag=           0 FMFlag=      100000 FMFlg1=           0
         NFxFlg=           0 DoJE=F BraDBF=F KetDBF=F FulRan=T
         Omega=  0.000000  0.000000  1.000000  0.000000  0.000000 ICntrl=       0 IOpCl=  0
         NMat0=    1 NMatS0=    1 NMatT0=    0 NMatD0=    1 NMtDS0=    0 NMtDT0=    0
         I1Cent=           0 NGrid=           0.
 Symmetry not used in FoFCou.
 E= -2902.75536173295    
 DIIS: error= 4.53D-02 at cycle   1 NSaved=   1.
 NSaved= 1 IEnMin= 1 EnMin= -2902.75536173295     IErMin= 1 ErrMin= 4.53D-02
 ErrMax= 4.53D-02 EMaxC= 1.00D-01 BMatC= 6.96D-01 BMatP= 6.96D-01
 IDIUse=3 WtCom= 5.47D-01 WtEn= 4.53D-01
 Coeff-Com:  0.100D+01
 Coeff-En:   0.100D+01
 Coeff:      0.100D+01
 Gap=     0.699 Goal=   None    Shift=    0.000
 GapD=    0.699 DampG=2.000 DampE=0.500 DampFc=1.0000 IDamp=-1.
 RMSDP=2.26D-03 MaxDP=1.51D-01              OVMax= 5.16D-02

 Cycle   2  Pass 0  IDiag  1:
 RMSU=  1.58D-03    CP:  1.01D+00
 E= -2902.86086463812     Delta-E=       -0.105502905171 Rises=F Damp=F
 DIIS: error= 8.05D-03 at cycle   2 NSaved=   2.
 NSaved= 2 IEnMin= 2 EnMin= -2902.86086463812     IErMin= 2 ErrMin= 8.05D-03
 ErrMax= 8.05D-03 EMaxC= 1.00D-01 BMatC= 4.16D-02 BMatP= 6.96D-01
 IDIUse=3 WtCom= 9.20D-01 WtEn= 8.05D-02
 Coeff-Com:  0.153D+00 0.847D+00
 Coeff-En:   0.000D+00 0.100D+01
 Coeff:      0.141D+00 0.859D+00
 Gap=     0.530 Goal=   None    Shift=    0.000
 RMSDP=8.17D-04 MaxDP=4.27D-02 DE=-1.06D-01 OVMax= 2.46D-02

 Cycle   3  Pass 0  IDiag  1:
 RMSU=  4.47D-04    CP:  1.01D+00  7.79D-01
 E= -2902.87520811346     Delta-E=       -0.014343475330 Rises=F Damp=F
 DIIS: error= 2.18D-03 at cycle   3 NSaved=   3.
 NSaved= 3 IEnMin= 3 EnMin= -2902.87520811346     IErMin= 3 ErrMin= 2.18D-03
 ErrMax= 2.18D-03 EMaxC= 1.00D-01 BMatC= 2.45D-03 BMatP= 4.16D-02
 IDIUse=3 WtCom= 9.78D-01 WtEn= 2.18D-02
 Coeff-Com: -0.587D-02 0.173D+00 0.833D+00
 Coeff-En:   0.000D+00 0.000D+00 0.100D+01
 Coeff:     -0.575D-02 0.169D+00 0.837D+00
 Gap=     0.507 Goal=   None    Shift=    0.000
 RMSDP=1.29D-04 MaxDP=5.02D-03 DE=-1.43D-02 OVMax= 7.84D-03

 Cycle   4  Pass 0  IDiag  1:
 RMSU=  5.00D-05    CP:  1.01D+00  8.11D-01  8.77D-01
 E= -2902.87641552189     Delta-E=       -0.001207408432 Rises=F Damp=F
 DIIS: error= 3.53D-04 at cycle   4 NSaved=   4.
 NSaved= 4 IEnMin= 4 EnMin= -2902.87641552189     IErMin= 4 ErrMin= 3.53D-04
 ErrMax= 3.53D-04 EMaxC= 1.00D-01 BMatC= 5.22D-05 BMatP= 2.45D-03
 IDIUse=3 WtCom= 9.96D-01 WtEn= 3.53D-03
 Coeff-Com: -0.447D-02 0.115D-01 0.155D+00 0.838D+00
 Coeff-En:   0.000D+00 0.000D+00 0.000D+00 0.100D+01
 Coeff:     -0.446D-02 0.115D-01 0.155D+00 0.838D+00
 Gap=     0.511 Goal=   None    Shift=    0.000
 RMSDP=2.27D-05 MaxDP=7.28D-04 DE=-1.21D-03 OVMax= 1.80D-03

 Cycle   5  Pass 0  IDiag  1:
 RMSU=  1.39D-05    CP:  1.01D+00  8.12D-01  8.93D-01  9.78D-01
 E= -2902.87646001488     Delta-E=       -0.000044492993 Rises=F Damp=F
 DIIS: error= 1.01D-04 at cycle   5 NSaved=   5.
 NSaved= 5 IEnMin= 5 EnMin= -2902.87646001488     IErMin= 5 ErrMin= 1.01D-04
 ErrMax= 1.01D-04 EMaxC= 1.00D-01 BMatC= 4.00D-06 BMatP= 5.22D-05
 IDIUse=3 WtCom= 9.99D-01 WtEn= 1.01D-03
 Coeff-Com:  0.879D-03-0.157D-01-0.752D-01 0.230D-02 0.109D+01
 Coeff-En:   0.000D+00 0.000D+00 0.000D+00 0.000D+00 0.100D+01
 Coeff:      0.878D-03-0.157D-01-0.752D-01 0.230D-02 0.109D+01
 Gap=     0.510 Goal=   None    Shift=    0.000
 RMSDP=1.17D-05 MaxDP=3.30D-04 DE=-4.45D-05 OVMax= 8.04D-04

 Cycle   6  Pass 0  IDiag  1:
 RMSU=  5.25D-06    CP:  1.01D+00  8.10D-01  8.90D-01  1.07D+00  1.26D+00
 E= -2902.87646629993     Delta-E=       -0.000006285045 Rises=F Damp=F
 DIIS: error= 3.13D-05 at cycle   6 NSaved=   6.
 NSaved= 6 IEnMin= 6 EnMin= -2902.87646629993     IErMin= 6 ErrMin= 3.13D-05
 ErrMax= 3.13D-05 EMaxC= 1.00D-01 BMatC= 2.95D-07 BMatP= 4.00D-06
 IDIUse=1 WtCom= 1.00D+00 WtEn= 0.00D+00
 Coeff-Com:  0.243D-03-0.345D-03-0.981D-02-0.568D-01 0.558D-02 0.106D+01
 Coeff:      0.243D-03-0.345D-03-0.981D-02-0.568D-01 0.558D-02 0.106D+01
 Gap=     0.511 Goal=   None    Shift=    0.000
 RMSDP=3.80D-06 MaxDP=1.35D-04 DE=-6.29D-06 OVMax= 3.21D-04

 Initial convergence to 1.0D-05 achieved.  Increase integral accuracy.
 Cycle   7  Pass 1  IDiag  1:
 E= -2902.87646690719     Delta-E=       -0.000000607267 Rises=F Damp=F
 DIIS: error= 1.23D-05 at cycle   1 NSaved=   1.
 NSaved= 1 IEnMin= 1 EnMin= -2902.87646690719     IErMin= 1 ErrMin= 1.23D-05
 ErrMax= 1.23D-05 EMaxC= 1.00D-01 BMatC= 5.41D-08 BMatP= 5.41D-08
 IDIUse=1 WtCom= 1.00D+00 WtEn= 0.00D+00
 Coeff-Com:  0.100D+01
 Coeff:      0.100D+01
 Gap=     0.511 Goal=   None    Shift=    0.000
 RMSDP=3.80D-06 MaxDP=1.35D-04 DE=-6.07D-07 OVMax= 1.16D-04

 Cycle   8  Pass 1  IDiag  1:
 RMSU=  8.78D-07    CP:  1.00D+00
 E= -2902.87646698534     Delta-E=       -0.000000078152 Rises=F Damp=F
 DIIS: error= 8.41D-06 at cycle   2 NSaved=   2.
 NSaved= 2 IEnMin= 2 EnMin= -2902.87646698534     IErMin= 2 ErrMin= 8.41D-06
 ErrMax= 8.41D-06 EMaxC= 1.00D-01 BMatC= 2.66D-08 BMatP= 5.41D-08
 IDIUse=1 WtCom= 1.00D+00 WtEn= 0.00D+00
 Coeff-Com:  0.363D+00 0.637D+00
 Coeff:      0.363D+00 0.637D+00
 Gap=     0.511 Goal=   None    Shift=    0.000
 RMSDP=5.40D-07 MaxDP=2.35D-05 DE=-7.82D-08 OVMax= 4.70D-05

 Cycle   9  Pass 1  IDiag  1:
 RMSU=  3.66D-07    CP:  1.00D+00  1.12D+00
 E= -2902.87646701198     Delta-E=       -0.000000026633 Rises=F Damp=F
 DIIS: error= 3.92D-06 at cycle   3 NSaved=   3.
 NSaved= 3 IEnMin= 3 EnMin= -2902.87646701198     IErMin= 3 ErrMin= 3.92D-06
 ErrMax= 3.92D-06 EMaxC= 1.00D-01 BMatC= 4.27D-09 BMatP= 2.66D-08
 IDIUse=1 WtCom= 1.00D+00 WtEn= 0.00D+00
 Coeff-Com: -0.475D+00-0.319D+00 0.179D+01
 Coeff:     -0.475D+00-0.319D+00 0.179D+01
 Gap=     0.511 Goal=   None    Shift=    0.000
 RMSDP=8.56D-07 MaxDP=1.88D-05 DE=-2.66D-08 OVMax= 1.01D-04

 Cycle  10  Pass 1  IDiag  1:
 RMSU=  1.01D-07    CP:  1.00D+00  1.71D+00  1.82D+00
 E= -2902.87646702926     Delta-E=       -0.000000017287 Rises=F Damp=F
 DIIS: error= 6.89D-07 at cycle   4 NSaved=   4.
 NSaved= 4 IEnMin= 4 EnMin= -2902.87646702926     IErMin= 4 ErrMin= 6.89D-07
 ErrMax= 6.89D-07 EMaxC= 1.00D-01 BMatC= 1.70D-10 BMatP= 4.27D-09
 IDIUse=1 WtCom= 1.00D+00 WtEn= 0.00D+00
 Coeff-Com:  0.903D-01 0.405D-01-0.393D+00 0.126D+01
 Coeff:      0.903D-01 0.405D-01-0.393D+00 0.126D+01
 Gap=     0.511 Goal=   None    Shift=    0.000
 RMSDP=1.18D-07 MaxDP=2.90D-06 DE=-1.73D-08 OVMax= 1.71D-05

 Cycle  11  Pass 1  IDiag  1:
 RMSU=  2.96D-08    CP:  1.00D+00  1.76D+00  1.90D+00  1.55D+00
 E= -2902.87646702986     Delta-E=       -0.000000000600 Rises=F Damp=F
 DIIS: error= 2.83D-07 at cycle   5 NSaved=   5.
 NSaved= 5 IEnMin= 5 EnMin= -2902.87646702986     IErMin= 5 ErrMin= 2.83D-07
 ErrMax= 2.83D-07 EMaxC= 1.00D-01 BMatC= 3.34D-11 BMatP= 1.70D-10
 IDIUse=1 WtCom= 1.00D+00 WtEn= 0.00D+00
 Coeff-Com:  0.961D-01 0.622D-01-0.368D+00 0.103D+00 0.111D+01
 Coeff:      0.961D-01 0.622D-01-0.368D+00 0.103D+00 0.111D+01
 Gap=     0.511 Goal=   None    Shift=    0.000
 RMSDP=5.25D-08 MaxDP=1.33D-06 DE=-6.00D-10 OVMax= 7.54D-06

 Cycle  12  Pass 1  IDiag  1:
 RMSU=  1.08D-08    CP:  1.00D+00  1.78D+00  1.93D+00  1.82D+00  1.39D+00
 E= -2902.87646702997     Delta-E=       -0.000000000108 Rises=F Damp=F
 DIIS: error= 1.02D-07 at cycle   6 NSaved=   6.
 NSaved= 6 IEnMin= 6 EnMin= -2902.87646702997     IErMin= 6 ErrMin= 1.02D-07
 ErrMax= 1.02D-07 EMaxC= 1.00D-01 BMatC= 2.87D-12 BMatP= 3.34D-11
 IDIUse=1 WtCom= 1.00D+00 WtEn= 0.00D+00
 Coeff-Com: -0.380D-02-0.717D-03 0.185D-01-0.109D+00 0.381D-02 0.109D+01
 Coeff:     -0.380D-02-0.717D-03 0.185D-01-0.109D+00 0.381D-02 0.109D+01
 Gap=     0.511 Goal=   None    Shift=    0.000
 RMSDP=1.43D-08 MaxDP=3.45D-07 DE=-1.08D-10 OVMax= 1.92D-06

 Cycle  13  Pass 1  IDiag  1:
 RMSU=  3.26D-09    CP:  1.00D+00  1.78D+00  1.93D+00  1.89D+00  1.60D+00
                    CP:  1.22D+00
 E= -2902.87646702996     Delta-E=        0.000000000015 Rises=F Damp=F
 DIIS: error= 2.63D-08 at cycle   7 NSaved=   7.
 NSaved= 7 IEnMin= 6 EnMin= -2902.87646702997     IErMin= 7 ErrMin= 2.63D-08
 ErrMax= 2.63D-08 EMaxC= 1.00D-01 BMatC= 2.86D-13 BMatP= 2.87D-12
 IDIUse=1 WtCom= 1.00D+00 WtEn= 0.00D+00
 Coeff-Com: -0.109D-01-0.676D-02 0.419D-01-0.109D-01-0.150D+00 0.559D-01
 Coeff-Com:  0.108D+01
 Coeff:     -0.109D-01-0.676D-02 0.419D-01-0.109D-01-0.150D+00 0.559D-01
 Coeff:      0.108D+01
 Gap=     0.511 Goal=   None    Shift=    0.000
 RMSDP=4.32D-09 MaxDP=9.78D-08 DE= 1.55D-11 OVMax= 4.71D-07

 SCF Done:  E(RHF) =  -2902.87646703     A.U. after   13 cycles
             Convg  =    0.4316D-08             -V/T =  2.0001
 KE= 2.902647318425D+03 PE=-7.240607035946D+03 EE= 1.284787363258D+03
 Leave Link  502 at Fri Nov 22 14:25:41 2019, MaxMem=  268435456 cpu:     106.5
 (Enter /home/matheus/.gaussian/g09/l801.exe)
 Windowed orbitals will be sorted by symmetry type.
 ExpMin= 2.53D-02 ExpMax= 1.17D+07 ExpMxC= 1.33D+04 IAcc=3 IRadAn=         5 AccDes= 0.00D+00
 HarFok:  IExCor=  205 AccDes= 0.00D+00 IRadAn=         5 IDoV=-2
 ScaDFX=  1.000000  1.000000  1.000000  1.000000
 Largest valence mixing into a core orbital is  1.44D-04
 Largest core mixing into a valence orbital is  2.62D-05
 Range of M.O.s used for correlation:    12   197
 NBasis=   197 NAE=    27 NBE=    27 NFC=    11 NFV=     0
 NROrb=    186 NOA=    16 NOB=    16 NVA=   170 NVB=   170

 **** Warning!!: The largest alpha MO coefficient is  0.15884673D+02

 Leave Link  801 at Fri Nov 22 14:25:42 2019, MaxMem=  268435456 cpu:       0.3
 (Enter /home/matheus/.gaussian/g09/l804.exe)
 Closed-shell transformation, MDV=   268435456 ITran=4 ISComp=1.
 Semi-Direct transformation.
 ModeAB=           2 MOrb=            16 LenV=     267324780
 LASXX=     48528660 LTotXX=    48528660 LenRXX=    48528660
 LTotAB=    49298776 MaxLAS=    78372960 LenRXY=    78372960
 NonZer=    97057320 LenScr=   146313216 LnRSAI=           0
 LnScr1=           0 LExtra=           0 Total=    273214836
 MaxDsk=          -1 SrtSym=           F ITran=            4
 DoSDTr:  NPSUse=  2
 JobTyp=0 Pass  1:  I=   1 to  16.
 (rs|ai) integrals will be sorted in core.
 Complete sort for first half transformation.
 First half transformation complete.
 Begin second half transformation for I=  10.
 Begin second half transformation for I=  10.
 Complete sort for second half transformation.
 Second half transformation complete.
 SymMOI:  orbitals are not symmetric.
 Spin components of T(2) and E(2):
     alpha-alpha T2 =       0.2609800409D-01 E2=     -0.1002158127D+00
     alpha-beta  T2 =       0.1423056817D+00 E2=     -0.5573944173D+00
     beta-beta   T2 =       0.2609800409D-01 E2=     -0.1002158127D+00
 ANorm=    0.1092932610D+01
 E2 =    -0.7578260427D+00 EUMP2 =    -0.29036342930726D+04
 Leave Link  804 at Fri Nov 22 14:26:10 2019, MaxMem=  268435456 cpu:      53.3
 (Enter /home/matheus/.gaussian/g09/l913.exe)
 CIDS:  MDV=   268435456.
 Frozen-core window:  NFC=  11 NFV=   0.
 IFCWin=0 IBDFC=1 NFBD=     0     0 NFCmp=     0     0 NFFFC=     0     0
 Using DD3R+UMP44R for 1st iteration, S=T.
 Using DD4RQ for 2nd and later iterations.
 Would need an additional       431206676 words for in-memory AO integral storage.
 MP4(SDTQ)
 =========
 DD1Dir will call FoFDir   1 times, MxPair=       272
 NAB=   136 NAA=     0 NBB=     0 NumPrc=  2.
 Integrals replicated using symmetry in FoFDir.
 MinBra= 0 MaxBra= 3 Meth= 1.
 IRaf=       0 NMat= 272 IRICut=     340 DoRegI=T DoRafI=T ISym2E= 2 JSym2E=2.
 MP4(D)= -0.14957661D-01
 MP4(S)= -0.65370762D-02
 MP4(R+Q)=  0.15535961D-01
 T4(AAA)= -0.10582618D-02
 T4(AAB)= -0.14296472D-01
 Time for triples=     1379.04 seconds.
 MP4(T)=   -0.30709467D-01
 E3=       -0.11113825D-01        EUMP3=      -0.29036454069D+04
 E4(DQ)=    0.57829959D-03        UMP4(DQ)=   -0.29036448286D+04
 E4(SDQ)=  -0.59587766D-02        UMP4(SDQ)=  -0.29036513657D+04
 E4(SDTQ)= -0.36668243D-01        UMP4(SDTQ)= -0.29036820751D+04
 VARIATIONAL ENERGIES WITH THE FIRST-ORDER WAVEFUNCTION:
 E(VAR1)=  -0.29035201998D+04     E(CISD,4)=  -0.29035195032D+04
 Largest amplitude= 4.20D-02
 Leave Link  913 at Fri Nov 22 14:38:51 2019, MaxMem=  268435456 cpu:    1479.8
 (Enter /home/matheus/.gaussian/g09/l601.exe)
 Copying SCF densities to generalized density rwf, IOpCl= 0 IROHF=0.

 **********************************************************************

            Population analysis using the SCF density.

 **********************************************************************

 Orbital symmetries:
       Occupied  (A) (A) (A) (A) (A) (A) (A) (A) (A) (A) (A) (A)
                 (A) (A) (A) (A) (A) (A) (A) (A) (A) (A) (A) (A)
                 (A) (A) (A)
       Virtual   (A) (A) (A) (A) (A) (A) (A) (A) (A) (A) (A) (A)
                 (A) (A) (A) (A) (A) (A) (A) (A) (A) (A) (A) (A)
                 (A) (A) (A) (A) (A) (A) (A) (A) (A) (A) (A) (A)
                 (A) (A) (A) (A) (A) (A) (A) (A) (A) (A) (A) (A)
                 (A) (A) (A) (A) (A) (A) (A) (A) (A) (A) (A) (A)
                 (A) (A) (A) (A) (A) (A) (A) (A) (A) (A) (A) (A)
                 (A) (A) (A) (A) (A) (A) (A) (A) (A) (A) (A) (A)
                 (A) (A) (A) (A) (A) (A) (A) (A) (A) (A) (A) (A)
                 (A) (A) (A) (A) (A) (A) (A) (A) (A) (A) (A) (A)
                 (A) (A) (A) (A) (A) (A) (A) (A) (A) (A) (A) (A)
                 (A) (A) (A) (A) (A) (A) (A) (A) (A) (A) (A) (A)
                 (A) (A) (A) (A) (A) (A) (A) (A) (A) (A) (A) (A)
                 (A) (A) (A) (A) (A) (A) (A) (A) (A) (A) (A) (A)
                 (A) (A) (A) (A) (A) (A) (A) (A) (A) (A) (A) (A)
                 (A) (A)
 The electronic state is 1-A.
 Alpha  occ. eigenvalues -- -520.18875 -69.92632 -63.03289 -63.03288 -63.03284
 Alpha  occ. eigenvalues --  -20.63059 -20.62796 -10.87297  -8.35516  -8.35499
 Alpha  occ. eigenvalues --   -8.35481  -3.84896  -3.84893  -3.84870  -3.84854
 Alpha  occ. eigenvalues --   -3.84849  -1.46864  -1.21739  -1.17930  -0.75688
 Alpha  occ. eigenvalues --   -0.66686  -0.60088  -0.55722  -0.54811  -0.54230
 Alpha  occ. eigenvalues --   -0.52552  -0.47563
 Alpha virt. eigenvalues --    0.03495   0.04551   0.08643   0.09602   0.11573
 Alpha virt. eigenvalues --    0.12957   0.14412   0.15678   0.18136   0.18879
 Alpha virt. eigenvalues --    0.19111   0.21117   0.22586   0.25928   0.26548
 Alpha virt. eigenvalues --    0.27519   0.28190   0.31352   0.33901   0.34342
 Alpha virt. eigenvalues --    0.35556   0.37358   0.39896   0.41333   0.42294
 Alpha virt. eigenvalues --    0.44395   0.46640   0.51306   0.57029   0.58859
 Alpha virt. eigenvalues --    0.60653   0.64651   0.66197   0.68929   0.72968
 Alpha virt. eigenvalues --    0.75101   0.77039   0.79054   0.81210   0.82452
 Alpha virt. eigenvalues --    0.83346   0.83658   0.85665   0.86572   0.89601
 Alpha virt. eigenvalues --    0.90879   0.92312   0.93819   0.95148   0.97667
 Alpha virt. eigenvalues --    0.99296   1.01055   1.02229   1.04209   1.04632
 Alpha virt. eigenvalues --    1.05573   1.10533   1.13635   1.14702   1.18401
 Alpha virt. eigenvalues --    1.18939   1.21249   1.24294   1.29716   1.32541
 Alpha virt. eigenvalues --    1.34912   1.43403   1.46234   1.48359   1.50036
 Alpha virt. eigenvalues --    1.52328   1.57075   1.59168   1.63777   1.69366
 Alpha virt. eigenvalues --    1.78875   1.81940   1.96933   2.06032   2.07753
 Alpha virt. eigenvalues --    2.15911   2.19573   2.22577   2.26804   2.32651
 Alpha virt. eigenvalues --    2.33075   2.36347   2.36736   2.41264   2.43545
 Alpha virt. eigenvalues --    2.45396   2.46154   2.48514   2.52127   2.52670
 Alpha virt. eigenvalues --    2.55020   2.58728   2.63885   2.65434   2.67674
 Alpha virt. eigenvalues --    2.68252   2.69879   2.70893   2.74973   2.77047
 Alpha virt. eigenvalues --    2.77593   2.78094   2.83696   2.87711   2.90499
 Alpha virt. eigenvalues --    2.92920   2.94094   2.98900   3.05073   3.07900
 Alpha virt. eigenvalues --    3.13594   3.20403   3.30187   3.31543   3.82402
 Alpha virt. eigenvalues --    3.90327   4.16065   4.22175   4.23325   4.26516
 Alpha virt. eigenvalues --    4.31927   4.40041   4.45823   4.47266   4.50088
 Alpha virt. eigenvalues --    4.58739   4.75187   4.86385   4.89127   4.96649
 Alpha virt. eigenvalues --    5.20462   5.25258   5.26139   5.37194   5.43939
 Alpha virt. eigenvalues --    5.45063   5.79705   6.18401   6.36099   6.47248
 Alpha virt. eigenvalues --    6.50054   6.62174   6.70047   6.75647   6.86391
 Alpha virt. eigenvalues --    6.99750   7.15578   7.17484   7.21188   7.22313
 Alpha virt. eigenvalues --    7.25502   7.28065   7.31527   7.33637   7.40095
 Alpha virt. eigenvalues --    7.48764   7.54261   7.61985   7.86863   7.90247
 Alpha virt. eigenvalues --    8.23783   8.47969   8.55243  14.73145  15.32121
          Condensed to atoms (all electrons):
              1          2          3          4          5
     1  O    8.136108  -0.086729   0.235034  -0.001082  -0.020519
     2  O   -0.086729   8.147991   0.010534   0.237032  -0.015560
     3  H    0.235034   0.010534   0.493868  -0.003572  -0.001086
     4  H   -0.001082   0.237032  -0.003572   0.495718  -0.006397
     5  Kr  -0.020519  -0.015560  -0.001086  -0.006397  36.031002
 Mulliken atomic charges:
              1
     1  O   -0.262813
     2  O   -0.293268
     3  H    0.265221
     4  H    0.278300
     5  Kr   0.012560
 Sum of Mulliken atomic charges =   0.00000
 Mulliken charges with hydrogens summed into heavy atoms:
              1
     1  O    0.002408
     2  O   -0.014968
     5  Kr   0.012560
 Sum of Mulliken charges with hydrogens summed into heavy atoms =   0.00000
 Electronic spatial extent (au):  <R**2>=            479.8568
 Charge=              0.0000 electrons
 Dipole moment (field-independent basis, Debye):
    X=             -2.7236    Y=             -0.2676    Z=              1.2967  Tot=              3.0284
 Quadrupole moment (field-independent basis, Debye-Ang):
   XX=            -37.7454   YY=            -27.8714   ZZ=            -29.1963
   XY=             -1.1842   XZ=              2.1099   YZ=             -1.6579
 Traceless Quadrupole moment (field-independent basis, Debye-Ang):
   XX=             -6.1410   YY=              3.7330   ZZ=              2.4080
   XY=             -1.1842   XZ=              2.1099   YZ=             -1.6579
 Octapole moment (field-independent basis, Debye-Ang**2):
  XXX=            -41.7037  YYY=             -0.7336  ZZZ=              0.8277  XYY=             -6.2636
  XXY=             -3.1514  XXZ=              2.5658  XZZ=             -6.1509  YZZ=             -1.4198
  YYZ=              2.0310  XYZ=             -2.6737
 Hexadecapole moment (field-independent basis, Debye-Ang**3):
 XXXX=           -461.1685 YYYY=            -62.1540 ZZZZ=            -28.8825 XXXY=             -5.1028
 XXXZ=              3.7616 YYYX=             -2.2655 YYYZ=             -2.4257 ZZZX=              1.7578
 ZZZY=             -1.5994 XXYY=            -83.8477 XXZZ=            -73.0469 YYZZ=            -15.8228
 XXYZ=             -4.4294 YYXZ=              3.2373 ZZXY=             -2.2649
 N-N= 1.502958872335D+02 E-N=-7.240607035762D+03  KE= 2.902647318425D+03
 Leave Link  601 at Fri Nov 22 14:38:52 2019, MaxMem=  268435456 cpu:       0.2
 (Enter /home/matheus/.gaussian/g09/l108.exe)
 Variable Step   Value    
 -------- ---- -----------
     1       1    5.858151
 Leave Link  108 at Fri Nov 22 14:38:52 2019, MaxMem=  268435456 cpu:       0.1
 (Enter /home/matheus/.gaussian/g09/l202.exe)
 ---------------------------------------------------------------------------------------------------
                            Z-MATRIX (ANGSTROMS AND DEGREES)
   CD    Cent   Atom    N1       Length/X        N2       Alpha/Y        N3        Beta/Z          J
 ---------------------------------------------------------------------------------------------------
      1      1  O        0   0.000000          0.000000          0.725000
      2      2  O        0   0.000000          0.000000         -0.725000
      3      3  H        0   0.795635          0.459360          1.023510
      4      4  H        0   0.000000          0.918721         -1.023510
      5      5  Kr       0   0.000000          3.100000          0.000000
 ---------------------------------------------------------------------------------------------------
                         Z-Matrix orientation:                         
 ---------------------------------------------------------------------
 Center     Atomic      Atomic             Coordinates (Angstroms)
 Number     Number       Type             X           Y           Z
 ---------------------------------------------------------------------
      1          8           0        0.000000    0.000000    0.725000
      2          8           0        0.000000    0.000000   -0.725000
      3          1           0        0.795635    0.459360    1.023510
      4          1           0        0.000000    0.918721   -1.023510
      5         36           0        0.000000    3.100000    0.000000
 ---------------------------------------------------------------------
                    Distance matrix (angstroms):
                    1          2          3          4          5
     1  O    0.000000
     2  O    1.450000   0.000000
     3  H    0.966000   1.975180   0.000000
     4  H    1.975180   0.966000   2.243734   0.000000
     5  Kr   3.183650   3.183650   2.941698   2.409472   0.000000
 Stoichiometry    H2KrO2
 Framework group  C1[X(H2KrO2)]
 Deg. of freedom     9
 Full point group                 C1      NOp   1
 RotChk:  IX=0 Diff= 6.82D-04
 Largest Abelian subgroup         C1      NOp   1
 Largest concise Abelian subgroup C1      NOp   1
                         Standard orientation:                         
 ---------------------------------------------------------------------
 Center     Atomic      Atomic             Coordinates (Angstroms)
 Number     Number       Type             X           Y           Z
 ---------------------------------------------------------------------
      1          8           0        2.095314   -0.709431   -0.097225
      2          8           0        2.088369    0.735799    0.020094
      3          1           0        1.646842   -1.073918    0.676841
      4          1           0        1.168293    1.028061    0.054733
      5         36           0       -1.007906   -0.004586   -0.003181
 ---------------------------------------------------------------------
 Rotational constants (GHZ):     25.8520854      2.2159232      2.0507076
 Leave Link  202 at Fri Nov 22 14:38:52 2019, MaxMem=  268435456 cpu:       0.0
 (Enter /home/matheus/.gaussian/g09/l301.exe)
 Standard basis: Aug-CC-pVTZ (5D, 7F)
 Ernie: Thresh=  0.10000D-02 Tol=  0.10000D-05 Strict=F.
 Ernie:  38 primitive shells out of 205 were deleted.
 There are   197 symmetry adapted basis functions of A   symmetry.
 Integral buffers will be    131072 words long.
 Raffenetti 1 integral format.
 Two-electron integral symmetry is turned on.
   197 basis functions,   415 primitive gaussians,   229 cartesian basis functions
    27 alpha electrons       27 beta electrons
       nuclear repulsion energy       146.7676096931 Hartrees.
 IExCor=    0 DFT=F Ex=HF Corr=None ExCW=0 ScaHFX=  1.000000
 ScaDFX=  1.000000  1.000000  1.000000  1.000000 ScalE2=  1.000000  1.000000
 IRadAn=      5 IRanWt=     -1 IRanGd=            0 ICorTp=0
 NAtoms=    5 NActive=    5 NUniq=    5 SFac= 1.00D+00 NAtFMM=   60 NAOKFM=F Big=F
 Leave Link  301 at Fri Nov 22 14:38:52 2019, MaxMem=  268435456 cpu:       0.1
 (Enter /home/matheus/.gaussian/g09/l302.exe)
 NPDir=0 NMtPBC=     1 NCelOv=     1 NCel=       1 NClECP=     1 NCelD=      1
         NCelK=      1 NCelE2=     1 NClLst=     1 CellRange=     0.0.
 One-electron integrals computed using PRISM.
 NBasis=   197 RedAO= T  NBF=   197
 NBsUse=   197 1.00D-06 NBFU=   197
 Leave Link  302 at Fri Nov 22 14:38:52 2019, MaxMem=  268435456 cpu:       0.3
 (Enter /home/matheus/.gaussian/g09/l303.exe)
 DipDrv:  MaxL=1.
 Leave Link  303 at Fri Nov 22 14:38:53 2019, MaxMem=  268435456 cpu:       0.1
 (Enter /home/matheus/.gaussian/g09/l401.exe)
 Initial guess read from the read-write file.
 B after Tr=     0.000000    0.000000    0.000000
         Rot=    1.000000    0.000000    0.000000    0.000000 Ang=   0.00 deg.
 Guess basis will be translated and rotated to current coordinates.
 Initial guess orbital symmetries:
       Occupied  (A) (A) (A) (A) (A) (A) (A) (A) (A) (A) (A) (A)
                 (A) (A) (A) (A) (A) (A) (A) (A) (A) (A) (A) (A)
                 (A) (A) (A)
       Virtual   (A) (A) (A) (A) (A) (A) (A) (A) (A) (A) (A) (A)
                 (A) (A) (A) (A) (A) (A) (A) (A) (A) (A) (A) (A)
                 (A) (A) (A) (A) (A) (A) (A) (A) (A) (A) (A) (A)
                 (A) (A) (A) (A) (A) (A) (A) (A) (A) (A) (A) (A)
                 (A) (A) (A) (A) (A) (A) (A) (A) (A) (A) (A) (A)
                 (A) (A) (A) (A) (A) (A) (A) (A) (A) (A) (A) (A)
                 (A) (A) (A) (A) (A) (A) (A) (A) (A) (A) (A) (A)
                 (A) (A) (A) (A) (A) (A) (A) (A) (A) (A) (A) (A)
                 (A) (A) (A) (A) (A) (A) (A) (A) (A) (A) (A) (A)
                 (A) (A) (A) (A) (A) (A) (A) (A) (A) (A) (A) (A)
                 (A) (A) (A) (A) (A) (A) (A) (A) (A) (A) (A) (A)
                 (A) (A) (A) (A) (A) (A) (A) (A) (A) (A) (A) (A)
                 (A) (A) (A) (A) (A) (A) (A) (A) (A) (A) (A) (A)
                 (A) (A) (A) (A) (A) (A) (A) (A) (A) (A) (A) (A)
                 (A) (A)
 The electronic state of the initial guess is 1-A.
 Generating alternative initial guess.
 Harris functional with IExCor=  205 diagonalized for initial guess.
 ExpMin= 2.53D-02 ExpMax= 1.17D+07 ExpMxC= 1.33D+04 IAcc=3 IRadAn=         5 AccDes= 0.00D+00
 HarFok:  IExCor=  205 AccDes= 0.00D+00 IRadAn=         5 IDoV= 1
 ScaDFX=  1.000000  1.000000  1.000000  1.000000
 FoFCou: FMM=F IPFlag=           0 FMFlag=      100000 FMFlg1=           0
         NFxFlg=           0 DoJE=T BraDBF=F KetDBF=T FulRan=T
         Omega=  0.000000  0.000000  1.000000  0.000000  0.000000 ICntrl=     500 IOpCl=  0
         NMat0=    1 NMatS0=    1 NMatT0=    0 NMatD0=    1 NMtDS0=    0 NMtDT0=    0
         I1Cent=           4 NGrid=           0.
 Petite list used in FoFCou.
 Harris En= -2901.93162613343    
 Leave Link  401 at Fri Nov 22 14:38:54 2019, MaxMem=  268435456 cpu:       1.4
 (Enter /home/matheus/.gaussian/g09/l502.exe)
 Closed shell SCF:
 Requested convergence on RMS density matrix=1.00D-08 within 128 cycles.
 Requested convergence on MAX density matrix=1.00D-06.
 Requested convergence on             energy=1.00D-06.
 No special actions if energy rises.
 Using DIIS extrapolation, IDIIS=  1040.
 Integral symmetry usage will be decided dynamically.
 IEnd=      178489 IEndB=      178489 NGot=   268435456 MDV=   268326278
 LenX=   268326278 LenY=   268273396
 Fock matrices will be formed incrementally for  20 cycles.

 Cycle   1  Pass 0  IDiag  1:
 FoFCou: FMM=F IPFlag=           0 FMFlag=      100000 FMFlg1=           0
         NFxFlg=           0 DoJE=F BraDBF=F KetDBF=F FulRan=T
         Omega=  0.000000  0.000000  1.000000  0.000000  0.000000 ICntrl=       0 IOpCl=  0
         NMat0=    1 NMatS0=    1 NMatT0=    0 NMatD0=    1 NMtDS0=    0 NMtDT0=    0
         I1Cent=           0 NGrid=           0.
 Symmetry not used in FoFCou.
 E= -2902.87915126210    
 DIIS: error= 5.59D-04 at cycle   1 NSaved=   1.
 NSaved= 1 IEnMin= 1 EnMin= -2902.87915126210     IErMin= 1 ErrMin= 5.59D-04
 ErrMax= 5.59D-04 EMaxC= 1.00D-01 BMatC= 7.04D-05 BMatP= 7.04D-05
 IDIUse=3 WtCom= 9.94D-01 WtEn= 5.59D-03
 Coeff-Com:  0.100D+01
 Coeff-En:   0.100D+01
 Coeff:      0.100D+01
 Gap=     0.512 Goal=   None    Shift=    0.000
 RMSDP=7.22D-05 MaxDP=3.09D-03              OVMax= 2.76D-03

 Cycle   2  Pass 0  IDiag  1:
 RMSU=  5.11D-05    CP:  1.00D+00
 E= -2902.87923254222     Delta-E=       -0.000081280116 Rises=F Damp=F
 DIIS: error= 9.01D-05 at cycle   2 NSaved=   2.
 NSaved= 2 IEnMin= 2 EnMin= -2902.87923254222     IErMin= 2 ErrMin= 9.01D-05
 ErrMax= 9.01D-05 EMaxC= 1.00D-01 BMatC= 2.43D-06 BMatP= 7.04D-05
 IDIUse=1 WtCom= 1.00D+00 WtEn= 0.00D+00
 Coeff-Com: -0.692D-01 0.107D+01
 Coeff:     -0.692D-01 0.107D+01
 Gap=     0.511 Goal=   None    Shift=    0.000
 RMSDP=1.25D-05 MaxDP=4.71D-04 DE=-8.13D-05 OVMax= 6.69D-04

 Cycle   3  Pass 0  IDiag  1:
 RMSU=  5.95D-06    CP:  1.00D+00  1.13D+00
 E= -2902.87923583799     Delta-E=       -0.000003295779 Rises=F Damp=F
 DIIS: error= 3.83D-05 at cycle   3 NSaved=   3.
 NSaved= 3 IEnMin= 3 EnMin= -2902.87923583799     IErMin= 3 ErrMin= 3.83D-05
 ErrMax= 3.83D-05 EMaxC= 1.00D-01 BMatC= 4.12D-07 BMatP= 2.43D-06
 IDIUse=1 WtCom= 1.00D+00 WtEn= 0.00D+00
 Coeff-Com: -0.436D-01 0.274D+00 0.770D+00
 Coeff:     -0.436D-01 0.274D+00 0.770D+00
 Gap=     0.511 Goal=   None    Shift=    0.000
 RMSDP=2.48D-06 MaxDP=7.11D-05 DE=-3.30D-06 OVMax= 1.62D-04

 Initial convergence to 1.0D-05 achieved.  Increase integral accuracy.
 Cycle   4  Pass 1  IDiag  1:
 E= -2902.87923620315     Delta-E=       -0.000000365156 Rises=F Damp=F
 DIIS: error= 1.13D-05 at cycle   1 NSaved=   1.
 NSaved= 1 IEnMin= 1 EnMin= -2902.87923620315     IErMin= 1 ErrMin= 1.13D-05
 ErrMax= 1.13D-05 EMaxC= 1.00D-01 BMatC= 3.11D-08 BMatP= 3.11D-08
 IDIUse=1 WtCom= 1.00D+00 WtEn= 0.00D+00
 Coeff-Com:  0.100D+01
 Coeff:      0.100D+01
 Gap=     0.511 Goal=   None    Shift=    0.000
 RMSDP=2.48D-06 MaxDP=7.11D-05 DE=-3.65D-07 OVMax= 6.56D-05

 Cycle   5  Pass 1  IDiag  1:
 RMSU=  7.84D-07    CP:  1.00D+00
 E= -2902.87923624611     Delta-E=       -0.000000042956 Rises=F Damp=F
 DIIS: error= 6.84D-06 at cycle   2 NSaved=   2.
 NSaved= 2 IEnMin= 2 EnMin= -2902.87923624611     IErMin= 2 ErrMin= 6.84D-06
 ErrMax= 6.84D-06 EMaxC= 1.00D-01 BMatC= 1.13D-08 BMatP= 3.11D-08
 IDIUse=1 WtCom= 1.00D+00 WtEn= 0.00D+00
 Coeff-Com:  0.310D+00 0.690D+00
 Coeff:      0.310D+00 0.690D+00
 Gap=     0.511 Goal=   None    Shift=    0.000
 RMSDP=3.20D-07 MaxDP=1.17D-05 DE=-4.30D-08 OVMax= 3.67D-05

 Cycle   6  Pass 1  IDiag  1:
 RMSU=  2.17D-07    CP:  1.00D+00  1.08D+00
 E= -2902.87923625722     Delta-E=       -0.000000011110 Rises=F Damp=F
 DIIS: error= 2.71D-06 at cycle   3 NSaved=   3.
 NSaved= 3 IEnMin= 3 EnMin= -2902.87923625722     IErMin= 3 ErrMin= 2.71D-06
 ErrMax= 2.71D-06 EMaxC= 1.00D-01 BMatC= 1.82D-09 BMatP= 1.13D-08
 IDIUse=1 WtCom= 1.00D+00 WtEn= 0.00D+00
 Coeff-Com: -0.305D+00-0.759D-01 0.138D+01
 Coeff:     -0.305D+00-0.759D-01 0.138D+01
 Gap=     0.511 Goal=   None    Shift=    0.000
 RMSDP=4.03D-07 MaxDP=1.10D-05 DE=-1.11D-08 OVMax= 2.45D-05

 Cycle   7  Pass 1  IDiag  1:
 RMSU=  1.02D-07    CP:  1.00D+00  1.40D+00  1.36D+00
 E= -2902.87923626162     Delta-E=       -0.000000004408 Rises=F Damp=F
 DIIS: error= 5.95D-07 at cycle   4 NSaved=   4.
 NSaved= 4 IEnMin= 4 EnMin= -2902.87923626162     IErMin= 4 ErrMin= 5.95D-07
 ErrMax= 5.95D-07 EMaxC= 1.00D-01 BMatC= 9.81D-11 BMatP= 1.82D-09
 IDIUse=1 WtCom= 1.00D+00 WtEn= 0.00D+00
 Coeff-Com: -0.885D-01-0.468D-01 0.311D+00 0.824D+00
 Coeff:     -0.885D-01-0.468D-01 0.311D+00 0.824D+00
 Gap=     0.511 Goal=   None    Shift=    0.000
 RMSDP=6.03D-08 MaxDP=1.81D-06 DE=-4.41D-09 OVMax= 4.85D-06

 Cycle   8  Pass 1  IDiag  1:
 RMSU=  2.73D-08    CP:  1.00D+00  1.42D+00  1.40D+00  1.27D+00
 E= -2902.87923626177     Delta-E=       -0.000000000146 Rises=F Damp=F
 DIIS: error= 1.77D-07 at cycle   5 NSaved=   5.
 NSaved= 5 IEnMin= 5 EnMin= -2902.87923626177     IErMin= 5 ErrMin= 1.77D-07
 ErrMax= 1.77D-07 EMaxC= 1.00D-01 BMatC= 1.34D-11 BMatP= 9.81D-11
 IDIUse=1 WtCom= 1.00D+00 WtEn= 0.00D+00
 Coeff-Com:  0.611D-01 0.263D-01-0.279D+00-0.892D-01 0.128D+01
 Coeff:      0.611D-01 0.263D-01-0.279D+00-0.892D-01 0.128D+01
 Gap=     0.511 Goal=   None    Shift=    0.000
 RMSDP=4.04D-08 MaxDP=9.50D-07 DE=-1.46D-10 OVMax= 2.48D-06

 Cycle   9  Pass 1  IDiag  1:
 RMSU=  8.31D-09    CP:  1.00D+00  1.42D+00  1.40D+00  1.53D+00  1.31D+00
 E= -2902.87923626182     Delta-E=       -0.000000000046 Rises=F Damp=F
 DIIS: error= 4.02D-08 at cycle   6 NSaved=   6.
 NSaved= 6 IEnMin= 6 EnMin= -2902.87923626182     IErMin= 6 ErrMin= 4.02D-08
 ErrMax= 4.02D-08 EMaxC= 1.00D-01 BMatC= 6.85D-13 BMatP= 1.34D-11
 IDIUse=1 WtCom= 1.00D+00 WtEn= 0.00D+00
 Coeff-Com:  0.143D-02 0.298D-02-0.575D-02-0.352D-01-0.588D-01 0.110D+01
 Coeff:      0.143D-02 0.298D-02-0.575D-02-0.352D-01-0.588D-01 0.110D+01
 Gap=     0.511 Goal=   None    Shift=    0.000
 RMSDP=6.26D-09 MaxDP=1.46D-07 DE=-4.64D-11 OVMax= 6.04D-07

 SCF Done:  E(RHF) =  -2902.87923626     A.U. after    9 cycles
             Convg  =    0.6264D-08             -V/T =  2.0001
 KE= 2.902627690589D+03 PE=-7.233554211085D+03 EE= 1.281279674541D+03
 Leave Link  502 at Fri Nov 22 14:39:29 2019, MaxMem=  268435456 cpu:      71.4
 (Enter /home/matheus/.gaussian/g09/l801.exe)
 Windowed orbitals will be sorted by symmetry type.
 ExpMin= 2.53D-02 ExpMax= 1.17D+07 ExpMxC= 1.33D+04 IAcc=3 IRadAn=         5 AccDes= 0.00D+00
 HarFok:  IExCor=  205 AccDes= 0.00D+00 IRadAn=         5 IDoV=-2
 ScaDFX=  1.000000  1.000000  1.000000  1.000000
 Largest valence mixing into a core orbital is  1.45D-04
 Largest core mixing into a valence orbital is  2.62D-05
 Range of M.O.s used for correlation:    12   197
 NBasis=   197 NAE=    27 NBE=    27 NFC=    11 NFV=     0
 NROrb=    186 NOA=    16 NOB=    16 NVA=   170 NVB=   170

 **** Warning!!: The largest alpha MO coefficient is  0.16435185D+02

 Leave Link  801 at Fri Nov 22 14:39:30 2019, MaxMem=  268435456 cpu:       0.3
 (Enter /home/matheus/.gaussian/g09/l804.exe)
 Closed-shell transformation, MDV=   268435456 ITran=4 ISComp=1.
 Semi-Direct transformation.
 ModeAB=           2 MOrb=            16 LenV=     267326088
 LASXX=     48528660 LTotXX=    48528660 LenRXX=    48528660
 LTotAB=    49298776 MaxLAS=    78372960 LenRXY=    78372960
 NonZer=    97057320 LenScr=   146313216 LnRSAI=           0
 LnScr1=           0 LExtra=           0 Total=    273214836
 MaxDsk=          -1 SrtSym=           F ITran=            4
 DoSDTr:  NPSUse=  2
 JobTyp=0 Pass  1:  I=   1 to  16.
 (rs|ai) integrals will be sorted in core.
 Complete sort for first half transformation.
 First half transformation complete.
 Begin second half transformation for I=  10.
 Begin second half transformation for I=  10.
 Complete sort for second half transformation.
 Second half transformation complete.
 SymMOI:  orbitals are not symmetric.
 Spin components of T(2) and E(2):
     alpha-alpha T2 =       0.2601945519D-01 E2=     -0.9994115350D-01
     alpha-beta  T2 =       0.1422055991D+00 E2=     -0.5567648169D+00
     beta-beta   T2 =       0.2601945519D-01 E2=     -0.9994115350D-01
 ANorm=    0.1092814947D+01
 E2 =    -0.7566471239D+00 EUMP2 =    -0.29036358833857D+04
 Leave Link  804 at Fri Nov 22 14:39:58 2019, MaxMem=  268435456 cpu:      52.5
 (Enter /home/matheus/.gaussian/g09/l913.exe)
 CIDS:  MDV=   268435456.
 Frozen-core window:  NFC=  11 NFV=   0.
 IFCWin=0 IBDFC=1 NFBD=     0     0 NFCmp=     0     0 NFFFC=     0     0
 Using DD3R+UMP44R for 1st iteration, S=T.
 Using DD4RQ for 2nd and later iterations.
 Would need an additional       431206676 words for in-memory AO integral storage.
 MP4(SDTQ)
 =========
 DD1Dir will call FoFDir   1 times, MxPair=       272
 NAB=   136 NAA=     0 NBB=     0 NumPrc=  2.
 Integrals replicated using symmetry in FoFDir.
 MinBra= 0 MaxBra= 3 Meth= 1.
 IRaf=       0 NMat= 272 IRICut=     340 DoRegI=T DoRafI=T ISym2E= 2 JSym2E=2.
 MP4(D)= -0.14957976D-01
 MP4(S)= -0.65055571D-02
 MP4(R+Q)=  0.15455676D-01
 T4(AAA)= -0.10475498D-02
 T4(AAB)= -0.14228517D-01
 Time for triples=     1398.10 seconds.
 MP4(T)=   -0.30552133D-01
 E3=       -0.11262825D-01        EUMP3=      -0.29036471462D+04
 E4(DQ)=    0.49770068D-03        UMP4(DQ)=   -0.29036466485D+04
 E4(SDQ)=  -0.60078564D-02        UMP4(SDQ)=  -0.29036531541D+04
 E4(SDTQ)= -0.36559989D-01        UMP4(SDTQ)= -0.29036837062D+04
 VARIATIONAL ENERGIES WITH THE FIRST-ORDER WAVEFUNCTION:
 E(VAR1)=  -0.29035222452D+04     E(CISD,4)=  -0.29035216352D+04
 Largest amplitude= 4.18D-02
 Leave Link  913 at Fri Nov 22 14:52:47 2019, MaxMem=  268435456 cpu:    1496.6
 (Enter /home/matheus/.gaussian/g09/l108.exe)
 Variable Step   Value    
 -------- ---- -----------
     1       2    6.047124
 Leave Link  108 at Fri Nov 22 14:52:48 2019, MaxMem=  268435456 cpu:       0.2
 (Enter /home/matheus/.gaussian/g09/l202.exe)
 ---------------------------------------------------------------------------------------------------
                            Z-MATRIX (ANGSTROMS AND DEGREES)
   CD    Cent   Atom    N1       Length/X        N2       Alpha/Y        N3        Beta/Z          J
 ---------------------------------------------------------------------------------------------------
      1      1  O        0   0.000000          0.000000          0.725000
      2      2  O        0   0.000000          0.000000         -0.725000
      3      3  H        0   0.795635          0.459360          1.023510
      4      4  H        0   0.000000          0.918721         -1.023510
      5      5  Kr       0   0.000000          3.200000          0.000000
 ---------------------------------------------------------------------------------------------------
                         Z-Matrix orientation:                         
 ---------------------------------------------------------------------
 Center     Atomic      Atomic             Coordinates (Angstroms)
 Number     Number       Type             X           Y           Z
 ---------------------------------------------------------------------
      1          8           0        0.000000    0.000000    0.725000
      2          8           0        0.000000    0.000000   -0.725000
      3          1           0        0.795635    0.459360    1.023510
      4          1           0        0.000000    0.918721   -1.023510
      5         36           0        0.000000    3.200000    0.000000
 ---------------------------------------------------------------------
                    Distance matrix (angstroms):
                    1          2          3          4          5
     1  O    0.000000
     2  O    1.450000   0.000000
     3  H    0.966000   1.975180   0.000000
     4  H    1.975180   0.966000   2.243734   0.000000
     5  Kr   3.281101   3.281101   3.031784   2.500362   0.000000
 Stoichiometry    H2KrO2
 Framework group  C1[X(H2KrO2)]
 Deg. of freedom     9
 Full point group                 C1      NOp   1
 RotChk:  IX=0 Diff= 6.26D-04
 Largest Abelian subgroup         C1      NOp   1
 Largest concise Abelian subgroup C1      NOp   1
                         Standard orientation:                         
 ---------------------------------------------------------------------
 Center     Atomic      Atomic             Coordinates (Angstroms)
 Number     Number       Type             X           Y           Z
 ---------------------------------------------------------------------
      1          8           0        2.161751   -0.709812   -0.097418
      2          8           0        2.155285    0.735419    0.019917
      3          1           0        1.712943   -1.074150    0.676524
      4          1           0        1.235303    1.028006    0.054314
      5         36           0       -1.041237   -0.004409   -0.003079
 ---------------------------------------------------------------------
 Rotational constants (GHZ):     25.8521633      2.0787693      1.9326970
 Leave Link  202 at Fri Nov 22 14:52:48 2019, MaxMem=  268435456 cpu:       0.0
 (Enter /home/matheus/.gaussian/g09/l301.exe)
 Standard basis: Aug-CC-pVTZ (5D, 7F)
 Ernie: Thresh=  0.10000D-02 Tol=  0.10000D-05 Strict=F.
 Ernie:  38 primitive shells out of 205 were deleted.
 There are   197 symmetry adapted basis functions of A   symmetry.
 Integral buffers will be    131072 words long.
 Raffenetti 1 integral format.
 Two-electron integral symmetry is turned on.
   197 basis functions,   415 primitive gaussians,   229 cartesian basis functions
    27 alpha electrons       27 beta electrons
       nuclear repulsion energy       143.4441835208 Hartrees.
 IExCor=    0 DFT=F Ex=HF Corr=None ExCW=0 ScaHFX=  1.000000
 ScaDFX=  1.000000  1.000000  1.000000  1.000000 ScalE2=  1.000000  1.000000
 IRadAn=      5 IRanWt=     -1 IRanGd=            0 ICorTp=0
 NAtoms=    5 NActive=    5 NUniq=    5 SFac= 1.00D+00 NAtFMM=   60 NAOKFM=F Big=F
 Leave Link  301 at Fri Nov 22 14:52:48 2019, MaxMem=  268435456 cpu:       0.1
 (Enter /home/matheus/.gaussian/g09/l302.exe)
 NPDir=0 NMtPBC=     1 NCelOv=     1 NCel=       1 NClECP=     1 NCelD=      1
         NCelK=      1 NCelE2=     1 NClLst=     1 CellRange=     0.0.
 One-electron integrals computed using PRISM.
 NBasis=   197 RedAO= T  NBF=   197
 NBsUse=   197 1.00D-06 NBFU=   197
 Leave Link  302 at Fri Nov 22 14:52:48 2019, MaxMem=  268435456 cpu:       0.3
 (Enter /home/matheus/.gaussian/g09/l303.exe)
 DipDrv:  MaxL=1.
 Leave Link  303 at Fri Nov 22 14:52:48 2019, MaxMem=  268435456 cpu:       0.1
 (Enter /home/matheus/.gaussian/g09/l401.exe)
 Initial guess read from the read-write file.
 B after Tr=     0.000000    0.000000    0.000000
         Rot=    1.000000    0.000000    0.000000    0.000000 Ang=   0.00 deg.
 Guess basis will be translated and rotated to current coordinates.
 Initial guess orbital symmetries:
       Occupied  (A) (A) (A) (A) (A) (A) (A) (A) (A) (A) (A) (A)
                 (A) (A) (A) (A) (A) (A) (A) (A) (A) (A) (A) (A)
                 (A) (A) (A)
       Virtual   (A) (A) (A) (A) (A) (A) (A) (A) (A) (A) (A) (A)
                 (A) (A) (A) (A) (A) (A) (A) (A) (A) (A) (A) (A)
                 (A) (A) (A) (A) (A) (A) (A) (A) (A) (A) (A) (A)
                 (A) (A) (A) (A) (A) (A) (A) (A) (A) (A) (A) (A)
                 (A) (A) (A) (A) (A) (A) (A) (A) (A) (A) (A) (A)
                 (A) (A) (A) (A) (A) (A) (A) (A) (A) (A) (A) (A)
                 (A) (A) (A) (A) (A) (A) (A) (A) (A) (A) (A) (A)
                 (A) (A) (A) (A) (A) (A) (A) (A) (A) (A) (A) (A)
                 (A) (A) (A) (A) (A) (A) (A) (A) (A) (A) (A) (A)
                 (A) (A) (A) (A) (A) (A) (A) (A) (A) (A) (A) (A)
                 (A) (A) (A) (A) (A) (A) (A) (A) (A) (A) (A) (A)
                 (A) (A) (A) (A) (A) (A) (A) (A) (A) (A) (A) (A)
                 (A) (A) (A) (A) (A) (A) (A) (A) (A) (A) (A) (A)
                 (A) (A) (A) (A) (A) (A) (A) (A) (A) (A) (A) (A)
                 (A) (A)
 The electronic state of the initial guess is 1-A.
 Generating alternative initial guess.
 Harris functional with IExCor=  205 diagonalized for initial guess.
 ExpMin= 2.53D-02 ExpMax= 1.17D+07 ExpMxC= 1.33D+04 IAcc=3 IRadAn=         5 AccDes= 0.00D+00
 HarFok:  IExCor=  205 AccDes= 0.00D+00 IRadAn=         5 IDoV= 1
 ScaDFX=  1.000000  1.000000  1.000000  1.000000
 FoFCou: FMM=F IPFlag=           0 FMFlag=      100000 FMFlg1=           0
         NFxFlg=           0 DoJE=T BraDBF=F KetDBF=T FulRan=T
         Omega=  0.000000  0.000000  1.000000  0.000000  0.000000 ICntrl=     500 IOpCl=  0
         NMat0=    1 NMatS0=    1 NMatT0=    0 NMatD0=    1 NMtDS0=    0 NMtDT0=    0
         I1Cent=           4 NGrid=           0.
 Petite list used in FoFCou.
 Harris En= -2901.93251709517    
 Leave Link  401 at Fri Nov 22 14:52:49 2019, MaxMem=  268435456 cpu:       1.4
 (Enter /home/matheus/.gaussian/g09/l502.exe)
 Closed shell SCF:
 Requested convergence on RMS density matrix=1.00D-08 within 128 cycles.
 Requested convergence on MAX density matrix=1.00D-06.
 Requested convergence on             energy=1.00D-06.
 No special actions if energy rises.
 Using DIIS extrapolation, IDIIS=  1040.
 Integral symmetry usage will be decided dynamically.
 IEnd=      178489 IEndB=      178489 NGot=   268435456 MDV=   268326278
 LenX=   268326278 LenY=   268273396
 Fock matrices will be formed incrementally for  20 cycles.

 Cycle   1  Pass 0  IDiag  1:
 FoFCou: FMM=F IPFlag=           0 FMFlag=      100000 FMFlg1=           0
         NFxFlg=           0 DoJE=F BraDBF=F KetDBF=F FulRan=T
         Omega=  0.000000  0.000000  1.000000  0.000000  0.000000 ICntrl=       0 IOpCl=  0
         NMat0=    1 NMatS0=    1 NMatT0=    0 NMatD0=    1 NMtDS0=    0 NMtDT0=    0
         I1Cent=           0 NGrid=           0.
 Symmetry not used in FoFCou.
 E= -2902.88114823922    
 DIIS: error= 4.68D-04 at cycle   1 NSaved=   1.
 NSaved= 1 IEnMin= 1 EnMin= -2902.88114823922     IErMin= 1 ErrMin= 4.68D-04
 ErrMax= 4.68D-04 EMaxC= 1.00D-01 BMatC= 5.23D-05 BMatP= 5.23D-05
 IDIUse=3 WtCom= 9.95D-01 WtEn= 4.68D-03
 Coeff-Com:  0.100D+01
 Coeff-En:   0.100D+01
 Coeff:      0.100D+01
 Gap=     0.513 Goal=   None    Shift=    0.000
 RMSDP=6.18D-05 MaxDP=2.18D-03              OVMax= 2.33D-03

 Cycle   2  Pass 0  IDiag  1:
 RMSU=  4.37D-05    CP:  1.00D+00
 E= -2902.88120889904     Delta-E=       -0.000060659816 Rises=F Damp=F
 DIIS: error= 7.41D-05 at cycle   2 NSaved=   2.
 NSaved= 2 IEnMin= 2 EnMin= -2902.88120889904     IErMin= 2 ErrMin= 7.41D-05
 ErrMax= 7.41D-05 EMaxC= 1.00D-01 BMatC= 1.62D-06 BMatP= 5.23D-05
 IDIUse=1 WtCom= 1.00D+00 WtEn= 0.00D+00
 Coeff-Com: -0.765D-01 0.108D+01
 Coeff:     -0.765D-01 0.108D+01
 Gap=     0.512 Goal=   None    Shift=    0.000
 RMSDP=1.07D-05 MaxDP=3.95D-04 DE=-6.07D-05 OVMax= 5.49D-04

 Cycle   3  Pass 0  IDiag  1:
 RMSU=  4.98D-06    CP:  1.00D+00  1.13D+00
 E= -2902.88121125847     Delta-E=       -0.000002359432 Rises=F Damp=F
 DIIS: error= 2.99D-05 at cycle   3 NSaved=   3.
 NSaved= 3 IEnMin= 3 EnMin= -2902.88121125847     IErMin= 3 ErrMin= 2.99D-05
 ErrMax= 2.99D-05 EMaxC= 1.00D-01 BMatC= 2.50D-07 BMatP= 1.62D-06
 IDIUse=1 WtCom= 1.00D+00 WtEn= 0.00D+00
 Coeff-Com: -0.404D-01 0.261D+00 0.780D+00
 Coeff:     -0.404D-01 0.261D+00 0.780D+00
 Gap=     0.512 Goal=   None    Shift=    0.000
 RMSDP=2.07D-06 MaxDP=5.97D-05 DE=-2.36D-06 OVMax= 1.31D-04

 Initial convergence to 1.0D-05 achieved.  Increase integral accuracy.
 Cycle   4  Pass 1  IDiag  1:
 E= -2902.88121149035     Delta-E=       -0.000000231876 Rises=F Damp=F
 DIIS: error= 9.17D-06 at cycle   1 NSaved=   1.
 NSaved= 1 IEnMin= 1 EnMin= -2902.88121149035     IErMin= 1 ErrMin= 9.17D-06
 ErrMax= 9.17D-06 EMaxC= 1.00D-01 BMatC= 2.25D-08 BMatP= 2.25D-08
 IDIUse=1 WtCom= 1.00D+00 WtEn= 0.00D+00
 Coeff-Com:  0.100D+01
 Coeff:      0.100D+01
 Gap=     0.512 Goal=   None    Shift=    0.000
 RMSDP=2.07D-06 MaxDP=5.97D-05 DE=-2.32D-07 OVMax= 5.11D-05

 Cycle   5  Pass 1  IDiag  1:
 RMSU=  6.87D-07    CP:  1.00D+00
 E= -2902.88121152064     Delta-E=       -0.000000030290 Rises=F Damp=F
 DIIS: error= 6.38D-06 at cycle   2 NSaved=   2.
 NSaved= 2 IEnMin= 2 EnMin= -2902.88121152064     IErMin= 2 ErrMin= 6.38D-06
 ErrMax= 6.38D-06 EMaxC= 1.00D-01 BMatC= 8.33D-09 BMatP= 2.25D-08
 IDIUse=1 WtCom= 1.00D+00 WtEn= 0.00D+00
 Coeff-Com:  0.318D+00 0.682D+00
 Coeff:      0.318D+00 0.682D+00
 Gap=     0.512 Goal=   None    Shift=    0.000
 RMSDP=2.72D-07 MaxDP=9.87D-06 DE=-3.03D-08 OVMax= 3.06D-05

 Cycle   6  Pass 1  IDiag  1:
 RMSU=  1.85D-07    CP:  1.00D+00  1.08D+00
 E= -2902.88121152863     Delta-E=       -0.000000007995 Rises=F Damp=F
 DIIS: error= 2.10D-06 at cycle   3 NSaved=   3.
 NSaved= 3 IEnMin= 3 EnMin= -2902.88121152863     IErMin= 3 ErrMin= 2.10D-06
 ErrMax= 2.10D-06 EMaxC= 1.00D-01 BMatC= 1.25D-09 BMatP= 8.33D-09
 IDIUse=1 WtCom= 1.00D+00 WtEn= 0.00D+00
 Coeff-Com: -0.302D+00-0.916D-01 0.139D+01
 Coeff:     -0.302D+00-0.916D-01 0.139D+01
 Gap=     0.512 Goal=   None    Shift=    0.000
 RMSDP=3.41D-07 MaxDP=1.05D-05 DE=-8.00D-09 OVMax= 1.94D-05

 Cycle   7  Pass 1  IDiag  1:
 RMSU=  8.65D-08    CP:  1.00D+00  1.39D+00  1.35D+00
 E= -2902.88121153170     Delta-E=       -0.000000003070 Rises=F Damp=F
 DIIS: error= 5.19D-07 at cycle   4 NSaved=   4.
 NSaved= 4 IEnMin= 4 EnMin= -2902.88121153170     IErMin= 4 ErrMin= 5.19D-07
 ErrMax= 5.19D-07 EMaxC= 1.00D-01 BMatC= 7.10D-11 BMatP= 1.25D-09
 IDIUse=1 WtCom= 1.00D+00 WtEn= 0.00D+00
 Coeff-Com: -0.921D-01-0.519D-01 0.333D+00 0.811D+00
 Coeff:     -0.921D-01-0.519D-01 0.333D+00 0.811D+00
 Gap=     0.512 Goal=   None    Shift=    0.000
 RMSDP=4.98D-08 MaxDP=1.55D-06 DE=-3.07D-09 OVMax= 3.94D-06

 Cycle   8  Pass 1  IDiag  1:
 RMSU=  2.32D-08    CP:  1.00D+00  1.41D+00  1.39D+00  1.27D+00
 E= -2902.88121153180     Delta-E=       -0.000000000099 Rises=F Damp=F
 DIIS: error= 1.48D-07 at cycle   5 NSaved=   5.
 NSaved= 5 IEnMin= 5 EnMin= -2902.88121153180     IErMin= 5 ErrMin= 1.48D-07
 ErrMax= 1.48D-07 EMaxC= 1.00D-01 BMatC= 9.14D-12 BMatP= 7.10D-11
 IDIUse=1 WtCom= 1.00D+00 WtEn= 0.00D+00
 Coeff-Com:  0.644D-01 0.312D-01-0.295D+00-0.111D+00 0.131D+01
 Coeff:      0.644D-01 0.312D-01-0.295D+00-0.111D+00 0.131D+01
 Gap=     0.512 Goal=   None    Shift=    0.000
 RMSDP=3.49D-08 MaxDP=8.38D-07 DE=-9.91D-11 OVMax= 2.00D-06

 Cycle   9  Pass 1  IDiag  1:
 RMSU=  6.80D-09    CP:  1.00D+00  1.41D+00  1.38D+00  1.53D+00  1.33D+00
 E= -2902.88121153183     Delta-E=       -0.000000000033 Rises=F Damp=F
 DIIS: error= 3.06D-08 at cycle   6 NSaved=   6.
 NSaved= 6 IEnMin= 6 EnMin= -2902.88121153183     IErMin= 6 ErrMin= 3.06D-08
 ErrMax= 3.06D-08 EMaxC= 1.00D-01 BMatC= 4.17D-13 BMatP= 9.14D-12
 IDIUse=1 WtCom= 1.00D+00 WtEn= 0.00D+00
 Coeff-Com: -0.618D-02-0.645D-03 0.282D-01-0.156D-01-0.203D+00 0.120D+01
 Coeff:     -0.618D-02-0.645D-03 0.282D-01-0.156D-01-0.203D+00 0.120D+01
 Gap=     0.512 Goal=   None    Shift=    0.000
 RMSDP=5.32D-09 MaxDP=1.19D-07 DE=-3.27D-11 OVMax= 4.80D-07

 SCF Done:  E(RHF) =  -2902.88121153     A.U. after    9 cycles
             Convg  =    0.5320D-08             -V/T =  2.0001
 KE= 2.902613153759D+03 PE=-7.226917062663D+03 EE= 1.277978513851D+03
 Leave Link  502 at Fri Nov 22 14:53:25 2019, MaxMem=  268435456 cpu:      70.6
 (Enter /home/matheus/.gaussian/g09/l801.exe)
 Windowed orbitals will be sorted by symmetry type.
 ExpMin= 2.53D-02 ExpMax= 1.17D+07 ExpMxC= 1.33D+04 IAcc=3 IRadAn=         5 AccDes= 0.00D+00
 HarFok:  IExCor=  205 AccDes= 0.00D+00 IRadAn=         5 IDoV=-2
 ScaDFX=  1.000000  1.000000  1.000000  1.000000
 DSYEVD returned Info=          93 IAlg= 4 N=    46 NDim=    46 NE2=     4547561 trying DSYEV.
 Largest valence mixing into a core orbital is  1.45D-04
 Largest core mixing into a valence orbital is  2.63D-05
 Range of M.O.s used for correlation:    12   197
 NBasis=   197 NAE=    27 NBE=    27 NFC=    11 NFV=     0
 NROrb=    186 NOA=    16 NOB=    16 NVA=   170 NVB=   170

 **** Warning!!: The largest alpha MO coefficient is  0.16495424D+02

 Leave Link  801 at Fri Nov 22 14:53:25 2019, MaxMem=  268435456 cpu:       0.3
 (Enter /home/matheus/.gaussian/g09/l804.exe)
 Closed-shell transformation, MDV=   268435456 ITran=4 ISComp=1.
 Semi-Direct transformation.
 ModeAB=           2 MOrb=            16 LenV=     267327332
 LASXX=     48528660 LTotXX=    48528660 LenRXX=    48528660
 LTotAB=    49298776 MaxLAS=    78372960 LenRXY=    78372960
 NonZer=    97057320 LenScr=   146313216 LnRSAI=           0
 LnScr1=           0 LExtra=           0 Total=    273214836
 MaxDsk=          -1 SrtSym=           F ITran=            4
 DoSDTr:  NPSUse=  2
 JobTyp=0 Pass  1:  I=   1 to  16.
 (rs|ai) integrals will be sorted in core.
 Complete sort for first half transformation.
 First half transformation complete.
 Begin second half transformation for I=  10.
 Begin second half transformation for I=  10.
 Complete sort for second half transformation.
 Second half transformation complete.
 SymMOI:  orbitals are not symmetric.
 Spin components of T(2) and E(2):
     alpha-alpha T2 =       0.2595211642D-01 E2=     -0.9970904261D-01
     alpha-beta  T2 =       0.1421153122D+00 E2=     -0.5562249880D+00
     beta-beta   T2 =       0.2595211642D-01 E2=     -0.9970904261D-01
 ANorm=    0.1092712014D+01
 E2 =    -0.7556430732D+00 EUMP2 =    -0.29036368546050D+04
 Leave Link  804 at Fri Nov 22 14:53:54 2019, MaxMem=  268435456 cpu:      52.9
 (Enter /home/matheus/.gaussian/g09/l913.exe)
 CIDS:  MDV=   268435456.
 Frozen-core window:  NFC=  11 NFV=   0.
 IFCWin=0 IBDFC=1 NFBD=     0     0 NFCmp=     0     0 NFFFC=     0     0
 Using DD3R+UMP44R for 1st iteration, S=T.
 Using DD4RQ for 2nd and later iterations.
 Would need an additional       431206676 words for in-memory AO integral storage.
 MP4(SDTQ)
 =========
 DD1Dir will call FoFDir   1 times, MxPair=       272
 NAB=   136 NAA=     0 NBB=     0 NumPrc=  2.
 Integrals replicated using symmetry in FoFDir.
 MinBra= 0 MaxBra= 3 Meth= 1.
 IRaf=       0 NMat= 272 IRICut=     340 DoRegI=T DoRafI=T ISym2E= 2 JSym2E=2.
 MP4(D)= -0.14958606D-01
 MP4(S)= -0.64784049D-02
 MP4(R+Q)=  0.15386789D-01
 T4(AAA)= -0.10384428D-02
 T4(AAB)= -0.14170454D-01
 Time for triples=     1352.33 seconds.
 MP4(T)=   -0.30417793D-01
 E3=       -0.11380539D-01        EUMP3=      -0.29036482351D+04
 E4(DQ)=    0.42818327D-03        UMP4(DQ)=   -0.29036478070D+04
 E4(SDQ)=  -0.60502217D-02        UMP4(SDQ)=  -0.29036542854D+04
 E4(SDTQ)= -0.36468015D-01        UMP4(SDTQ)= -0.29036847032D+04
 VARIATIONAL ENERGIES WITH THE FIRST-ORDER WAVEFUNCTION:
 E(VAR1)=  -0.29035235994D+04     E(CISD,4)=  -0.29035230626D+04
 Largest amplitude= 4.11D-02
 Leave Link  913 at Fri Nov 22 15:06:18 2019, MaxMem=  268435456 cpu:    1449.5
 (Enter /home/matheus/.gaussian/g09/l108.exe)
 Variable Step   Value    
 -------- ---- -----------
     1       3    6.236096
 Leave Link  108 at Fri Nov 22 15:06:18 2019, MaxMem=  268435456 cpu:       0.2
 (Enter /home/matheus/.gaussian/g09/l202.exe)
 ---------------------------------------------------------------------------------------------------
                            Z-MATRIX (ANGSTROMS AND DEGREES)
   CD    Cent   Atom    N1       Length/X        N2       Alpha/Y        N3        Beta/Z          J
 ---------------------------------------------------------------------------------------------------
      1      1  O        0   0.000000          0.000000          0.725000
      2      2  O        0   0.000000          0.000000         -0.725000
      3      3  H        0   0.795635          0.459360          1.023510
      4      4  H        0   0.000000          0.918721         -1.023510
      5      5  Kr       0   0.000000          3.300000          0.000000
 ---------------------------------------------------------------------------------------------------
                         Z-Matrix orientation:                         
 ---------------------------------------------------------------------
 Center     Atomic      Atomic             Coordinates (Angstroms)
 Number     Number       Type             X           Y           Z
 ---------------------------------------------------------------------
      1          8           0        0.000000    0.000000    0.725000
      2          8           0        0.000000    0.000000   -0.725000
      3          1           0        0.795635    0.459360    1.023510
      4          1           0        0.000000    0.918721   -1.023510
      5         36           0        0.000000    3.300000    0.000000
 ---------------------------------------------------------------------
                    Distance matrix (angstroms):
                    1          2          3          4          5
     1  O    0.000000
     2  O    1.450000   0.000000
     3  H    0.966000   1.975180   0.000000
     4  H    1.975180   0.966000   2.243734   0.000000
     5  Kr   3.378702   3.378702   3.122474   2.591923   0.000000
 Stoichiometry    H2KrO2
 Framework group  C1[X(H2KrO2)]
 Deg. of freedom     9
 Full point group                 C1      NOp   1
 RotChk:  IX=0 Diff= 5.78D-04
 Largest Abelian subgroup         C1      NOp   1
 Largest concise Abelian subgroup C1      NOp   1
                         Standard orientation:                         
 ---------------------------------------------------------------------
 Center     Atomic      Atomic             Coordinates (Angstroms)
 Number     Number       Type             X           Y           Z
 ---------------------------------------------------------------------
      1          8           0        2.228211   -0.710162   -0.097599
      2          8           0        2.222176    0.735069    0.019751
      3          1           0        1.779090   -1.074366    0.676224
      4          1           0        1.302279    1.027949    0.053916
      5         36           0       -1.074568   -0.004245   -0.002982
 ---------------------------------------------------------------------
 Rotational constants (GHZ):     25.8522415      1.9539408      1.8243366
 Leave Link  202 at Fri Nov 22 15:06:18 2019, MaxMem=  268435456 cpu:       0.0
 (Enter /home/matheus/.gaussian/g09/l301.exe)
 Standard basis: Aug-CC-pVTZ (5D, 7F)
 Ernie: Thresh=  0.10000D-02 Tol=  0.10000D-05 Strict=F.
 Ernie:  38 primitive shells out of 205 were deleted.
 There are   197 symmetry adapted basis functions of A   symmetry.
 Integral buffers will be    131072 words long.
 Raffenetti 1 integral format.
 Two-electron integral symmetry is turned on.
   197 basis functions,   415 primitive gaussians,   229 cartesian basis functions
    27 alpha electrons       27 beta electrons
       nuclear repulsion energy       140.3090073562 Hartrees.
 IExCor=    0 DFT=F Ex=HF Corr=None ExCW=0 ScaHFX=  1.000000
 ScaDFX=  1.000000  1.000000  1.000000  1.000000 ScalE2=  1.000000  1.000000
 IRadAn=      5 IRanWt=     -1 IRanGd=            0 ICorTp=0
 NAtoms=    5 NActive=    5 NUniq=    5 SFac= 1.00D+00 NAtFMM=   60 NAOKFM=F Big=F
 Leave Link  301 at Fri Nov 22 15:06:18 2019, MaxMem=  268435456 cpu:       0.1
 (Enter /home/matheus/.gaussian/g09/l302.exe)
 NPDir=0 NMtPBC=     1 NCelOv=     1 NCel=       1 NClECP=     1 NCelD=      1
         NCelK=      1 NCelE2=     1 NClLst=     1 CellRange=     0.0.
 One-electron integrals computed using PRISM.
 NBasis=   197 RedAO= T  NBF=   197
 NBsUse=   197 1.00D-06 NBFU=   197
 Leave Link  302 at Fri Nov 22 15:06:18 2019, MaxMem=  268435456 cpu:       0.3
 (Enter /home/matheus/.gaussian/g09/l303.exe)
 DipDrv:  MaxL=1.
 Leave Link  303 at Fri Nov 22 15:06:19 2019, MaxMem=  268435456 cpu:       0.1
 (Enter /home/matheus/.gaussian/g09/l401.exe)
 Initial guess read from the read-write file.
 B after Tr=     0.000000    0.000000    0.000000
         Rot=    1.000000    0.000000    0.000000    0.000000 Ang=   0.00 deg.
 Guess basis will be translated and rotated to current coordinates.
 Initial guess orbital symmetries:
       Occupied  (A) (A) (A) (A) (A) (A) (A) (A) (A) (A) (A) (A)
                 (A) (A) (A) (A) (A) (A) (A) (A) (A) (A) (A) (A)
                 (A) (A) (A)
       Virtual   (A) (A) (A) (A) (A) (A) (A) (A) (A) (A) (A) (A)
                 (A) (A) (A) (A) (A) (A) (A) (A) (A) (A) (A) (A)
                 (A) (A) (A) (A) (A) (A) (A) (A) (A) (A) (A) (A)
                 (A) (A) (A) (A) (A) (A) (A) (A) (A) (A) (A) (A)
                 (A) (A) (A) (A) (A) (A) (A) (A) (A) (A) (A) (A)
                 (A) (A) (A) (A) (A) (A) (A) (A) (A) (A) (A) (A)
                 (A) (A) (A) (A) (A) (A) (A) (A) (A) (A) (A) (A)
                 (A) (A) (A) (A) (A) (A) (A) (A) (A) (A) (A) (A)
                 (A) (A) (A) (A) (A) (A) (A) (A) (A) (A) (A) (A)
                 (A) (A) (A) (A) (A) (A) (A) (A) (A) (A) (A) (A)
                 (A) (A) (A) (A) (A) (A) (A) (A) (A) (A) (A) (A)
                 (A) (A) (A) (A) (A) (A) (A) (A) (A) (A) (A) (A)
                 (A) (A) (A) (A) (A) (A) (A) (A) (A) (A) (A) (A)
                 (A) (A) (A) (A) (A) (A) (A) (A) (A) (A) (A) (A)
                 (A) (A)
 The electronic state of the initial guess is 1-A.
 Generating alternative initial guess.
 Harris functional with IExCor=  205 diagonalized for initial guess.
 ExpMin= 2.53D-02 ExpMax= 1.17D+07 ExpMxC= 1.33D+04 IAcc=3 IRadAn=         5 AccDes= 0.00D+00
 HarFok:  IExCor=  205 AccDes= 0.00D+00 IRadAn=         5 IDoV= 1
 ScaDFX=  1.000000  1.000000  1.000000  1.000000
 FoFCou: FMM=F IPFlag=           0 FMFlag=      100000 FMFlg1=           0
         NFxFlg=           0 DoJE=T BraDBF=F KetDBF=T FulRan=T
         Omega=  0.000000  0.000000  1.000000  0.000000  0.000000 ICntrl=     500 IOpCl=  0
         NMat0=    1 NMatS0=    1 NMatT0=    0 NMatD0=    1 NMtDS0=    0 NMtDT0=    0
         I1Cent=           4 NGrid=           0.
 Petite list used in FoFCou.
 Harris En= -2901.93307284928    
 Leave Link  401 at Fri Nov 22 15:06:20 2019, MaxMem=  268435456 cpu:       1.4
 (Enter /home/matheus/.gaussian/g09/l502.exe)
 Closed shell SCF:
 Requested convergence on RMS density matrix=1.00D-08 within 128 cycles.
 Requested convergence on MAX density matrix=1.00D-06.
 Requested convergence on             energy=1.00D-06.
 No special actions if energy rises.
 Using DIIS extrapolation, IDIIS=  1040.
 Integral symmetry usage will be decided dynamically.
 IEnd=      178489 IEndB=      178489 NGot=   268435456 MDV=   268326278
 LenX=   268326278 LenY=   268273396
 Fock matrices will be formed incrementally for  20 cycles.

 Cycle   1  Pass 0  IDiag  1:
 FoFCou: FMM=F IPFlag=           0 FMFlag=      100000 FMFlg1=           0
         NFxFlg=           0 DoJE=F BraDBF=F KetDBF=F FulRan=T
         Omega=  0.000000  0.000000  1.000000  0.000000  0.000000 ICntrl=       0 IOpCl=  0
         NMat0=    1 NMatS0=    1 NMatT0=    0 NMatD0=    1 NMtDS0=    0 NMtDT0=    0
         I1Cent=           0 NGrid=           0.
 Symmetry not used in FoFCou.
 E= -2902.88256544503    
 DIIS: error= 3.90D-04 at cycle   1 NSaved=   1.
 NSaved= 1 IEnMin= 1 EnMin= -2902.88256544503     IErMin= 1 ErrMin= 3.90D-04
 ErrMax= 3.90D-04 EMaxC= 1.00D-01 BMatC= 3.91D-05 BMatP= 3.91D-05
 IDIUse=3 WtCom= 9.96D-01 WtEn= 3.90D-03
 Coeff-Com:  0.100D+01
 Coeff-En:   0.100D+01
 Coeff:      0.100D+01
 Gap=     0.513 Goal=   None    Shift=    0.000
 RMSDP=5.39D-05 MaxDP=1.54D-03              OVMax= 2.08D-03

 Cycle   2  Pass 0  IDiag  1:
 RMSU=  3.81D-05    CP:  1.00D+00
 E= -2902.88261093111     Delta-E=       -0.000045486078 Rises=F Damp=F
 DIIS: error= 6.07D-05 at cycle   2 NSaved=   2.
 NSaved= 2 IEnMin= 2 EnMin= -2902.88261093111     IErMin= 2 ErrMin= 6.07D-05
 ErrMax= 6.07D-05 EMaxC= 1.00D-01 BMatC= 1.10D-06 BMatP= 3.91D-05
 IDIUse=1 WtCom= 1.00D+00 WtEn= 0.00D+00
 Coeff-Com: -0.820D-01 0.108D+01
 Coeff:     -0.820D-01 0.108D+01
 Gap=     0.512 Goal=   None    Shift=    0.000
 RMSDP=9.33D-06 MaxDP=3.26D-04 DE=-4.55D-05 OVMax= 4.31D-04

 Initial convergence to 1.0D-05 achieved.  Increase integral accuracy.
 Cycle   3  Pass 1  IDiag  1:
 E= -2902.88261264134     Delta-E=       -0.000001710234 Rises=F Damp=F
 DIIS: error= 2.26D-05 at cycle   1 NSaved=   1.
 NSaved= 1 IEnMin= 1 EnMin= -2902.88261264134     IErMin= 1 ErrMin= 2.26D-05
 ErrMax= 2.26D-05 EMaxC= 1.00D-01 BMatC= 1.50D-07 BMatP= 1.50D-07
 IDIUse=1 WtCom= 1.00D+00 WtEn= 0.00D+00
 Coeff-Com:  0.100D+01
 Coeff:      0.100D+01
 Gap=     0.512 Goal=   None    Shift=    0.000
 RMSDP=9.33D-06 MaxDP=3.26D-04 DE=-1.71D-06 OVMax= 1.33D-04

 Cycle   4  Pass 1  IDiag  1:
 RMSU=  1.50D-06    CP:  1.00D+00
 E= -2902.88261277325     Delta-E=       -0.000000131906 Rises=F Damp=F
 DIIS: error= 1.08D-05 at cycle   2 NSaved=   2.
 NSaved= 2 IEnMin= 2 EnMin= -2902.88261277325     IErMin= 2 ErrMin= 1.08D-05
 ErrMax= 1.08D-05 EMaxC= 1.00D-01 BMatC= 5.24D-08 BMatP= 1.50D-07
 IDIUse=1 WtCom= 1.00D+00 WtEn= 0.00D+00
 Coeff-Com:  0.348D+00 0.652D+00
 Coeff:      0.348D+00 0.652D+00
 Gap=     0.512 Goal=   None    Shift=    0.000
 RMSDP=7.06D-07 MaxDP=3.74D-05 DE=-1.32D-07 OVMax= 4.21D-05

 Cycle   5  Pass 1  IDiag  1:
 RMSU=  4.97D-07    CP:  1.00D+00  9.69D-01
 E= -2902.88261281145     Delta-E=       -0.000000038198 Rises=F Damp=F
 DIIS: error= 3.51D-06 at cycle   3 NSaved=   3.
 NSaved= 3 IEnMin= 3 EnMin= -2902.88261281145     IErMin= 3 ErrMin= 3.51D-06
 ErrMax= 3.51D-06 EMaxC= 1.00D-01 BMatC= 2.93D-09 BMatP= 5.24D-08
 IDIUse=1 WtCom= 1.00D+00 WtEn= 0.00D+00
 Coeff-Com: -0.921D-01-0.329D-01 0.112D+01
 Coeff:     -0.921D-01-0.329D-01 0.112D+01
 Gap=     0.512 Goal=   None    Shift=    0.000
 RMSDP=4.08D-07 MaxDP=1.52D-05 DE=-3.82D-08 OVMax= 3.05D-05

 Cycle   6  Pass 1  IDiag  1:
 RMSU=  1.40D-07    CP:  1.00D+00  1.09D+00  1.34D+00
 E= -2902.88261281791     Delta-E=       -0.000000006466 Rises=F Damp=F
 DIIS: error= 1.32D-06 at cycle   4 NSaved=   4.
 NSaved= 4 IEnMin= 4 EnMin= -2902.88261281791     IErMin= 4 ErrMin= 1.32D-06
 ErrMax= 1.32D-06 EMaxC= 1.00D-01 BMatC= 7.07D-10 BMatP= 2.93D-09
 IDIUse=1 WtCom= 1.00D+00 WtEn= 0.00D+00
 Coeff-Com: -0.882D-01-0.133D+00 0.317D+00 0.904D+00
 Coeff:     -0.882D-01-0.133D+00 0.317D+00 0.904D+00
 Gap=     0.512 Goal=   None    Shift=    0.000
 RMSDP=1.78D-07 MaxDP=5.15D-06 DE=-6.47D-09 OVMax= 1.09D-05

 Cycle   7  Pass 1  IDiag  1:
 RMSU=  6.32D-08    CP:  1.00D+00  1.13D+00  1.52D+00  1.16D+00
 E= -2902.88261281905     Delta-E=       -0.000000001134 Rises=F Damp=F
 DIIS: error= 3.96D-07 at cycle   5 NSaved=   5.
 NSaved= 5 IEnMin= 5 EnMin= -2902.88261281905     IErMin= 5 ErrMin= 3.96D-07
 ErrMax= 3.96D-07 EMaxC= 1.00D-01 BMatC= 3.57D-11 BMatP= 7.07D-10
 IDIUse=1 WtCom= 1.00D+00 WtEn= 0.00D+00
 Coeff-Com:  0.685D-02 0.321D-03-0.734D-01-0.191D-01 0.109D+01
 Coeff:      0.685D-02 0.321D-03-0.734D-01-0.191D-01 0.109D+01
 Gap=     0.512 Goal=   None    Shift=    0.000
 RMSDP=5.34D-08 MaxDP=1.58D-06 DE=-1.13D-09 OVMax= 3.46D-06

 Cycle   8  Pass 1  IDiag  1:
 RMSU=  1.68D-08    CP:  1.00D+00  1.12D+00  1.54D+00  1.31D+00  1.36D+00
 E= -2902.88261281914     Delta-E=       -0.000000000093 Rises=F Damp=F
 DIIS: error= 1.05D-07 at cycle   6 NSaved=   6.
 NSaved= 6 IEnMin= 6 EnMin= -2902.88261281914     IErMin= 6 ErrMin= 1.05D-07
 ErrMax= 1.05D-07 EMaxC= 1.00D-01 BMatC= 5.55D-12 BMatP= 3.57D-11
 IDIUse=1 WtCom= 1.00D+00 WtEn= 0.00D+00
 Coeff-Com:  0.136D-01 0.185D-01-0.487D-01-0.147D+00 0.104D+00 0.106D+01
 Coeff:      0.136D-01 0.185D-01-0.487D-01-0.147D+00 0.104D+00 0.106D+01
 Gap=     0.512 Goal=   None    Shift=    0.000
 RMSDP=2.29D-08 MaxDP=5.63D-07 DE=-9.28D-11 OVMax= 1.31D-06

 Cycle   9  Pass 1  IDiag  1:
 RMSU=  5.60D-09    CP:  1.00D+00  1.12D+00  1.55D+00  1.36D+00  1.54D+00
                    CP:  1.26D+00
 E= -2902.88261281915     Delta-E=       -0.000000000007 Rises=F Damp=F
 DIIS: error= 2.71D-08 at cycle   7 NSaved=   7.
 NSaved= 7 IEnMin= 7 EnMin= -2902.88261281915     IErMin= 7 ErrMin= 2.71D-08
 ErrMax= 2.71D-08 EMaxC= 1.00D-01 BMatC= 3.37D-13 BMatP= 5.55D-12
 IDIUse=1 WtCom= 1.00D+00 WtEn= 0.00D+00
 Coeff-Com: -0.697D-02-0.976D-02 0.300D-01 0.681D-01-0.105D+00-0.516D+00
 Coeff-Com:  0.154D+01
 Coeff:     -0.697D-02-0.976D-02 0.300D-01 0.681D-01-0.105D+00-0.516D+00
 Coeff:      0.154D+01
 Gap=     0.512 Goal=   None    Shift=    0.000
 RMSDP=6.02D-09 MaxDP=1.26D-07 DE=-7.28D-12 OVMax= 4.95D-07

 SCF Done:  E(RHF) =  -2902.88261282     A.U. after    9 cycles
             Convg  =    0.6024D-08             -V/T =  2.0001
[...]
 Number     Number       Type             X           Y           Z
 ---------------------------------------------------------------------
      1          8           0        0.000000    0.000000    0.725000
      2          8           0        0.000000    0.000000   -0.725000
      3          1           0        0.795635    0.459360    1.023510
      4          1           0        0.000000    0.918721   -1.023510
      5         36           0        0.000000    5.000000    0.000000
 ---------------------------------------------------------------------
                    Distance matrix (angstroms):
                    1          2          3          4          5
     1  O    0.000000
     2  O    1.450000   0.000000
     3  H    0.966000   1.975180   0.000000
     4  H    1.975180   0.966000   2.243734   0.000000
     5  Kr   5.052289   5.052289   4.722078   4.207661   0.000000
 Stoichiometry    H2KrO2
 Framework group  C1[X(H2KrO2)]
 Deg. of freedom     9
 Full point group                 C1      NOp   1
 RotChk:  IX=0 Diff= 2.27D-04
 Largest Abelian subgroup         C1      NOp   1
 Largest concise Abelian subgroup C1      NOp   1
                         Standard orientation:                         
 ---------------------------------------------------------------------
 Center     Atomic      Atomic             Coordinates (Angstroms)
 Number     Number       Type             X           Y           Z
 ---------------------------------------------------------------------
      1          8           0        3.359854   -0.713590   -0.099525
      2          8           0        3.357398    0.731636    0.018009
      3          1           0        2.907321   -1.076669    0.672837
      4          1           0        2.438202    1.027023    0.049337
      5         36           0       -1.641210   -0.002631   -0.001946
 ---------------------------------------------------------------------
 Rotational constants (GHZ):     25.8533774      0.8469136      0.8216114
 Leave Link  202 at Fri Nov 22 19:19:28 2019, MaxMem=  268435456 cpu:       0.0
 (Enter /home/matheus/.gaussian/g09/l301.exe)
 Standard basis: Aug-CC-pVTZ (5D, 7F)
 Ernie: Thresh=  0.10000D-02 Tol=  0.10000D-05 Strict=F.
 Ernie:  38 primitive shells out of 205 were deleted.
 There are   197 symmetry adapted basis functions of A   symmetry.
 Integral buffers will be    131072 words long.
 Raffenetti 1 integral format.
 Two-electron integral symmetry is turned on.
   197 basis functions,   415 primitive gaussians,   229 cartesian basis functions
    27 alpha electrons       27 beta electrons
       nuclear repulsion energy       105.5362465788 Hartrees.
 IExCor=    0 DFT=F Ex=HF Corr=None ExCW=0 ScaHFX=  1.000000
 ScaDFX=  1.000000  1.000000  1.000000  1.000000 ScalE2=  1.000000  1.000000
 IRadAn=      5 IRanWt=     -1 IRanGd=            0 ICorTp=0
 NAtoms=    5 NActive=    5 NUniq=    5 SFac= 1.00D+00 NAtFMM=   60 NAOKFM=F Big=F
 Leave Link  301 at Fri Nov 22 19:19:28 2019, MaxMem=  268435456 cpu:       0.1
 (Enter /home/matheus/.gaussian/g09/l302.exe)
 NPDir=0 NMtPBC=     1 NCelOv=     1 NCel=       1 NClECP=     1 NCelD=      1
         NCelK=      1 NCelE2=     1 NClLst=     1 CellRange=     0.0.
 One-electron integrals computed using PRISM.
 NBasis=   197 RedAO= T  NBF=   197
 NBsUse=   197 1.00D-06 NBFU=   197
 Leave Link  302 at Fri Nov 22 19:19:28 2019, MaxMem=  268435456 cpu:       0.3
 (Enter /home/matheus/.gaussian/g09/l303.exe)
 DipDrv:  MaxL=1.
 Leave Link  303 at Fri Nov 22 19:19:28 2019, MaxMem=  268435456 cpu:       0.1
 (Enter /home/matheus/.gaussian/g09/l401.exe)
 Initial guess read from the read-write file.
 B after Tr=     0.000000    0.000000    0.000000
         Rot=    1.000000    0.000000    0.000000    0.000000 Ang=   0.00 deg.
 Guess basis will be translated and rotated to current coordinates.
 Initial guess orbital symmetries:
       Occupied  (A) (A) (A) (A) (A) (A) (A) (A) (A) (A) (A) (A)
                 (A) (A) (A) (A) (A) (A) (A) (A) (A) (A) (A) (A)
                 (A) (A) (A)
       Virtual   (A) (A) (A) (A) (A) (A) (A) (A) (A) (A) (A) (A)
                 (A) (A) (A) (A) (A) (A) (A) (A) (A) (A) (A) (A)
                 (A) (A) (A) (A) (A) (A) (A) (A) (A) (A) (A) (A)
                 (A) (A) (A) (A) (A) (A) (A) (A) (A) (A) (A) (A)
                 (A) (A) (A) (A) (A) (A) (A) (A) (A) (A) (A) (A)
                 (A) (A) (A) (A) (A) (A) (A) (A) (A) (A) (A) (A)
                 (A) (A) (A) (A) (A) (A) (A) (A) (A) (A) (A) (A)
                 (A) (A) (A) (A) (A) (A) (A) (A) (A) (A) (A) (A)
                 (A) (A) (A) (A) (A) (A) (A) (A) (A) (A) (A) (A)
                 (A) (A) (A) (A) (A) (A) (A) (A) (A) (A) (A) (A)
                 (A) (A) (A) (A) (A) (A) (A) (A) (A) (A) (A) (A)
                 (A) (A) (A) (A) (A) (A) (A) (A) (A) (A) (A) (A)
                 (A) (A) (A) (A) (A) (A) (A) (A) (A) (A) (A) (A)
                 (A) (A) (A) (A) (A) (A) (A) (A) (A) (A) (A) (A)
                 (A) (A)
 The electronic state of the initial guess is 1-A.
 Generating alternative initial guess.
 Harris functional with IExCor=  205 diagonalized for initial guess.
 ExpMin= 2.53D-02 ExpMax= 1.17D+07 ExpMxC= 1.33D+04 IAcc=3 IRadAn=         5 AccDes= 0.00D+00
 HarFok:  IExCor=  205 AccDes= 0.00D+00 IRadAn=         5 IDoV= 1
 ScaDFX=  1.000000  1.000000  1.000000  1.000000
 FoFCou: FMM=F IPFlag=           0 FMFlag=      100000 FMFlg1=           0
         NFxFlg=           0 DoJE=T BraDBF=F KetDBF=T FulRan=T
         Omega=  0.000000  0.000000  1.000000  0.000000  0.000000 ICntrl=     500 IOpCl=  0
         NMat0=    1 NMatS0=    1 NMatT0=    0 NMatD0=    1 NMtDS0=    0 NMtDT0=    0
         I1Cent=           4 NGrid=           0.
 Petite list used in FoFCou.
 Harris En= -2901.93346002799    
 Leave Link  401 at Fri Nov 22 19:19:29 2019, MaxMem=  268435456 cpu:       1.3
 (Enter /home/matheus/.gaussian/g09/l502.exe)
 Closed shell SCF:
 Requested convergence on RMS density matrix=1.00D-08 within 128 cycles.
 Requested convergence on MAX density matrix=1.00D-06.
 Requested convergence on             energy=1.00D-06.
 No special actions if energy rises.
 Using DIIS extrapolation, IDIIS=  1040.
 Integral symmetry usage will be decided dynamically.
 IEnd=      178489 IEndB=      178489 NGot=   268435456 MDV=   268326278
 LenX=   268326278 LenY=   268273396
 Fock matrices will be formed incrementally for  20 cycles.

 Cycle   1  Pass 0  IDiag  1:
 FoFCou: FMM=F IPFlag=           0 FMFlag=      100000 FMFlg1=           0
         NFxFlg=           0 DoJE=F BraDBF=F KetDBF=F FulRan=T
         Omega=  0.000000  0.000000  1.000000  0.000000  0.000000 ICntrl=       0 IOpCl=  0
         NMat0=    1 NMatS0=    1 NMatT0=    0 NMatD0=    1 NMtDS0=    0 NMtDT0=    0
         I1Cent=           0 NGrid=           0.
 Symmetry not used in FoFCou.
 E= -2902.88570862176    
 DIIS: error= 4.16D-05 at cycle   1 NSaved=   1.
 NSaved= 1 IEnMin= 1 EnMin= -2902.88570862176     IErMin= 1 ErrMin= 4.16D-05
 ErrMax= 4.16D-05 EMaxC= 1.00D-01 BMatC= 6.03D-07 BMatP= 6.03D-07
 IDIUse=1 WtCom= 1.00D+00 WtEn= 0.00D+00
 Coeff-Com:  0.100D+01
 Coeff:      0.100D+01
 Gap=     0.512 Goal=   None    Shift=    0.000
 RMSDP=1.34D-05 MaxDP=4.28D-04              OVMax= 3.40D-04

 Cycle   2  Pass 0  IDiag  1:
 RMSU=  9.47D-06    CP:  1.00D+00
 E= -2902.88570927484     Delta-E=       -0.000000653083 Rises=F Damp=F
 DIIS: error= 1.08D-05 at cycle   2 NSaved=   2.
 NSaved= 2 IEnMin= 2 EnMin= -2902.88570927484     IErMin= 2 ErrMin= 1.08D-05
 ErrMax= 1.08D-05 EMaxC= 1.00D-01 BMatC= 1.62D-08 BMatP= 6.03D-07
 IDIUse=1 WtCom= 1.00D+00 WtEn= 0.00D+00
 Coeff-Com: -0.216D-01 0.102D+01
 Coeff:     -0.216D-01 0.102D+01
 Gap=     0.512 Goal=   None    Shift=    0.000
 RMSDP=1.63D-06 MaxDP=4.94D-05 DE=-6.53D-07 OVMax= 5.69D-05

 Initial convergence to 1.0D-05 achieved.  Increase integral accuracy.
 Cycle   3  Pass 1  IDiag  1:
 E= -2902.88570929543     Delta-E=       -0.000000020586 Rises=F Damp=F
 DIIS: error= 3.21D-06 at cycle   1 NSaved=   1.
 NSaved= 1 IEnMin= 1 EnMin= -2902.88570929543     IErMin= 1 ErrMin= 3.21D-06
 ErrMax= 3.21D-06 EMaxC= 1.00D-01 BMatC= 1.20D-09 BMatP= 1.20D-09
 IDIUse=1 WtCom= 1.00D+00 WtEn= 0.00D+00
 Coeff-Com:  0.100D+01
 Coeff:      0.100D+01
 Gap=     0.512 Goal=   None    Shift=    0.000
 RMSDP=1.63D-06 MaxDP=4.94D-05 DE=-2.06D-08 OVMax= 2.33D-05

 Cycle   4  Pass 1  IDiag  1:
 RMSU=  1.81D-07    CP:  1.00D+00
 E= -2902.88570929713     Delta-E=       -0.000000001700 Rises=F Damp=F
 DIIS: error= 8.47D-07 at cycle   2 NSaved=   2.
 NSaved= 2 IEnMin= 2 EnMin= -2902.88570929713     IErMin= 2 ErrMin= 8.47D-07
 ErrMax= 8.47D-07 EMaxC= 1.00D-01 BMatC= 1.76D-10 BMatP= 1.20D-09
 IDIUse=1 WtCom= 1.00D+00 WtEn= 0.00D+00
 Coeff-Com:  0.185D+00 0.815D+00
 Coeff:      0.185D+00 0.815D+00
 Gap=     0.512 Goal=   None    Shift=    0.000
 RMSDP=6.56D-08 MaxDP=2.14D-06 DE=-1.70D-09 OVMax= 4.47D-06

 Cycle   5  Pass 1  IDiag  1:
 RMSU=  3.93D-08    CP:  1.00D+00  1.14D+00
 E= -2902.88570929738     Delta-E=       -0.000000000249 Rises=F Damp=F
 DIIS: error= 2.68D-07 at cycle   3 NSaved=   3.
 NSaved= 3 IEnMin= 3 EnMin= -2902.88570929738     IErMin= 3 ErrMin= 2.68D-07
 ErrMax= 2.68D-07 EMaxC= 1.00D-01 BMatC= 2.91D-11 BMatP= 1.76D-10
 IDIUse=1 WtCom= 1.00D+00 WtEn= 0.00D+00
 Coeff-Com: -0.806D-01 0.570D-01 0.102D+01
 Coeff:     -0.806D-01 0.570D-01 0.102D+01
 Gap=     0.512 Goal=   None    Shift=    0.000
 RMSDP=3.79D-08 MaxDP=1.50D-06 DE=-2.49D-10 OVMax= 3.51D-06

 Cycle   6  Pass 1  IDiag  1:
 RMSU=  1.39D-08    CP:  1.00D+00  1.25D+00  1.23D+00
 E= -2902.88570929741     Delta-E=       -0.000000000036 Rises=F Damp=F
 DIIS: error= 1.87D-07 at cycle   4 NSaved=   4.
 NSaved= 4 IEnMin= 4 EnMin= -2902.88570929741     IErMin= 4 ErrMin= 1.87D-07
 ErrMax= 1.87D-07 EMaxC= 1.00D-01 BMatC= 6.41D-12 BMatP= 2.91D-11
 IDIUse=1 WtCom= 1.00D+00 WtEn= 0.00D+00
 Coeff-Com: -0.622D-01-0.130D+00 0.333D+00 0.859D+00
 Coeff:     -0.622D-01-0.130D+00 0.333D+00 0.859D+00
 Gap=     0.512 Goal=   None    Shift=    0.000
 RMSDP=1.53D-08 MaxDP=5.59D-07 DE=-3.59D-11 OVMax= 1.45D-06

 Cycle   7  Pass 1  IDiag  1:
 RMSU=  5.59D-09    CP:  1.00D+00  1.29D+00  1.39D+00  1.14D+00
 E= -2902.88570929743     Delta-E=       -0.000000000012 Rises=F Damp=F
 DIIS: error= 4.25D-08 at cycle   5 NSaved=   5.
 NSaved= 5 IEnMin= 5 EnMin= -2902.88570929743     IErMin= 5 ErrMin= 4.25D-08
 ErrMax= 4.25D-08 EMaxC= 1.00D-01 BMatC= 2.80D-13 BMatP= 6.41D-12
 IDIUse=1 WtCom= 1.00D+00 WtEn= 0.00D+00
 Coeff-Com:  0.272D-01 0.494D-01-0.189D+00-0.321D+00 0.143D+01
 Coeff:      0.272D-01 0.494D-01-0.189D+00-0.321D+00 0.143D+01
 Gap=     0.512 Goal=   None    Shift=    0.000
 RMSDP=5.17D-09 MaxDP=1.39D-07 DE=-1.18D-11 OVMax= 4.53D-07

 SCF Done:  E(RHF) =  -2902.88570930     A.U. after    7 cycles
             Convg  =    0.5174D-08             -V/T =  2.0001
 KE= 2.902579276530D+03 PE=-7.151449541111D+03 EE= 1.240448308706D+03
 Leave Link  502 at Fri Nov 22 19:19:48 2019, MaxMem=  268435456 cpu:      37.7
 (Enter /home/matheus/.gaussian/g09/l801.exe)
 Windowed orbitals will be sorted by symmetry type.
 ExpMin= 2.53D-02 ExpMax= 1.17D+07 ExpMxC= 1.33D+04 IAcc=3 IRadAn=         5 AccDes= 0.00D+00
 HarFok:  IExCor=  205 AccDes= 0.00D+00 IRadAn=         5 IDoV=-2
 ScaDFX=  1.000000  1.000000  1.000000  1.000000
 DSYEVD returned Info=          93 IAlg= 4 N=    46 NDim=    46 NE2=     4547561 trying DSYEV.
 Largest valence mixing into a core orbital is  1.48D-04
 Largest core mixing into a valence orbital is  2.64D-05
 Range of M.O.s used for correlation:    12   197
 NBasis=   197 NAE=    27 NBE=    27 NFC=    11 NFV=     0
 NROrb=    186 NOA=    16 NOB=    16 NVA=   170 NVB=   170

 **** Warning!!: The largest alpha MO coefficient is  0.15223029D+02

 Leave Link  801 at Fri Nov 22 19:19:49 2019, MaxMem=  268435456 cpu:       0.3
 (Enter /home/matheus/.gaussian/g09/l804.exe)
 Closed-shell transformation, MDV=   268435456 ITran=4 ISComp=1.
 Semi-Direct transformation.
 ModeAB=           4 MOrb=            16 LenV=     267348254
 LASXX=     48528660 LTotXX=    48528660 LenRXX=    97827436
 LTotAB=    49298776 MaxLAS=    72810816 LenRXY=           0
 NonZer=   146356096 LenScr=   220395520 LnRSAI=    72810816
 LnScr1=   109970432 LExtra=           0 Total=    501004204
 MaxDsk=          -1 SrtSym=           T ITran=            4
 DoSDTr:  NPSUse=  2
 JobTyp=0 Pass  1:  I=   1 to  16.
 (rs|ai) integrals will be sorted in core.
 Complete sort for first half transformation.
 First half transformation complete.
 Begin second half transformation for I=  10.
 Complete sort for second half transformation.
 Second half transformation complete.
 SymMOI:  orbitals are not symmetric.
 Spin components of T(2) and E(2):
     alpha-alpha T2 =       0.2556942535D-01 E2=     -0.9849218932D-01
     alpha-beta  T2 =       0.1414497757D+00 E2=     -0.5531561619D+00
     beta-beta   T2 =       0.2556942535D-01 E2=     -0.9849218932D-01
 ANorm=    0.1092057062D+01
 E2 =    -0.7501405406D+00 EUMP2 =    -0.29036358498380D+04
 Leave Link  804 at Fri Nov 22 19:20:12 2019, MaxMem=  268435456 cpu:      43.7
 (Enter /home/matheus/.gaussian/g09/l913.exe)
 CIDS:  MDV=   268435456.
 Frozen-core window:  NFC=  11 NFV=   0.
 IFCWin=0 IBDFC=1 NFBD=     0     0 NFCmp=     0     0 NFFFC=     0     0
 Using DD3R+UMP44R for 1st iteration, S=T.
 Using DD4RQ for 2nd and later iterations.
 Would need an additional       431206676 words for in-memory AO integral storage.
 MP4(SDTQ)
 =========
 DD1Dir will call FoFDir   1 times, MxPair=       272
 NAB=   136 NAA=     0 NBB=     0 NumPrc=  2.
 Integrals replicated using symmetry in FoFDir.
 MinBra= 0 MaxBra= 3 Meth= 1.
 IRaf=       0 NMat= 272 IRICut=     340 DoRegI=T DoRafI=T ISym2E= 2 JSym2E=2.
 MP4(D)= -0.14952154D-01
 MP4(S)= -0.63120388D-02
 MP4(R+Q)=  0.15027736D-01
 T4(AAA)= -0.98992272D-03
 T4(AAB)= -0.13850333D-01
 Time for triples=     1355.29 seconds.
 MP4(T)=   -0.29680512D-01
 E3=       -0.11909585D-01        EUMP3=      -0.29036477594D+04
 E4(DQ)=    0.75581838D-04        UMP4(DQ)=   -0.29036476838D+04
 E4(SDQ)=  -0.62364570D-02        UMP4(SDQ)=  -0.29036539959D+04
 E4(SDTQ)= -0.35916969D-01        UMP4(SDTQ)= -0.29036836764D+04
 VARIATIONAL ENERGIES WITH THE FIRST-ORDER WAVEFUNCTION:
 E(VAR1)=  -0.29035246976D+04     E(CISD,4)=  -0.29035245551D+04
 Largest amplitude= 3.17D-02
 Leave Link  913 at Fri Nov 22 19:32:31 2019, MaxMem=  268435456 cpu:    1438.9
 (Enter /home/matheus/.gaussian/g09/l108.exe)
 Scan completed.

 Summary of the potential surface scan:
   N      R1          SCF          MP2          MP3         MP4DQ       MP4SDQ       MP4SDTQ  
 ----  ---------  -----------  -----------  -----------  -----------  -----------  -----------
    1     3.0000  -2902.87647  -2903.63429  -2903.64541  -2903.64483  -2903.65137  -2903.68208
    2     3.1000  -2902.87924  -2903.63588  -2903.64715  -2903.64665  -2903.65315  -2903.68371
    3     3.2000  -2902.88121  -2903.63685  -2903.64824  -2903.64781  -2903.65429  -2903.68470
    4     3.3000  -2902.88261  -2903.63740  -2903.64887  -2903.64850  -2903.65496  -2903.68526
    5     3.4000  -2902.88360  -2903.63765  -2903.64920  -2903.64888  -2903.65532  -2903.68552
    6     3.5000  -2902.88429  -2903.63771  -2903.64932  -2903.64905  -2903.65546  -2903.68558
    7     3.6000  -2902.88477  -2903.63766  -2903.64932  -2903.64908  -2903.65548  -2903.68552
    8     3.7000  -2902.88511  -2903.63753  -2903.64923  -2903.64902  -2903.65541  -2903.68539
    9     3.8000  -2902.88533  -2903.63736  -2903.64910  -2903.64891  -2903.65529  -2903.68522
   10     3.9000  -2902.88548  -2903.63718  -2903.64895  -2903.64878  -2903.65515  -2903.68504
   11     4.0000  -2902.88558  -2903.63700  -2903.64879  -2903.64864  -2903.65500  -2903.68485
   12     4.1000  -2902.88564  -2903.63682  -2903.64864  -2903.64851  -2903.65485  -2903.68467
   13     4.2000  -2902.88568  -2903.63666  -2903.64849  -2903.64837  -2903.65472  -2903.68451
   14     4.3000  -2902.88571  -2903.63652  -2903.64836  -2903.64825  -2903.65459  -2903.68436
   15     4.4000  -2902.88572  -2903.63639  -2903.64824  -2903.64814  -2903.65447  -2903.68422
   16     4.5000  -2902.88572  -2903.63627  -2903.64814  -2903.64804  -2903.65437  -2903.68410
   17     4.6000  -2902.88572  -2903.63616  -2903.64804  -2903.64795  -2903.65428  -2903.68400
   18     4.7000  -2902.88572  -2903.63607  -2903.64796  -2903.64787  -2903.65419  -2903.68390
   19     4.8000  -2902.88572  -2903.63599  -2903.64788  -2903.64780  -2903.65412  -2903.68382
   20     4.9000  -2902.88571  -2903.63591  -2903.64782  -2903.64774  -2903.65405  -2903.68374
   21     5.0000  -2902.88571  -2903.63585  -2903.64776  -2903.64768  -2903.65400  -2903.68368
 ----  ---------  -----------  -----------  -----------  -----------  -----------  -----------
  
 Leave Link  108 at Fri Nov 22 19:32:32 2019, MaxMem=  268435456 cpu:       0.2
 (Enter /home/matheus/.gaussian/g09/l9999.exe)
 1\1\GINC-REDGIANT\Scan\RMP4SDTQ-FC\Aug-CC-pVTZ\H2Kr1O2\MATHEUS\22-Nov-
 2019\1\\#p mp4/aug-cc-PVTz int=ultrafine Scan\\PTCC\\0,1\O,0,0.,0.,0.7
 25\O,0,0.,0.,-0.725\H,0,0.795635374,0.4593602974,1.0235104166\H,0,0.,0
 .9187205947,-1.0235104166\Kr,0,0.,R1,0.\\R1=3.,s,20,0.1\\Version=EM64L
 -G09RevC.01\State=1-A\HF=-2902.876467,-2902.8792363,-2902.8812115,-290
 2.8826128,-2902.8836011,-2902.8842935,-2902.8847747,-2902.8851058,-290
 2.8853308,-2902.8854814,-2902.8855801,-2902.8856432,-2902.8856822,-290
 2.8857051,-2902.8857174,-2902.8857227,-2902.8857237,-2902.8857218,-290
 2.8857184,-2902.885714,-2902.8857093\MP2=-2903.6342931,-2903.6358834,-
 2903.6368546,-2903.6373978,-2903.6376509,-2903.6377131,-2903.6376551,-
 2903.6375261,-2903.63736,-2903.6371792,-2903.6369977,-2903.6368242,-29
 03.6366633,-2903.6365169,-2903.6363853,-2903.6362677,-2903.6361631,-29
 03.6360702,-2903.6359878,-2903.6359147,-2903.6358498\MP3=-2903.6454069
 ,-2903.6471462,-2903.6482351,-2903.648872,-2903.6492005,-2903.6493239,
 -2903.6493162,-2903.649229,-2903.6490978,-2903.6489463,-2903.6487897,-
 2903.6486374,-2903.6484944,-2903.6483634,-2903.648245,-2903.6481388,-2
 903.6480441,-2903.6479598,-2903.6478849,-2903.6478184,-2903.6477594\MP
 4D=-2903.6603646,-2903.6621042,-2903.6631937,-2903.6638312,-2903.66415
 98,-2903.6642832,-2903.6642751,-2903.6641874,-2903.6640556,-2903.66390
 36,-2903.6637464,-2903.6635935,-2903.6634501,-2903.6633185,-2903.66319
 96,-2903.663093,-2903.6629978,-2903.6629131,-2903.6628378,-2903.662770
 9,-2903.6627116\MP4DQ=-2903.6448286,-2903.6466485,-2903.647807,-2903.6
 485033,-2903.6488822,-2903.6490483,-2903.6490764,-2903.6490192,-2903.6
 489132,-2903.6487826,-2903.6486434,-2903.6485055,-2903.6483745,-2903.6
 482533,-2903.648143,-2903.6480436,-2903.6479544,-2903.6478746,-2903.64
 78035,-2903.6477402,-2903.6476838\MP4SDQ=-2903.6513657,-2903.6531541,-
 2903.6542854,-2903.6549581,-2903.6553165,-2903.6554647,-2903.6554771,-
 2903.6554062,-2903.6552882,-2903.6551472,-2903.6549991,-2903.6548534,-
 2903.6547157,-2903.6545887,-2903.6544734,-2903.6543696,-2903.6542767,-
 2903.6541938,-2903.65412,-2903.6540543,-2903.6539959\MP4SDTQ=-2903.682
 0751,-2903.6837062,-2903.6847032,-2903.685261,-2903.6855209,-2903.6855
 847,-2903.685525,-2903.6853925,-2903.6852219,-2903.6850363,-2903.68485
 03,-2903.6846725,-2903.6845076,-2903.6843576,-2903.6842229,-2903.68410
 26,-2903.6839957,-2903.6839008,-2903.6838167,-2903.6837423,-2903.68367
 64\RMSD=4.316e-09,6.264e-09,5.320e-09,6.024e-09,5.290e-09,4.681e-09,4.
 119e-09,6.701e-09,3.801e-09,3.037e-09,3.622e-09,3.475e-09,3.108e-09,2.
 841e-09,2.451e-09,9.111e-09,7.782e-09,6.842e-09,6.178e-09,5.650e-09,5.
 174e-09\PG=C01 [X(H2Kr1O2)]\\@


 The cat could very well be man's best friend
 but would never stoop to admitting it.
                               -- Doug Larson
 Job cpu time:  0 days  9 hours 36 minutes 20.9 seconds.
 File lengths (MBytes):  RWF=   3949 Int=      0 D2E=      0 Chk=      4 Scr=      1
 Normal termination of Gaussian 09 at Fri Nov 22 19:32:32 2019.
