 Entering Gaussian System, Link 0=g09
 Input=/home/matheus/.ptcc/Inputs/H2O2-Kr_5.com
 Output=/home/matheus/.ptcc/Inputs/H2O2-Kr_5.log
 Initial command:
 /home/matheus/.gaussian/g09/l1.exe /home/matheus/.gaussian/g09/scratch/Gau-4796.inp -scrdir=/home/matheus/.gaussian/g09/scratch/
 Entering Link 1 = /home/matheus/.gaussian/g09/l1.exe PID=      4798.
  
 Copyright (c) 1988,1990,1992,1993,1995,1998,2003,2009,2011,
            Gaussian, Inc.  All Rights Reserved.
  
 This is part of the Gaussian(R) 09 program.  It is based on
 the Gaussian(R) 03 system (copyright 2003, Gaussian, Inc.),
 the Gaussian(R) 98 system (copyright 1998, Gaussian, Inc.),
 the Gaussian(R) 94 system (copyright 1995, Gaussian, Inc.),
 the Gaussian 92(TM) system (copyright 1992, Gaussian, Inc.),
 the Gaussian 90(TM) system (copyright 1990, Gaussian, Inc.),
 the Gaussian 88(TM) system (copyright 1988, Gaussian, Inc.),
 the Gaussian 86(TM) system (copyright 1986, Carnegie Mellon
 University), and the Gaussian 82(TM) system (copyright 1983,
 Carnegie Mellon University). Gaussian is a federally registered
 trademark of Gaussian, Inc.
  
 This software contains proprietary and confidential information,
 including trade secrets, belonging to Gaussian, Inc.
  
 This software is provided under written license and may be
 used, copied, transmitted, or stored only in accord with that
 written license.
  
 The following legend is applicable only to US Government
 contracts under FAR:
  
                    RESTRICTED RIGHTS LEGEND
  
 Use, reproduction and disclosure by the US Government is
 subject to restrictions as set forth in subparagraphs (a)
 and (c) of the Commercial Computer Software - Restricted
 Rights clause in FAR 52.227-19.
  
 Gaussian, Inc.
 340 Quinnipiac St., Bldg. 40, Wallingford CT 06492
  
  
 ---------------------------------------------------------------
 Warning -- This program may not be used in any manner that
 competes with the business of Gaussian, Inc. or will provide
 assistance to any competitor of Gaussian, Inc.  The licensee
 of this program is prohibited from giving any competitor of
 Gaussian, Inc. access to this program.  By using this program,
 the user acknowledges that Gaussian, Inc. is engaged in the
 business of creating and licensing software in the field of
 computational chemistry and represents and warrants to the
 licensee that it is not a competitor of Gaussian, Inc. and that
 it will not use this program in any manner prohibited above.
 ---------------------------------------------------------------
  

 Cite this work as:
 Gaussian 09, Revision C.01,
 M. J. Frisch, G. W. Trucks, H. B. Schlegel, G. E. Scuseria, 
 M. A. Robb, J. R. Cheeseman, G. Scalmani, V. Barone, B. Mennucci, 
 G. A. Petersson, H. Nakatsuji, M. Caricato, X. Li, H. P. Hratchian, 
 A. F. Izmaylov, J. Bloino, G. Zheng, J. L. Sonnenberg, M. Hada, 
 M. Ehara, K. Toyota, R. Fukuda, J. Hasegawa, M. Ishida, T. Nakajima, 
 Y. Honda, O. Kitao, H. Nakai, T. Vreven, J. A. Montgomery, Jr., 
 J. E. Peralta, F. Ogliaro, M. Bearpark, J. J. Heyd, E. Brothers, 
 K. N. Kudin, V. N. Staroverov, T. Keith, R. Kobayashi, J. Normand, 
 K. Raghavachari, A. Rendell, J. C. Burant, S. S. Iyengar, J. Tomasi, 
 M. Cossi, N. Rega, J. M. Millam, M. Klene, J. E. Knox, J. B. Cross, 
 V. Bakken, C. Adamo, J. Jaramillo, R. Gomperts, R. E. Stratmann, 
 O. Yazyev, A. J. Austin, R. Cammi, C. Pomelli, J. W. Ochterski, 
 R. L. Martin, K. Morokuma, V. G. Zakrzewski, G. A. Voth, 
 P. Salvador, J. J. Dannenberg, S. Dapprich, A. D. Daniels, 
 O. Farkas, J. B. Foresman, J. V. Ortiz, J. Cioslowski, 
 and D. J. Fox, Gaussian, Inc., Wallingford CT, 2010.
 
 ******************************************
 Gaussian 09:  EM64L-G09RevC.01 23-Sep-2011
                22-Nov-2019 
 ******************************************
 %mem=2GB
 %nproc=2
 Will use up to    2 processors via shared memory.
 -------------------------------------
 #p mp4/aug-cc-PVTz int=ultrafine Scan
 -------------------------------------
 1/38=1,60=1/1,8;
 2/12=2,17=6,18=5,29=3,40=1/2;
 3/5=16,6=1,7=10,11=9,16=1,25=1,30=1,75=-5/1,2,3;
 4//1;
 5/5=2,38=5/2;
 8/6=4,9=120000,10=1/1,4;
 9/5=5/13;
 6/7=2,8=2,9=2,10=2,18=1/1;
 1/60=1/8(1);
 99/9=1/99;
 2/29=3/2;
 3/5=16,6=1,7=10,11=9,16=1,25=1,30=1,75=-5/1,2,3;
 4/5=5,16=3/1;
 5/5=2,38=5/2;
 8/6=4,9=120000,10=1/1,4;
 9/5=5/13;
 1/60=1/8(-6);
 99/9=1/99;
 Leave Link    1 at Fri Nov 22 09:37:20 2019, MaxMem=  268435456 cpu:       0.0
 (Enter /home/matheus/.gaussian/g09/l101.exe)
 ----
 PTCC
 ----
 Charge =  0 Multiplicity = 1
 Symbolic Z-Matrix:
 O                     0.        0.        0.725 
 O                     0.        0.       -0.725 
 H                     0.70378   0.59054   1.02351 
 H                     0.        0.91872  -1.02351 
 Kr                    0.       R1        0. 
       Variables:
  R1                    3.     Scan 20    0.1    
 
 NAtoms=      5 NQM=        0 NQMF=       0 NMMI=      5 NMMIF=      0
                NMic=       0 NMicF=      0.
                    Isotopes and Nuclear Properties:
 (Nuclear quadrupole moments (NQMom) in fm**2, nuclear magnetic moments (NMagM)
  in nuclear magnetons)

  Atom         1           2           3           4           5
 IAtWgt=          16          16           1           1          84
 AtmWgt=  15.9949146  15.9949146   1.0078250   1.0078250  83.9115064
 NucSpn=           0           0           1           1           0
 AtZEff=   0.0000000   0.0000000   0.0000000   0.0000000   0.0000000
 NQMom=    0.0000000   0.0000000   0.0000000   0.0000000   0.0000000
 NMagM=    0.0000000   0.0000000   2.7928460   2.7928460   0.0000000
 Leave Link  101 at Fri Nov 22 09:37:21 2019, MaxMem=  268435456 cpu:       0.1
 (Enter /home/matheus/.gaussian/g09/l108.exe)
 Scan the potential surface.
 Variable   Value     No. Steps Step-Size
 -------- ----------- --------- ---------
     1       3.000000      20      0.1000
 A total of     21 points will be computed.
 Leave Link  108 at Fri Nov 22 09:37:21 2019, MaxMem=  268435456 cpu:       0.0
 (Enter /home/matheus/.gaussian/g09/l202.exe)
 ---------------------------------------------------------------------------------------------------
                            Z-MATRIX (ANGSTROMS AND DEGREES)
   CD    Cent   Atom    N1       Length/X        N2       Alpha/Y        N3        Beta/Z          J
 ---------------------------------------------------------------------------------------------------
      1      1  O        0   0.000000          0.000000          0.725000
      2      2  O        0   0.000000          0.000000         -0.725000
      3      3  H        0   0.703781          0.590542          1.023510
      4      4  H        0   0.000000          0.918721         -1.023510
      5      5  Kr       0   0.000000          3.000000          0.000000
 ---------------------------------------------------------------------------------------------------
                         Z-Matrix orientation:                         
 ---------------------------------------------------------------------
 Center     Atomic      Atomic             Coordinates (Angstroms)
 Number     Number       Type             X           Y           Z
 ---------------------------------------------------------------------
      1          8           0        0.000000    0.000000    0.725000
      2          8           0        0.000000    0.000000   -0.725000
      3          1           0        0.703781    0.590542    1.023510
      4          1           0        0.000000    0.918721   -1.023510
      5         36           0        0.000000    3.000000    0.000000
 ---------------------------------------------------------------------
                    Distance matrix (angstroms):
                    1          2          3          4          5
     1  O    0.000000
     2  O    1.450000   0.000000
     3  H    0.966000   1.975180   0.000000
     4  H    1.975180   0.966000   2.189361   0.000000
     5  Kr   3.086361   3.086361   2.710787   2.319331   0.000000
 Stoichiometry    H2KrO2
 Framework group  C1[X(H2KrO2)]
 Deg. of freedom     9
 Full point group                 C1      NOp   1
 Largest Abelian subgroup         C1      NOp   1
 Largest concise Abelian subgroup C1      NOp   1
                         Standard orientation:                         
 ---------------------------------------------------------------------
 Center     Atomic      Atomic             Coordinates (Angstroms)
 Number     Number       Type             X           Y           Z
 ---------------------------------------------------------------------
      1          8           0        2.030392   -0.713331   -0.083900
      2          8           0        2.025023    0.733004    0.018989
      3          1           0        1.447943   -1.063593    0.602558
      4          1           0        1.105248    1.026723    0.048985
      5         36           0       -0.972125   -0.003348   -0.003674
 ---------------------------------------------------------------------
 Rotational constants (GHZ):     26.0306695      2.3732907      2.1836508
 Leave Link  202 at Fri Nov 22 09:37:21 2019, MaxMem=  268435456 cpu:       0.0
 (Enter /home/matheus/.gaussian/g09/l301.exe)
 Standard basis: Aug-CC-pVTZ (5D, 7F)
 Ernie: Thresh=  0.10000D-02 Tol=  0.10000D-05 Strict=F.
 Ernie:  38 primitive shells out of 205 were deleted.
 There are   197 symmetry adapted basis functions of A   symmetry.
 Integral buffers will be    131072 words long.
 Raffenetti 1 integral format.
 Two-electron integral symmetry is turned on.
   197 basis functions,   415 primitive gaussians,   229 cartesian basis functions
    27 alpha electrons       27 beta electrons
       nuclear repulsion energy       150.6503454741 Hartrees.
 IExCor=    0 DFT=F Ex=HF Corr=None ExCW=0 ScaHFX=  1.000000
 ScaDFX=  1.000000  1.000000  1.000000  1.000000 ScalE2=  1.000000  1.000000
 IRadAn=      5 IRanWt=     -1 IRanGd=            0 ICorTp=0
 NAtoms=    5 NActive=    5 NUniq=    5 SFac= 1.00D+00 NAtFMM=   60 NAOKFM=F Big=F
 Leave Link  301 at Fri Nov 22 09:37:21 2019, MaxMem=  268435456 cpu:       0.1
 (Enter /home/matheus/.gaussian/g09/l302.exe)
 NPDir=0 NMtPBC=     1 NCelOv=     1 NCel=       1 NClECP=     1 NCelD=      1
         NCelK=      1 NCelE2=     1 NClLst=     1 CellRange=     0.0.
 One-electron integrals computed using PRISM.
 NBasis=   197 RedAO= T  NBF=   197
 NBsUse=   197 1.00D-06 NBFU=   197
 Leave Link  302 at Fri Nov 22 09:37:21 2019, MaxMem=  268435456 cpu:       0.2
 (Enter /home/matheus/.gaussian/g09/l303.exe)
 DipDrv:  MaxL=1.
 Leave Link  303 at Fri Nov 22 09:37:21 2019, MaxMem=  268435456 cpu:       0.1
 (Enter /home/matheus/.gaussian/g09/l401.exe)
 Harris functional with IExCor=  205 diagonalized for initial guess.
 ExpMin= 2.53D-02 ExpMax= 1.17D+07 ExpMxC= 1.33D+04 IAcc=3 IRadAn=         5 AccDes= 0.00D+00
 HarFok:  IExCor=  205 AccDes= 0.00D+00 IRadAn=         5 IDoV= 1
 ScaDFX=  1.000000  1.000000  1.000000  1.000000
 FoFCou: FMM=F IPFlag=           0 FMFlag=      100000 FMFlg1=           0
         NFxFlg=           0 DoJE=T BraDBF=F KetDBF=T FulRan=T
         Omega=  0.000000  0.000000  1.000000  0.000000  0.000000 ICntrl=     500 IOpCl=  0
         NMat0=    1 NMatS0=    1 NMatT0=    0 NMatD0=    1 NMtDS0=    0 NMtDT0=    0
         I1Cent=           4 NGrid=           0.
 Petite list used in FoFCou.
 Harris En= -2901.92882670730    
 Initial guess orbital symmetries:
       Occupied  (A) (A) (A) (A) (A) (A) (A) (A) (A) (A) (A) (A)
                 (A) (A) (A) (A) (A) (A) (A) (A) (A) (A) (A) (A)
                 (A) (A) (A)
       Virtual   (A) (A) (A) (A) (A) (A) (A) (A) (A) (A) (A) (A)
                 (A) (A) (A) (A) (A) (A) (A) (A) (A) (A) (A) (A)
                 (A) (A) (A) (A) (A) (A) (A) (A) (A) (A) (A) (A)
                 (A) (A) (A) (A) (A) (A) (A) (A) (A) (A) (A) (A)
                 (A) (A) (A) (A) (A) (A) (A) (A) (A) (A) (A) (A)
                 (A) (A) (A) (A) (A) (A) (A) (A) (A) (A) (A) (A)
                 (A) (A) (A) (A) (A) (A) (A) (A) (A) (A) (A) (A)
                 (A) (A) (A) (A) (A) (A) (A) (A) (A) (A) (A) (A)
                 (A) (A) (A) (A) (A) (A) (A) (A) (A) (A) (A) (A)
                 (A) (A) (A) (A) (A) (A) (A) (A) (A) (A) (A) (A)
                 (A) (A) (A) (A) (A) (A) (A) (A) (A) (A) (A) (A)
                 (A) (A) (A) (A) (A) (A) (A) (A) (A) (A) (A) (A)
                 (A) (A) (A) (A) (A) (A) (A) (A) (A) (A) (A) (A)
                 (A) (A) (A) (A) (A) (A) (A) (A) (A) (A) (A) (A)
                 (A) (A)
 The electronic state of the initial guess is 1-A.
 Leave Link  401 at Fri Nov 22 09:37:22 2019, MaxMem=  268435456 cpu:       1.2
 (Enter /home/matheus/.gaussian/g09/l502.exe)
 Closed shell SCF:
 Requested convergence on RMS density matrix=1.00D-08 within 128 cycles.
 Requested convergence on MAX density matrix=1.00D-06.
 Requested convergence on             energy=1.00D-06.
 No special actions if energy rises.
 Using DIIS extrapolation, IDIIS=  1040.
 Integral symmetry usage will be decided dynamically.
 IEnd=      178489 IEndB=      178489 NGot=   268435456 MDV=   268326278
 LenX=   268326278 LenY=   268273396
 Fock matrices will be formed incrementally for  20 cycles.

 Cycle   1  Pass 0  IDiag  1:
 FoFCou: FMM=F IPFlag=           0 FMFlag=      100000 FMFlg1=           0
         NFxFlg=           0 DoJE=F BraDBF=F KetDBF=F FulRan=T
         Omega=  0.000000  0.000000  1.000000  0.000000  0.000000 ICntrl=       0 IOpCl=  0
         NMat0=    1 NMatS0=    1 NMatT0=    0 NMatD0=    1 NMtDS0=    0 NMtDT0=    0
         I1Cent=           0 NGrid=           0.
 Symmetry not used in FoFCou.
 E= -2902.75307257677    
 DIIS: error= 4.81D-02 at cycle   1 NSaved=   1.
 NSaved= 1 IEnMin= 1 EnMin= -2902.75307257677     IErMin= 1 ErrMin= 4.81D-02
 ErrMax= 4.81D-02 EMaxC= 1.00D-01 BMatC= 6.98D-01 BMatP= 6.98D-01
 IDIUse=3 WtCom= 5.19D-01 WtEn= 4.81D-01
 Coeff-Com:  0.100D+01
 Coeff-En:   0.100D+01
 Coeff:      0.100D+01
 Gap=     0.693 Goal=   None    Shift=    0.000
 GapD=    0.693 DampG=2.000 DampE=0.500 DampFc=1.0000 IDamp=-1.
 RMSDP=2.27D-03 MaxDP=1.53D-01              OVMax= 5.24D-02

 Cycle   2  Pass 0  IDiag  1:
 RMSU=  1.59D-03    CP:  1.01D+00
 E= -2902.85892612884     Delta-E=       -0.105853552064 Rises=F Damp=F
 DIIS: error= 8.15D-03 at cycle   2 NSaved=   2.
 NSaved= 2 IEnMin= 2 EnMin= -2902.85892612884     IErMin= 2 ErrMin= 8.15D-03
 ErrMax= 8.15D-03 EMaxC= 1.00D-01 BMatC= 4.22D-02 BMatP= 6.98D-01
 IDIUse=3 WtCom= 9.18D-01 WtEn= 8.15D-02
 Coeff-Com:  0.154D+00 0.846D+00
 Coeff-En:   0.000D+00 0.100D+01
 Coeff:      0.142D+00 0.858D+00
 Gap=     0.525 Goal=   None    Shift=    0.000
 RMSDP=8.26D-04 MaxDP=4.32D-02 DE=-1.06D-01 OVMax= 2.46D-02

 Cycle   3  Pass 0  IDiag  1:
 RMSU=  4.53D-04    CP:  1.01D+00  7.78D-01
 E= -2902.87353070389     Delta-E=       -0.014604575052 Rises=F Damp=F
 DIIS: error= 2.28D-03 at cycle   3 NSaved=   3.
 NSaved= 3 IEnMin= 3 EnMin= -2902.87353070389     IErMin= 3 ErrMin= 2.28D-03
 ErrMax= 2.28D-03 EMaxC= 1.00D-01 BMatC= 2.50D-03 BMatP= 4.22D-02
 IDIUse=3 WtCom= 9.77D-01 WtEn= 2.28D-02
 Coeff-Com: -0.577D-02 0.174D+00 0.832D+00
 Coeff-En:   0.000D+00 0.000D+00 0.100D+01
 Coeff:     -0.564D-02 0.170D+00 0.836D+00
 Gap=     0.501 Goal=   None    Shift=    0.000
 RMSDP=1.31D-04 MaxDP=5.06D-03 DE=-1.46D-02 OVMax= 7.89D-03

 Cycle   4  Pass 0  IDiag  1:
 RMSU=  5.02D-05    CP:  1.01D+00  8.10D-01  8.75D-01
 E= -2902.87476427775     Delta-E=       -0.001233573858 Rises=F Damp=F
 DIIS: error= 3.60D-04 at cycle   4 NSaved=   4.
 NSaved= 4 IEnMin= 4 EnMin= -2902.87476427775     IErMin= 4 ErrMin= 3.60D-04
 ErrMax= 3.60D-04 EMaxC= 1.00D-01 BMatC= 5.33D-05 BMatP= 2.50D-03
 IDIUse=3 WtCom= 9.96D-01 WtEn= 3.60D-03
 Coeff-Com: -0.452D-02 0.120D-01 0.157D+00 0.835D+00
 Coeff-En:   0.000D+00 0.000D+00 0.000D+00 0.100D+01
 Coeff:     -0.450D-02 0.119D-01 0.157D+00 0.836D+00
 Gap=     0.505 Goal=   None    Shift=    0.000
 RMSDP=2.31D-05 MaxDP=7.28D-04 DE=-1.23D-03 OVMax= 1.79D-03

 Cycle   5  Pass 0  IDiag  1:
 RMSU=  1.41D-05    CP:  1.01D+00  8.11D-01  8.92D-01  9.73D-01
 E= -2902.87480909692     Delta-E=       -0.000044819173 Rises=F Damp=F
 DIIS: error= 1.18D-04 at cycle   5 NSaved=   5.
 NSaved= 5 IEnMin= 5 EnMin= -2902.87480909692     IErMin= 5 ErrMin= 1.18D-04
 ErrMax= 1.18D-04 EMaxC= 1.00D-01 BMatC= 3.93D-06 BMatP= 5.33D-05
 IDIUse=3 WtCom= 9.99D-01 WtEn= 1.18D-03
 Coeff-Com:  0.878D-03-0.157D-01-0.748D-01 0.624D-03 0.109D+01
 Coeff-En:   0.000D+00 0.000D+00 0.000D+00 0.000D+00 0.100D+01
 Coeff:      0.877D-03-0.156D-01-0.747D-01 0.623D-03 0.109D+01
 Gap=     0.505 Goal=   None    Shift=    0.000
 RMSDP=1.17D-05 MaxDP=3.34D-04 DE=-4.48D-05 OVMax= 7.87D-04

 Cycle   6  Pass 0  IDiag  1:
 RMSU=  5.20D-06    CP:  1.01D+00  8.09D-01  8.89D-01  1.06D+00  1.26D+00
 E= -2902.87481517135     Delta-E=       -0.000006074433 Rises=F Damp=F
 DIIS: error= 3.07D-05 at cycle   6 NSaved=   6.
 NSaved= 6 IEnMin= 6 EnMin= -2902.87481517135     IErMin= 6 ErrMin= 3.07D-05
 ErrMax= 3.07D-05 EMaxC= 1.00D-01 BMatC= 2.70D-07 BMatP= 3.93D-06
 IDIUse=1 WtCom= 1.00D+00 WtEn= 0.00D+00
 Coeff-Com:  0.224D-03-0.138D-03-0.858D-02-0.545D-01-0.100D-01 0.107D+01
 Coeff:      0.224D-03-0.138D-03-0.858D-02-0.545D-01-0.100D-01 0.107D+01
 Gap=     0.505 Goal=   None    Shift=    0.000
 RMSDP=3.69D-06 MaxDP=1.29D-04 DE=-6.07D-06 OVMax= 2.86D-04

 Initial convergence to 1.0D-05 achieved.  Increase integral accuracy.
 Cycle   7  Pass 1  IDiag  1:
 E= -2902.87481573054     Delta-E=       -0.000000559191 Rises=F Damp=F
 DIIS: error= 1.09D-05 at cycle   1 NSaved=   1.
 NSaved= 1 IEnMin= 1 EnMin= -2902.87481573054     IErMin= 1 ErrMin= 1.09D-05
 ErrMax= 1.09D-05 EMaxC= 1.00D-01 BMatC= 4.54D-08 BMatP= 4.54D-08
 IDIUse=1 WtCom= 1.00D+00 WtEn= 0.00D+00
 Coeff-Com:  0.100D+01
 Coeff:      0.100D+01
 Gap=     0.505 Goal=   None    Shift=    0.000
 RMSDP=3.69D-06 MaxDP=1.29D-04 DE=-5.59D-07 OVMax= 9.83D-05

 Cycle   8  Pass 1  IDiag  1:
 RMSU=  8.23D-07    CP:  1.00D+00
 E= -2902.87481579730     Delta-E=       -0.000000066755 Rises=F Damp=F
 DIIS: error= 8.53D-06 at cycle   2 NSaved=   2.
 NSaved= 2 IEnMin= 2 EnMin= -2902.87481579730     IErMin= 2 ErrMin= 8.53D-06
 ErrMax= 8.53D-06 EMaxC= 1.00D-01 BMatC= 2.18D-08 BMatP= 4.54D-08
 IDIUse=1 WtCom= 1.00D+00 WtEn= 0.00D+00
 Coeff-Com:  0.356D+00 0.644D+00
 Coeff:      0.356D+00 0.644D+00
 Gap=     0.505 Goal=   None    Shift=    0.000
 RMSDP=4.96D-07 MaxDP=2.16D-05 DE=-6.68D-08 OVMax= 3.94D-05

 Cycle   9  Pass 1  IDiag  1:
 RMSU=  3.33D-07    CP:  1.00D+00  1.13D+00
 E= -2902.87481581928     Delta-E=       -0.000000021986 Rises=F Damp=F
 DIIS: error= 3.70D-06 at cycle   3 NSaved=   3.
 NSaved= 3 IEnMin= 3 EnMin= -2902.87481581928     IErMin= 3 ErrMin= 3.70D-06
 ErrMax= 3.70D-06 EMaxC= 1.00D-01 BMatC= 3.55D-09 BMatP= 2.18D-08
 IDIUse=1 WtCom= 1.00D+00 WtEn= 0.00D+00
 Coeff-Com: -0.459D+00-0.286D+00 0.175D+01
 Coeff:     -0.459D+00-0.286D+00 0.175D+01
 Gap=     0.505 Goal=   None    Shift=    0.000
 RMSDP=7.64D-07 MaxDP=1.76D-05 DE=-2.20D-08 OVMax= 8.11D-05

 Cycle  10  Pass 1  IDiag  1:
 RMSU=  8.95D-08    CP:  1.00D+00  1.70D+00  1.77D+00
 E= -2902.87481583295     Delta-E=       -0.000000013667 Rises=F Damp=F
 DIIS: error= 7.49D-07 at cycle   4 NSaved=   4.
 NSaved= 4 IEnMin= 4 EnMin= -2902.87481583295     IErMin= 4 ErrMin= 7.49D-07
 ErrMax= 7.49D-07 EMaxC= 1.00D-01 BMatC= 1.28D-10 BMatP= 3.55D-09
 IDIUse=1 WtCom= 1.00D+00 WtEn= 0.00D+00
 Coeff-Com:  0.909D-01 0.367D-01-0.393D+00 0.126D+01
 Coeff:      0.909D-01 0.367D-01-0.393D+00 0.126D+01
 Gap=     0.505 Goal=   None    Shift=    0.000
 RMSDP=1.01D-07 MaxDP=2.50D-06 DE=-1.37D-08 OVMax= 1.34D-05

 Cycle  11  Pass 1  IDiag  1:
 RMSU=  2.49D-08    CP:  1.00D+00  1.75D+00  1.85D+00  1.54D+00
 E= -2902.87481583341     Delta-E=       -0.000000000456 Rises=F Damp=F
 DIIS: error= 2.57D-07 at cycle   5 NSaved=   5.
 NSaved= 5 IEnMin= 5 EnMin= -2902.87481583341     IErMin= 5 ErrMin= 2.57D-07
 ErrMax= 2.57D-07 EMaxC= 1.00D-01 BMatC= 2.27D-11 BMatP= 1.28D-10
 IDIUse=1 WtCom= 1.00D+00 WtEn= 0.00D+00
 Coeff-Com:  0.776D-01 0.471D-01-0.298D+00 0.257D-01 0.115D+01
 Coeff:      0.776D-01 0.471D-01-0.298D+00 0.257D-01 0.115D+01
 Gap=     0.505 Goal=   None    Shift=    0.000
 RMSDP=4.37D-08 MaxDP=1.17D-06 DE=-4.56D-10 OVMax= 5.86D-06

 Cycle  12  Pass 1  IDiag  1:
 RMSU=  8.50D-09    CP:  1.00D+00  1.76D+00  1.87D+00  1.79D+00  1.45D+00
 E= -2902.87481583350     Delta-E=       -0.000000000095 Rises=F Damp=F
 DIIS: error= 9.01D-08 at cycle   6 NSaved=   6.
 NSaved= 6 IEnMin= 6 EnMin= -2902.87481583350     IErMin= 6 ErrMin= 9.01D-08
 ErrMax= 9.01D-08 EMaxC= 1.00D-01 BMatC= 2.18D-12 BMatP= 2.27D-11
 IDIUse=1 WtCom= 1.00D+00 WtEn= 0.00D+00
 Coeff-Com: -0.242D-02 0.210D-03 0.129D-01-0.104D+00 0.224D-01 0.107D+01
 Coeff:     -0.242D-02 0.210D-03 0.129D-01-0.104D+00 0.224D-01 0.107D+01
 Gap=     0.505 Goal=   None    Shift=    0.000
 RMSDP=1.19D-08 MaxDP=3.11D-07 DE=-9.55D-11 OVMax= 1.46D-06

 Cycle  13  Pass 1  IDiag  1:
 RMSU=  3.09D-09    CP:  1.00D+00  1.76D+00  1.87D+00  1.85D+00  1.68D+00
                    CP:  1.21D+00
 E= -2902.87481583350     Delta-E=        0.000000000001 Rises=F Damp=F
 DIIS: error= 2.78D-08 at cycle   7 NSaved=   7.
 NSaved= 7 IEnMin= 6 EnMin= -2902.87481583350     IErMin= 7 ErrMin= 2.78D-08
 ErrMax= 2.78D-08 EMaxC= 1.00D-01 BMatC= 2.75D-13 BMatP= 2.18D-12
 IDIUse=1 WtCom= 1.00D+00 WtEn= 0.00D+00
 Coeff-Com: -0.103D-01-0.595D-02 0.397D-01-0.290D-02-0.181D+00 0.867D-01
 Coeff-Com:  0.107D+01
 Coeff:     -0.103D-01-0.595D-02 0.397D-01-0.290D-02-0.181D+00 0.867D-01
 Coeff:      0.107D+01
 Gap=     0.505 Goal=   None    Shift=    0.000
 RMSDP=4.15D-09 MaxDP=1.09D-07 DE= 1.36D-12 OVMax= 4.42D-07

 SCF Done:  E(RHF) =  -2902.87481583     A.U. after   13 cycles
             Convg  =    0.4154D-08             -V/T =  2.0001
 KE= 2.902652820403D+03 PE=-7.241190209873D+03 EE= 1.285012228162D+03
 Leave Link  502 at Fri Nov 22 09:38:15 2019, MaxMem=  268435456 cpu:     105.4
 (Enter /home/matheus/.gaussian/g09/l801.exe)
 Windowed orbitals will be sorted by symmetry type.
 ExpMin= 2.53D-02 ExpMax= 1.17D+07 ExpMxC= 1.33D+04 IAcc=3 IRadAn=         5 AccDes= 0.00D+00
 HarFok:  IExCor=  205 AccDes= 0.00D+00 IRadAn=         5 IDoV=-2
 ScaDFX=  1.000000  1.000000  1.000000  1.000000
 DSYEVD returned Info=          93 IAlg= 4 N=    46 NDim=    46 NE2=     4547561 trying DSYEV.
 DSYEVD returned Info=         119 IAlg= 4 N=    59 NDim=    59 NE2=     4547561 trying DSYEV.
 Largest valence mixing into a core orbital is  1.44D-04
 Largest core mixing into a valence orbital is  2.62D-05
 Range of M.O.s used for correlation:    12   197
 NBasis=   197 NAE=    27 NBE=    27 NFC=    11 NFV=     0
 NROrb=    186 NOA=    16 NOB=    16 NVA=   170 NVB=   170

 **** Warning!!: The largest alpha MO coefficient is  0.16319764D+02

 Leave Link  801 at Fri Nov 22 09:38:15 2019, MaxMem=  268435456 cpu:       0.3
 (Enter /home/matheus/.gaussian/g09/l804.exe)
 Closed-shell transformation, MDV=   268435456 ITran=4 ISComp=1.
 Semi-Direct transformation.
 ModeAB=           2 MOrb=            16 LenV=     267324234
 LASXX=     48528660 LTotXX=    48528660 LenRXX=    48528660
 LTotAB=    49298776 MaxLAS=    78372960 LenRXY=    78372960
 NonZer=    97057320 LenScr=   146313216 LnRSAI=           0
 LnScr1=           0 LExtra=           0 Total=    273214836
 MaxDsk=          -1 SrtSym=           F ITran=            4
 DoSDTr:  NPSUse=  2
 JobTyp=0 Pass  1:  I=   1 to  16.
 (rs|ai) integrals will be sorted in core.
 Complete sort for first half transformation.
 First half transformation complete.
 Begin second half transformation for I=  10.
 Begin second half transformation for I=  10.
 Complete sort for second half transformation.
 Second half transformation complete.
 SymMOI:  orbitals are not symmetric.
 Spin components of T(2) and E(2):
     alpha-alpha T2 =       0.2612447444D-01 E2=     -0.1002849267D+00
     alpha-beta  T2 =       0.1423492488D+00 E2=     -0.5575472572D+00
     beta-beta   T2 =       0.2612447444D-01 E2=     -0.1002849267D+00
 ANorm=    0.1092976760D+01
 E2 =    -0.7581171106D+00 EUMP2 =    -0.29036329329441D+04
 Leave Link  804 at Fri Nov 22 09:38:43 2019, MaxMem=  268435456 cpu:      53.0
 (Enter /home/matheus/.gaussian/g09/l913.exe)
 CIDS:  MDV=   268435456.
 Frozen-core window:  NFC=  11 NFV=   0.
 IFCWin=0 IBDFC=1 NFBD=     0     0 NFCmp=     0     0 NFFFC=     0     0
 Using DD3R+UMP44R for 1st iteration, S=T.
 Using DD4RQ for 2nd and later iterations.
 Would need an additional       431206676 words for in-memory AO integral storage.
 MP4(SDTQ)
 =========
 DD1Dir will call FoFDir   1 times, MxPair=       272
 NAB=   136 NAA=     0 NBB=     0 NumPrc=  2.
 Integrals replicated using symmetry in FoFDir.
 MinBra= 0 MaxBra= 3 Meth= 1.
 IRaf=       0 NMat= 272 IRICut=     340 DoRegI=T DoRafI=T ISym2E= 2 JSym2E=2.
 MP4(D)= -0.14947108D-01
 MP4(S)= -0.65458453D-02
 MP4(R+Q)=  0.15566349D-01
 T4(AAA)= -0.10614819D-02
 T4(AAB)= -0.14321128D-01
 Time for triples=     1411.27 seconds.
 MP4(T)=   -0.30765219D-01
 E3=       -0.11087440D-01        EUMP3=      -0.29036440204D+04
 E4(DQ)=    0.61924143D-03        UMP4(DQ)=   -0.29036434011D+04
 E4(SDQ)=  -0.59266038D-02        UMP4(SDQ)=  -0.29036499470D+04
 E4(SDTQ)= -0.36691823D-01        UMP4(SDTQ)= -0.29036807122D+04
 VARIATIONAL ENERGIES WITH THE FIRST-ORDER WAVEFUNCTION:
 E(VAR1)=  -0.29035187182D+04     E(CISD,4)=  -0.29035179851D+04
 Largest amplitude= 4.42D-02
 Leave Link  913 at Fri Nov 22 09:51:33 2019, MaxMem=  268435456 cpu:    1507.9
 (Enter /home/matheus/.gaussian/g09/l601.exe)
 Copying SCF densities to generalized density rwf, IOpCl= 0 IROHF=0.

 **********************************************************************

            Population analysis using the SCF density.

 **********************************************************************

 Orbital symmetries:
       Occupied  (A) (A) (A) (A) (A) (A) (A) (A) (A) (A) (A) (A)
                 (A) (A) (A) (A) (A) (A) (A) (A) (A) (A) (A) (A)
                 (A) (A) (A)
       Virtual   (A) (A) (A) (A) (A) (A) (A) (A) (A) (A) (A) (A)
                 (A) (A) (A) (A) (A) (A) (A) (A) (A) (A) (A) (A)
                 (A) (A) (A) (A) (A) (A) (A) (A) (A) (A) (A) (A)
                 (A) (A) (A) (A) (A) (A) (A) (A) (A) (A) (A) (A)
                 (A) (A) (A) (A) (A) (A) (A) (A) (A) (A) (A) (A)
                 (A) (A) (A) (A) (A) (A) (A) (A) (A) (A) (A) (A)
                 (A) (A) (A) (A) (A) (A) (A) (A) (A) (A) (A) (A)
                 (A) (A) (A) (A) (A) (A) (A) (A) (A) (A) (A) (A)
                 (A) (A) (A) (A) (A) (A) (A) (A) (A) (A) (A) (A)
                 (A) (A) (A) (A) (A) (A) (A) (A) (A) (A) (A) (A)
                 (A) (A) (A) (A) (A) (A) (A) (A) (A) (A) (A) (A)
                 (A) (A) (A) (A) (A) (A) (A) (A) (A) (A) (A) (A)
                 (A) (A) (A) (A) (A) (A) (A) (A) (A) (A) (A) (A)
                 (A) (A) (A) (A) (A) (A) (A) (A) (A) (A) (A) (A)
                 (A) (A)
 The electronic state is 1-A.
 Alpha  occ. eigenvalues -- -520.19249 -69.93006 -63.03663 -63.03662 -63.03659
 Alpha  occ. eigenvalues --  -20.62988 -20.62755 -10.87672  -8.35889  -8.35874
 Alpha  occ. eigenvalues --   -8.35856  -3.85269  -3.85266  -3.85244  -3.85230
 Alpha  occ. eigenvalues --   -3.85225  -1.46854  -1.21686  -1.18321  -0.76092
 Alpha  occ. eigenvalues --   -0.65838  -0.60018  -0.56326  -0.55162  -0.54584
 Alpha  occ. eigenvalues --   -0.53247  -0.47013
 Alpha virt. eigenvalues --    0.03533   0.04568   0.08585   0.09518   0.11517
 Alpha virt. eigenvalues --    0.13149   0.14431   0.15755   0.18200   0.18900
 Alpha virt. eigenvalues --    0.19169   0.21040   0.22568   0.25938   0.26379
 Alpha virt. eigenvalues --    0.27210   0.28281   0.31244   0.34138   0.34743
 Alpha virt. eigenvalues --    0.35417   0.37304   0.40014   0.41215   0.42373
 Alpha virt. eigenvalues --    0.44957   0.46925   0.51297   0.56944   0.58594
 Alpha virt. eigenvalues --    0.62147   0.64047   0.66018   0.69077   0.72813
 Alpha virt. eigenvalues --    0.73832   0.76484   0.79123   0.81198   0.82415
 Alpha virt. eigenvalues --    0.83256   0.83632   0.85125   0.87165   0.89752
 Alpha virt. eigenvalues --    0.91365   0.92494   0.94114   0.95576   0.97648
 Alpha virt. eigenvalues --    0.99228   1.01227   1.02682   1.04656   1.05772
 Alpha virt. eigenvalues --    1.07221   1.10296   1.13508   1.14037   1.18395
 Alpha virt. eigenvalues --    1.19783   1.22569   1.25385   1.29601   1.32005
 Alpha virt. eigenvalues --    1.37168   1.44289   1.46330   1.49673   1.50359
 Alpha virt. eigenvalues --    1.54385   1.56945   1.59769   1.64040   1.69337
 Alpha virt. eigenvalues --    1.77242   1.81152   1.97086   2.04978   2.07691
 Alpha virt. eigenvalues --    2.15595   2.21595   2.24161   2.26673   2.31268
 Alpha virt. eigenvalues --    2.33902   2.36118   2.36997   2.41543   2.43625
 Alpha virt. eigenvalues --    2.46179   2.46952   2.48544   2.51655   2.52386
 Alpha virt. eigenvalues --    2.56095   2.59097   2.63022   2.65532   2.67748
 Alpha virt. eigenvalues --    2.68663   2.69994   2.72404   2.73621   2.76161
 Alpha virt. eigenvalues --    2.77843   2.79058   2.83643   2.87988   2.89991
 Alpha virt. eigenvalues --    2.93035   2.96259   2.99232   3.06505   3.08438
 Alpha virt. eigenvalues --    3.13177   3.19927   3.30221   3.31206   3.83001
 Alpha virt. eigenvalues --    3.88378   4.17410   4.21649   4.24523   4.25979
 Alpha virt. eigenvalues --    4.32800   4.39885   4.44422   4.45767   4.49514
 Alpha virt. eigenvalues --    4.62502   4.74252   4.90490   4.90782   4.95359
 Alpha virt. eigenvalues --    5.21715   5.26697   5.28542   5.32948   5.42178
 Alpha virt. eigenvalues --    5.43920   5.80312   6.18024   6.35986   6.45772
 Alpha virt. eigenvalues --    6.46939   6.64866   6.73397   6.74848   6.88091
 Alpha virt. eigenvalues --    7.01059   7.14801   7.18046   7.21494   7.22709
 Alpha virt. eigenvalues --    7.25575   7.26414   7.30476   7.32547   7.41262
 Alpha virt. eigenvalues --    7.50919   7.55254   7.61817   7.85815   7.88688
 Alpha virt. eigenvalues --    8.27834   8.45512   8.55877  14.67455  15.32531
          Condensed to atoms (all electrons):
              1          2          3          4          5
     1  O    8.141022  -0.093381   0.231238   0.003833  -0.020441
     2  O   -0.093381   8.147153   0.014339   0.236703  -0.014855
     3  H    0.231238   0.014339   0.497675  -0.005923  -0.000498
     4  H    0.003833   0.236703  -0.005923   0.497552  -0.008483
     5  Kr  -0.020441  -0.014855  -0.000498  -0.008483  36.031534
 Mulliken atomic charges:
              1
     1  O   -0.262270
     2  O   -0.289959
     3  H    0.263169
     4  H    0.276318
     5  Kr   0.012743
 Sum of Mulliken atomic charges =   0.00000
 Mulliken charges with hydrogens summed into heavy atoms:
              1
     1  O    0.000899
     2  O   -0.013642
     5  Kr   0.012743
 Sum of Mulliken charges with hydrogens summed into heavy atoms =   0.00000
 Electronic spatial extent (au):  <R**2>=            478.6107
 Charge=              0.0000 electrons
 Dipole moment (field-independent basis, Debye):
    X=             -3.0087    Y=             -0.2093    Z=              1.1257  Tot=              3.2192
 Quadrupole moment (field-independent basis, Debye-Ang):
   XX=            -38.3058   YY=            -27.9214   ZZ=            -29.4517
   XY=             -0.8381   XZ=              1.6581   YZ=             -1.4514
 Traceless Quadrupole moment (field-independent basis, Debye-Ang):
   XX=             -6.4128   YY=              3.9716   ZZ=              2.4412
   XY=             -0.8381   XZ=              1.6581   YZ=             -1.4514
 Octapole moment (field-independent basis, Debye-Ang**2):
  XXX=            -43.0239  YYY=             -0.5598  ZZZ=              0.5666  XYY=             -6.7345
  XXY=             -2.1267  XXZ=              1.5368  XZZ=             -6.7577  YZZ=             -1.1072
  YYZ=              1.7517  XYZ=             -2.1220
 Hexadecapole moment (field-independent basis, Debye-Ang**3):
 XXXX=           -460.8848 YYYY=            -62.2412 ZZZZ=            -28.8523 XXXY=             -3.0581
 XXXZ=              1.5186 YYYX=             -1.5980 YYYZ=             -2.0912 ZZZX=              1.2318
 ZZZY=             -1.2596 XXYY=            -84.7364 XXZZ=            -73.8463 YYZZ=            -16.0941
 XXYZ=             -3.1780 YYXZ=              2.5580 ZZXY=             -1.6507
 N-N= 1.506503454741D+02 E-N=-7.241190208217D+03  KE= 2.902652820403D+03
 Leave Link  601 at Fri Nov 22 09:51:34 2019, MaxMem=  268435456 cpu:       0.2
 (Enter /home/matheus/.gaussian/g09/l108.exe)
 Variable Step   Value    
 -------- ---- -----------
     1       1    5.858151
 Leave Link  108 at Fri Nov 22 09:51:34 2019, MaxMem=  268435456 cpu:       0.1
 (Enter /home/matheus/.gaussian/g09/l202.exe)
 ---------------------------------------------------------------------------------------------------
                            Z-MATRIX (ANGSTROMS AND DEGREES)
   CD    Cent   Atom    N1       Length/X        N2       Alpha/Y        N3        Beta/Z          J
 ---------------------------------------------------------------------------------------------------
      1      1  O        0   0.000000          0.000000          0.725000
      2      2  O        0   0.000000          0.000000         -0.725000
      3      3  H        0   0.703781          0.590542          1.023510
      4      4  H        0   0.000000          0.918721         -1.023510
      5      5  Kr       0   0.000000          3.100000          0.000000
 ---------------------------------------------------------------------------------------------------
                         Z-Matrix orientation:                         
 ---------------------------------------------------------------------
 Center     Atomic      Atomic             Coordinates (Angstroms)
 Number     Number       Type             X           Y           Z
 ---------------------------------------------------------------------
      1          8           0        0.000000    0.000000    0.725000
      2          8           0        0.000000    0.000000   -0.725000
      3          1           0        0.703781    0.590542    1.023510
      4          1           0        0.000000    0.918721   -1.023510
      5         36           0        0.000000    3.100000    0.000000
 ---------------------------------------------------------------------
                    Distance matrix (angstroms):
                    1          2          3          4          5
     1  O    0.000000
     2  O    1.450000   0.000000
     3  H    0.966000   1.975180   0.000000
     4  H    1.975180   0.966000   2.189361   0.000000
     5  Kr   3.183650   3.183650   2.800046   2.409472   0.000000
 Stoichiometry    H2KrO2
 Framework group  C1[X(H2KrO2)]
 Deg. of freedom     9
 Full point group                 C1      NOp   1
 RotChk:  IX=0 Diff= 4.84D-04
 Largest Abelian subgroup         C1      NOp   1
 Largest concise Abelian subgroup C1      NOp   1
                         Standard orientation:                         
 ---------------------------------------------------------------------
 Center     Atomic      Atomic             Coordinates (Angstroms)
 Number     Number       Type             X           Y           Z
 ---------------------------------------------------------------------
      1          8           0        2.096872   -0.713625   -0.084133
      2          8           0        2.091888    0.732711    0.018763
      3          1           0        1.514190   -1.063728    0.602209
      4          1           0        1.172189    1.026687    0.048580
      5         36           0       -1.005457   -0.003212   -0.003551
 ---------------------------------------------------------------------
 Rotational constants (GHZ):     26.0307920      2.2215520      2.0545317
 Leave Link  202 at Fri Nov 22 09:51:34 2019, MaxMem=  268435456 cpu:       0.0
 (Enter /home/matheus/.gaussian/g09/l301.exe)
 Standard basis: Aug-CC-pVTZ (5D, 7F)
 Ernie: Thresh=  0.10000D-02 Tol=  0.10000D-05 Strict=F.
 Ernie:  38 primitive shells out of 205 were deleted.
 There are   197 symmetry adapted basis functions of A   symmetry.
 Integral buffers will be    131072 words long.
 Raffenetti 1 integral format.
 Two-electron integral symmetry is turned on.
   197 basis functions,   415 primitive gaussians,   229 cartesian basis functions
    27 alpha electrons       27 beta electrons
       nuclear repulsion energy       147.1010806950 Hartrees.
 IExCor=    0 DFT=F Ex=HF Corr=None ExCW=0 ScaHFX=  1.000000
 ScaDFX=  1.000000  1.000000  1.000000  1.000000 ScalE2=  1.000000  1.000000
 IRadAn=      5 IRanWt=     -1 IRanGd=            0 ICorTp=0
 NAtoms=    5 NActive=    5 NUniq=    5 SFac= 1.00D+00 NAtFMM=   60 NAOKFM=F Big=F
 Leave Link  301 at Fri Nov 22 09:51:34 2019, MaxMem=  268435456 cpu:       0.1
 (Enter /home/matheus/.gaussian/g09/l302.exe)
 NPDir=0 NMtPBC=     1 NCelOv=     1 NCel=       1 NClECP=     1 NCelD=      1
         NCelK=      1 NCelE2=     1 NClLst=     1 CellRange=     0.0.
 One-electron integrals computed using PRISM.
 NBasis=   197 RedAO= T  NBF=   197
 NBsUse=   197 1.00D-06 NBFU=   197
 Leave Link  302 at Fri Nov 22 09:51:34 2019, MaxMem=  268435456 cpu:       0.3
 (Enter /home/matheus/.gaussian/g09/l303.exe)
 DipDrv:  MaxL=1.
 Leave Link  303 at Fri Nov 22 09:51:35 2019, MaxMem=  268435456 cpu:       0.2
 (Enter /home/matheus/.gaussian/g09/l401.exe)
 Initial guess read from the read-write file.
 B after Tr=     0.000000    0.000000    0.000000
         Rot=    1.000000    0.000000    0.000000    0.000000 Ang=   0.00 deg.
 Guess basis will be translated and rotated to current coordinates.
 Initial guess orbital symmetries:
       Occupied  (A) (A) (A) (A) (A) (A) (A) (A) (A) (A) (A) (A)
                 (A) (A) (A) (A) (A) (A) (A) (A) (A) (A) (A) (A)
                 (A) (A) (A)
       Virtual   (A) (A) (A) (A) (A) (A) (A) (A) (A) (A) (A) (A)
                 (A) (A) (A) (A) (A) (A) (A) (A) (A) (A) (A) (A)
                 (A) (A) (A) (A) (A) (A) (A) (A) (A) (A) (A) (A)
                 (A) (A) (A) (A) (A) (A) (A) (A) (A) (A) (A) (A)
                 (A) (A) (A) (A) (A) (A) (A) (A) (A) (A) (A) (A)
                 (A) (A) (A) (A) (A) (A) (A) (A) (A) (A) (A) (A)
                 (A) (A) (A) (A) (A) (A) (A) (A) (A) (A) (A) (A)
                 (A) (A) (A) (A) (A) (A) (A) (A) (A) (A) (A) (A)
                 (A) (A) (A) (A) (A) (A) (A) (A) (A) (A) (A) (A)
                 (A) (A) (A) (A) (A) (A) (A) (A) (A) (A) (A) (A)
                 (A) (A) (A) (A) (A) (A) (A) (A) (A) (A) (A) (A)
                 (A) (A) (A) (A) (A) (A) (A) (A) (A) (A) (A) (A)
                 (A) (A) (A) (A) (A) (A) (A) (A) (A) (A) (A) (A)
                 (A) (A) (A) (A) (A) (A) (A) (A) (A) (A) (A) (A)
                 (A) (A)
 The electronic state of the initial guess is 1-A.
 Generating alternative initial guess.
 Harris functional with IExCor=  205 diagonalized for initial guess.
 ExpMin= 2.53D-02 ExpMax= 1.17D+07 ExpMxC= 1.33D+04 IAcc=3 IRadAn=         5 AccDes= 0.00D+00
 HarFok:  IExCor=  205 AccDes= 0.00D+00 IRadAn=         5 IDoV= 1
 ScaDFX=  1.000000  1.000000  1.000000  1.000000
 FoFCou: FMM=F IPFlag=           0 FMFlag=      100000 FMFlg1=           0
         NFxFlg=           0 DoJE=T BraDBF=F KetDBF=T FulRan=T
         Omega=  0.000000  0.000000  1.000000  0.000000  0.000000 ICntrl=     500 IOpCl=  0
         NMat0=    1 NMatS0=    1 NMatT0=    0 NMatD0=    1 NMtDS0=    0 NMtDT0=    0
         I1Cent=           4 NGrid=           0.
 Petite list used in FoFCou.
 Harris En= -2901.93038294106    
 Leave Link  401 at Fri Nov 22 09:51:36 2019, MaxMem=  268435456 cpu:       1.4
 (Enter /home/matheus/.gaussian/g09/l502.exe)
 Closed shell SCF:
 Requested convergence on RMS density matrix=1.00D-08 within 128 cycles.
 Requested convergence on MAX density matrix=1.00D-06.
 Requested convergence on             energy=1.00D-06.
 No special actions if energy rises.
 Using DIIS extrapolation, IDIIS=  1040.
 Integral symmetry usage will be decided dynamically.
 IEnd=      178489 IEndB=      178489 NGot=   268435456 MDV=   268326278
 LenX=   268326278 LenY=   268273396
 Fock matrices will be formed incrementally for  20 cycles.

 Cycle   1  Pass 0  IDiag  1:
 FoFCou: FMM=F IPFlag=           0 FMFlag=      100000 FMFlg1=           0
         NFxFlg=           0 DoJE=F BraDBF=F KetDBF=F FulRan=T
         Omega=  0.000000  0.000000  1.000000  0.000000  0.000000 ICntrl=       0 IOpCl=  0
         NMat0=    1 NMatS0=    1 NMatT0=    0 NMatD0=    1 NMtDS0=    0 NMtDT0=    0
         I1Cent=           0 NGrid=           0.
 Symmetry not used in FoFCou.
 E= -2902.87762379767    
 DIIS: error= 6.00D-04 at cycle   1 NSaved=   1.
 NSaved= 1 IEnMin= 1 EnMin= -2902.87762379767     IErMin= 1 ErrMin= 6.00D-04
 ErrMax= 6.00D-04 EMaxC= 1.00D-01 BMatC= 7.38D-05 BMatP= 7.38D-05
 IDIUse=3 WtCom= 9.94D-01 WtEn= 6.00D-03
 Coeff-Com:  0.100D+01
 Coeff-En:   0.100D+01
 Coeff:      0.100D+01
 Gap=     0.508 Goal=   None    Shift=    0.000
 RMSDP=7.19D-05 MaxDP=3.00D-03              OVMax= 2.81D-03

 Cycle   2  Pass 0  IDiag  1:
 RMSU=  5.08D-05    CP:  1.00D+00
 E= -2902.87770840008     Delta-E=       -0.000084602420 Rises=F Damp=F
 DIIS: error= 9.29D-05 at cycle   2 NSaved=   2.
 NSaved= 2 IEnMin= 2 EnMin= -2902.87770840008     IErMin= 2 ErrMin= 9.29D-05
 ErrMax= 9.29D-05 EMaxC= 1.00D-01 BMatC= 2.50D-06 BMatP= 7.38D-05
 IDIUse=1 WtCom= 1.00D+00 WtEn= 0.00D+00
 Coeff-Com: -0.688D-01 0.107D+01
 Coeff:     -0.688D-01 0.107D+01
 Gap=     0.506 Goal=   None    Shift=    0.000
 RMSDP=1.26D-05 MaxDP=4.70D-04 DE=-8.46D-05 OVMax= 6.80D-04

 Cycle   3  Pass 0  IDiag  1:
 RMSU=  5.96D-06    CP:  1.00D+00  1.13D+00
 E= -2902.87771176166     Delta-E=       -0.000003361579 Rises=F Damp=F
 DIIS: error= 4.02D-05 at cycle   3 NSaved=   3.
 NSaved= 3 IEnMin= 3 EnMin= -2902.87771176166     IErMin= 3 ErrMin= 4.02D-05
 ErrMax= 4.02D-05 EMaxC= 1.00D-01 BMatC= 4.17D-07 BMatP= 2.50D-06
 IDIUse=1 WtCom= 1.00D+00 WtEn= 0.00D+00
 Coeff-Com: -0.430D-01 0.273D+00 0.770D+00
 Coeff:     -0.430D-01 0.273D+00 0.770D+00
 Gap=     0.506 Goal=   None    Shift=    0.000
 RMSDP=2.54D-06 MaxDP=7.08D-05 DE=-3.36D-06 OVMax= 1.60D-04

 Initial convergence to 1.0D-05 achieved.  Increase integral accuracy.
 Cycle   4  Pass 1  IDiag  1:
 E= -2902.87771212949     Delta-E=       -0.000000367828 Rises=F Damp=F
 DIIS: error= 1.13D-05 at cycle   1 NSaved=   1.
 NSaved= 1 IEnMin= 1 EnMin= -2902.87771212949     IErMin= 1 ErrMin= 1.13D-05
 ErrMax= 1.13D-05 EMaxC= 1.00D-01 BMatC= 2.88D-08 BMatP= 2.88D-08
 IDIUse=1 WtCom= 1.00D+00 WtEn= 0.00D+00
 Coeff-Com:  0.100D+01
 Coeff:      0.100D+01
 Gap=     0.506 Goal=   None    Shift=    0.000
 RMSDP=2.54D-06 MaxDP=7.08D-05 DE=-3.68D-07 OVMax= 6.35D-05

 Cycle   5  Pass 1  IDiag  1:
 RMSU=  7.65D-07    CP:  1.00D+00
 E= -2902.87771217045     Delta-E=       -0.000000040961 Rises=F Damp=F
 DIIS: error= 5.99D-06 at cycle   2 NSaved=   2.
 NSaved= 2 IEnMin= 2 EnMin= -2902.87771217045     IErMin= 2 ErrMin= 5.99D-06
 ErrMax= 5.99D-06 EMaxC= 1.00D-01 BMatC= 1.02D-08 BMatP= 2.88D-08
 IDIUse=1 WtCom= 1.00D+00 WtEn= 0.00D+00
 Coeff-Com:  0.303D+00 0.697D+00
 Coeff:      0.303D+00 0.697D+00
 Gap=     0.506 Goal=   None    Shift=    0.000
 RMSDP=3.10D-07 MaxDP=1.09D-05 DE=-4.10D-08 OVMax= 3.50D-05

 Cycle   6  Pass 1  IDiag  1:
 RMSU=  2.08D-07    CP:  1.00D+00  1.09D+00
 E= -2902.87771218066     Delta-E=       -0.000000010210 Rises=F Damp=F
 DIIS: error= 2.87D-06 at cycle   3 NSaved=   3.
 NSaved= 3 IEnMin= 3 EnMin= -2902.87771218066     IErMin= 3 ErrMin= 2.87D-06
 ErrMax= 2.87D-06 EMaxC= 1.00D-01 BMatC= 1.67D-09 BMatP= 1.02D-08
 IDIUse=1 WtCom= 1.00D+00 WtEn= 0.00D+00
 Coeff-Com: -0.292D+00-0.659D-01 0.136D+01
 Coeff:     -0.292D+00-0.659D-01 0.136D+01
 Gap=     0.506 Goal=   None    Shift=    0.000
 RMSDP=3.87D-07 MaxDP=1.01D-05 DE=-1.02D-08 OVMax= 2.30D-05

 Cycle   7  Pass 1  IDiag  1:
 RMSU=  1.02D-07    CP:  1.00D+00  1.41D+00  1.35D+00
 E= -2902.87771218468     Delta-E=       -0.000000004020 Rises=F Damp=F
 DIIS: error= 6.29D-07 at cycle   4 NSaved=   4.
 NSaved= 4 IEnMin= 4 EnMin= -2902.87771218468     IErMin= 4 ErrMin= 6.29D-07
 ErrMax= 6.29D-07 EMaxC= 1.00D-01 BMatC= 1.04D-10 BMatP= 1.67D-09
 IDIUse=1 WtCom= 1.00D+00 WtEn= 0.00D+00
 Coeff-Com: -0.907D-01-0.506D-01 0.328D+00 0.814D+00
 Coeff:     -0.907D-01-0.506D-01 0.328D+00 0.814D+00
 Gap=     0.506 Goal=   None    Shift=    0.000
 RMSDP=6.25D-08 MaxDP=1.83D-06 DE=-4.02D-09 OVMax= 4.94D-06

 Cycle   8  Pass 1  IDiag  1:
 RMSU=  2.81D-08    CP:  1.00D+00  1.43D+00  1.40D+00  1.28D+00
 E= -2902.87771218487     Delta-E=       -0.000000000186 Rises=F Damp=F
 DIIS: error= 1.69D-07 at cycle   5 NSaved=   5.
 NSaved= 5 IEnMin= 5 EnMin= -2902.87771218487     IErMin= 5 ErrMin= 1.69D-07
 ErrMax= 1.69D-07 EMaxC= 1.00D-01 BMatC= 1.34D-11 BMatP= 1.04D-10
 IDIUse=1 WtCom= 1.00D+00 WtEn= 0.00D+00
 Coeff-Com:  0.615D-01 0.256D-01-0.283D+00-0.105D+00 0.130D+01
 Coeff:      0.615D-01 0.256D-01-0.283D+00-0.105D+00 0.130D+01
 Gap=     0.506 Goal=   None    Shift=    0.000
 RMSDP=4.33D-08 MaxDP=9.54D-07 DE=-1.86D-10 OVMax= 2.43D-06

 Cycle   9  Pass 1  IDiag  1:
 RMSU=  8.60D-09    CP:  1.00D+00  1.43D+00  1.40D+00  1.55D+00  1.33D+00
 E= -2902.87771218490     Delta-E=       -0.000000000036 Rises=F Damp=F
 DIIS: error= 4.41D-08 at cycle   6 NSaved=   6.
 NSaved= 6 IEnMin= 6 EnMin= -2902.87771218490     IErMin= 6 ErrMin= 4.41D-08
 ErrMax= 4.41D-08 EMaxC= 1.00D-01 BMatC= 7.38D-13 BMatP= 1.34D-11
 IDIUse=1 WtCom= 1.00D+00 WtEn= 0.00D+00
 Coeff-Com:  0.504D-03 0.256D-02-0.148D-02-0.335D-01-0.818D-01 0.111D+01
 Coeff:      0.504D-03 0.256D-02-0.148D-02-0.335D-01-0.818D-01 0.111D+01
 Gap=     0.506 Goal=   None    Shift=    0.000
 RMSDP=7.18D-09 MaxDP=1.40D-07 DE=-3.59D-11 OVMax= 6.13D-07

 SCF Done:  E(RHF) =  -2902.87771218     A.U. after    9 cycles
             Convg  =    0.7180D-08             -V/T =  2.0001
 KE= 2.902632625869D+03 PE=-7.234100977800D+03 EE= 1.281489559052D+03
 Leave Link  502 at Fri Nov 22 09:52:12 2019, MaxMem=  268435456 cpu:      71.7
 (Enter /home/matheus/.gaussian/g09/l801.exe)
 Windowed orbitals will be sorted by symmetry type.
 ExpMin= 2.53D-02 ExpMax= 1.17D+07 ExpMxC= 1.33D+04 IAcc=3 IRadAn=         5 AccDes= 0.00D+00
 HarFok:  IExCor=  205 AccDes= 0.00D+00 IRadAn=         5 IDoV=-2
 ScaDFX=  1.000000  1.000000  1.000000  1.000000
 DSYEVD returned Info=          89 IAlg= 4 N=    59 NDim=    59 NE2=     4547561 trying DSYEV.
 Largest valence mixing into a core orbital is  1.45D-04
 Largest core mixing into a valence orbital is  2.63D-05
 Range of M.O.s used for correlation:    12   197
 NBasis=   197 NAE=    27 NBE=    27 NFC=    11 NFV=     0
 NROrb=    186 NOA=    16 NOB=    16 NVA=   170 NVB=   170

 **** Warning!!: The largest alpha MO coefficient is  0.16992119D+02

 Leave Link  801 at Fri Nov 22 09:52:12 2019, MaxMem=  268435456 cpu:       0.3
 (Enter /home/matheus/.gaussian/g09/l804.exe)
 Closed-shell transformation, MDV=   268435456 ITran=4 ISComp=1.
 Semi-Direct transformation.
 ModeAB=           2 MOrb=            16 LenV=     267325584
 LASXX=     48528660 LTotXX=    48528660 LenRXX=    48528660
 LTotAB=    49298776 MaxLAS=    78372960 LenRXY=    78372960
 NonZer=    97057320 LenScr=   146313216 LnRSAI=           0
 LnScr1=           0 LExtra=           0 Total=    273214836
 MaxDsk=          -1 SrtSym=           F ITran=            4
 DoSDTr:  NPSUse=  2
 JobTyp=0 Pass  1:  I=   1 to  16.
 (rs|ai) integrals will be sorted in core.
 Complete sort for first half transformation.
 First half transformation complete.
 Begin second half transformation for I=  10.
 Begin second half transformation for I=  10.
 Complete sort for second half transformation.
 Second half transformation complete.
 SymMOI:  orbitals are not symmetric.
 Spin components of T(2) and E(2):
     alpha-alpha T2 =       0.2604256122D-01 E2=     -0.9999971361D-01
     alpha-beta  T2 =       0.1422440601D+00 E2=     -0.5568930858D+00
     beta-beta   T2 =       0.2604256122D-01 E2=     -0.9999971361D-01
 ANorm=    0.1092853688D+01
 E2 =    -0.7568925130D+00 EUMP2 =    -0.29036346046979D+04
 Leave Link  804 at Fri Nov 22 09:52:40 2019, MaxMem=  268435456 cpu:      52.3
 (Enter /home/matheus/.gaussian/g09/l913.exe)
 CIDS:  MDV=   268435456.
 Frozen-core window:  NFC=  11 NFV=   0.
 IFCWin=0 IBDFC=1 NFBD=     0     0 NFCmp=     0     0 NFFFC=     0     0
 Using DD3R+UMP44R for 1st iteration, S=T.
 Using DD4RQ for 2nd and later iterations.
 Would need an additional       431206676 words for in-memory AO integral storage.
 MP4(SDTQ)
 =========
 DD1Dir will call FoFDir   1 times, MxPair=       272
 NAB=   136 NAA=     0 NBB=     0 NumPrc=  2.
 Integrals replicated using symmetry in FoFDir.
 MinBra= 0 MaxBra= 3 Meth= 1.
 IRaf=       0 NMat= 272 IRICut=     340 DoRegI=T DoRafI=T ISym2E= 2 JSym2E=2.
 MP4(D)= -0.14947406D-01
 MP4(S)= -0.65124668D-02
 MP4(R+Q)=  0.15482201D-01
 T4(AAA)= -0.10503535D-02
 T4(AAB)= -0.14250143D-01
 Time for triples=     1344.31 seconds.
 MP4(T)=   -0.30600992D-01
 E3=       -0.11242910D-01        EUMP3=      -0.29036458476D+04
 E4(DQ)=    0.53479487D-03        UMP4(DQ)=   -0.29036453128D+04
 E4(SDQ)=  -0.59776719D-02        UMP4(SDQ)=  -0.29036518253D+04
 E4(SDTQ)= -0.36578664D-01        UMP4(SDTQ)= -0.29036824263D+04
 VARIATIONAL ENERGIES WITH THE FIRST-ORDER WAVEFUNCTION:
 E(VAR1)=  -0.29035208644D+04     E(CISD,4)=  -0.29035202212D+04
 Largest amplitude= 4.47D-02
 Leave Link  913 at Fri Nov 22 10:04:53 2019, MaxMem=  268435456 cpu:    1440.6
 (Enter /home/matheus/.gaussian/g09/l108.exe)
 Variable Step   Value    
 -------- ---- -----------
     1       2    6.047124
 Leave Link  108 at Fri Nov 22 10:04:53 2019, MaxMem=  268435456 cpu:       0.1
 (Enter /home/matheus/.gaussian/g09/l202.exe)
 ---------------------------------------------------------------------------------------------------
                            Z-MATRIX (ANGSTROMS AND DEGREES)
   CD    Cent   Atom    N1       Length/X        N2       Alpha/Y        N3        Beta/Z          J
 ---------------------------------------------------------------------------------------------------
      1      1  O        0   0.000000          0.000000          0.725000
      2      2  O        0   0.000000          0.000000         -0.725000
      3      3  H        0   0.703781          0.590542          1.023510
      4      4  H        0   0.000000          0.918721         -1.023510
      5      5  Kr       0   0.000000          3.200000          0.000000
 ---------------------------------------------------------------------------------------------------
                         Z-Matrix orientation:                         
 ---------------------------------------------------------------------
 Center     Atomic      Atomic             Coordinates (Angstroms)
 Number     Number       Type             X           Y           Z
 ---------------------------------------------------------------------
      1          8           0        0.000000    0.000000    0.725000
      2          8           0        0.000000    0.000000   -0.725000
      3          1           0        0.703781    0.590542    1.023510
      4          1           0        0.000000    0.918721   -1.023510
      5         36           0        0.000000    3.200000    0.000000
 ---------------------------------------------------------------------
                    Distance matrix (angstroms):
                    1          2          3          4          5
     1  O    0.000000
     2  O    1.450000   0.000000
     3  H    0.966000   1.975180   0.000000
     4  H    1.975180   0.966000   2.189361   0.000000
     5  Kr   3.281101   3.281101   2.890009   2.500362   0.000000
 Stoichiometry    H2KrO2
 Framework group  C1[X(H2KrO2)]
 Deg. of freedom     9
 Full point group                 C1      NOp   1
 RotChk:  IX=0 Diff= 4.47D-04
 Largest Abelian subgroup         C1      NOp   1
 Largest concise Abelian subgroup C1      NOp   1
                         Standard orientation:                         
 ---------------------------------------------------------------------
 Center     Atomic      Atomic             Coordinates (Angstroms)
 Number     Number       Type             X           Y           Z
 ---------------------------------------------------------------------
      1          8           0        2.163371   -0.713895   -0.084351
      2          8           0        2.158732    0.732441    0.018552
      3          1           0        1.580470   -1.063855    0.601878
      4          1           0        1.239102    1.026649    0.048196
      5         36           0       -1.038789   -0.003088   -0.003436
 ---------------------------------------------------------------------
 Rotational constants (GHZ):     26.0309110      2.0838834      1.9362329
 Leave Link  202 at Fri Nov 22 10:04:53 2019, MaxMem=  268435456 cpu:       0.0
 (Enter /home/matheus/.gaussian/g09/l301.exe)
 Standard basis: Aug-CC-pVTZ (5D, 7F)
 Ernie: Thresh=  0.10000D-02 Tol=  0.10000D-05 Strict=F.
 Ernie:  38 primitive shells out of 205 were deleted.
 There are   197 symmetry adapted basis functions of A   symmetry.
 Integral buffers will be    131072 words long.
 Raffenetti 1 integral format.
 Two-electron integral symmetry is turned on.
   197 basis functions,   415 primitive gaussians,   229 cartesian basis functions
    27 alpha electrons       27 beta electrons
       nuclear repulsion energy       143.7582934746 Hartrees.
 IExCor=    0 DFT=F Ex=HF Corr=None ExCW=0 ScaHFX=  1.000000
 ScaDFX=  1.000000  1.000000  1.000000  1.000000 ScalE2=  1.000000  1.000000
 IRadAn=      5 IRanWt=     -1 IRanGd=            0 ICorTp=0
 NAtoms=    5 NActive=    5 NUniq=    5 SFac= 1.00D+00 NAtFMM=   60 NAOKFM=F Big=F
 Leave Link  301 at Fri Nov 22 10:04:53 2019, MaxMem=  268435456 cpu:       0.1
 (Enter /home/matheus/.gaussian/g09/l302.exe)
 NPDir=0 NMtPBC=     1 NCelOv=     1 NCel=       1 NClECP=     1 NCelD=      1
         NCelK=      1 NCelE2=     1 NClLst=     1 CellRange=     0.0.
 One-electron integrals computed using PRISM.
 NBasis=   197 RedAO= T  NBF=   197
 NBsUse=   197 1.00D-06 NBFU=   197
 Leave Link  302 at Fri Nov 22 10:04:53 2019, MaxMem=  268435456 cpu:       0.3
 (Enter /home/matheus/.gaussian/g09/l303.exe)
 DipDrv:  MaxL=1.
 Leave Link  303 at Fri Nov 22 10:04:54 2019, MaxMem=  268435456 cpu:       0.1
 (Enter /home/matheus/.gaussian/g09/l401.exe)
 Initial guess read from the read-write file.
 B after Tr=     0.000000    0.000000    0.000000
         Rot=    1.000000    0.000000    0.000000    0.000000 Ang=   0.00 deg.
 Guess basis will be translated and rotated to current coordinates.
 Initial guess orbital symmetries:
       Occupied  (A) (A) (A) (A) (A) (A) (A) (A) (A) (A) (A) (A)
                 (A) (A) (A) (A) (A) (A) (A) (A) (A) (A) (A) (A)
                 (A) (A) (A)
       Virtual   (A) (A) (A) (A) (A) (A) (A) (A) (A) (A) (A) (A)
                 (A) (A) (A) (A) (A) (A) (A) (A) (A) (A) (A) (A)
                 (A) (A) (A) (A) (A) (A) (A) (A) (A) (A) (A) (A)
                 (A) (A) (A) (A) (A) (A) (A) (A) (A) (A) (A) (A)
                 (A) (A) (A) (A) (A) (A) (A) (A) (A) (A) (A) (A)
                 (A) (A) (A) (A) (A) (A) (A) (A) (A) (A) (A) (A)
                 (A) (A) (A) (A) (A) (A) (A) (A) (A) (A) (A) (A)
                 (A) (A) (A) (A) (A) (A) (A) (A) (A) (A) (A) (A)
                 (A) (A) (A) (A) (A) (A) (A) (A) (A) (A) (A) (A)
                 (A) (A) (A) (A) (A) (A) (A) (A) (A) (A) (A) (A)
                 (A) (A) (A) (A) (A) (A) (A) (A) (A) (A) (A) (A)
                 (A) (A) (A) (A) (A) (A) (A) (A) (A) (A) (A) (A)
                 (A) (A) (A) (A) (A) (A) (A) (A) (A) (A) (A) (A)
                 (A) (A) (A) (A) (A) (A) (A) (A) (A) (A) (A) (A)
                 (A) (A)
 The electronic state of the initial guess is 1-A.
 Generating alternative initial guess.
 Harris functional with IExCor=  205 diagonalized for initial guess.
 ExpMin= 2.53D-02 ExpMax= 1.17D+07 ExpMxC= 1.33D+04 IAcc=3 IRadAn=         5 AccDes= 0.00D+00
 HarFok:  IExCor=  205 AccDes= 0.00D+00 IRadAn=         5 IDoV= 1
 ScaDFX=  1.000000  1.000000  1.000000  1.000000
 FoFCou: FMM=F IPFlag=           0 FMFlag=      100000 FMFlg1=           0
         NFxFlg=           0 DoJE=T BraDBF=F KetDBF=T FulRan=T
         Omega=  0.000000  0.000000  1.000000  0.000000  0.000000 ICntrl=     500 IOpCl=  0
         NMat0=    1 NMatS0=    1 NMatT0=    0 NMatD0=    1 NMtDS0=    0 NMtDT0=    0
         I1Cent=           4 NGrid=           0.
 Petite list used in FoFCou.
 Harris En= -2901.93139503047    
 Leave Link  401 at Fri Nov 22 10:04:54 2019, MaxMem=  268435456 cpu:       1.4
 (Enter /home/matheus/.gaussian/g09/l502.exe)
 Closed shell SCF:
 Requested convergence on RMS density matrix=1.00D-08 within 128 cycles.
 Requested convergence on MAX density matrix=1.00D-06.
 Requested convergence on             energy=1.00D-06.
 No special actions if energy rises.
 Using DIIS extrapolation, IDIIS=  1040.
 Integral symmetry usage will be decided dynamically.
 IEnd=      178489 IEndB=      178489 NGot=   268435456 MDV=   268326278
 LenX=   268326278 LenY=   268273396
 Fock matrices will be formed incrementally for  20 cycles.

 Cycle   1  Pass 0  IDiag  1:
 FoFCou: FMM=F IPFlag=           0 FMFlag=      100000 FMFlg1=           0
         NFxFlg=           0 DoJE=F BraDBF=F KetDBF=F FulRan=T
         Omega=  0.000000  0.000000  1.000000  0.000000  0.000000 ICntrl=       0 IOpCl=  0
         NMat0=    1 NMatS0=    1 NMatT0=    0 NMatD0=    1 NMtDS0=    0 NMtDT0=    0
         I1Cent=           0 NGrid=           0.
 Symmetry not used in FoFCou.
 E= -2902.87971313871    
 DIIS: error= 4.98D-04 at cycle   1 NSaved=   1.
 NSaved= 1 IEnMin= 1 EnMin= -2902.87971313871     IErMin= 1 ErrMin= 4.98D-04
 ErrMax= 4.98D-04 EMaxC= 1.00D-01 BMatC= 5.48D-05 BMatP= 5.48D-05
 IDIUse=3 WtCom= 9.95D-01 WtEn= 4.98D-03
 Coeff-Com:  0.100D+01
 Coeff-En:   0.100D+01
 Coeff:      0.100D+01
 Gap=     0.508 Goal=   None    Shift=    0.000
 RMSDP=6.18D-05 MaxDP=2.15D-03              OVMax= 2.35D-03

 Cycle   2  Pass 0  IDiag  1:
 RMSU=  4.37D-05    CP:  1.00D+00
 E= -2902.87977629874     Delta-E=       -0.000063160025 Rises=F Damp=F
 DIIS: error= 7.79D-05 at cycle   2 NSaved=   2.
 NSaved= 2 IEnMin= 2 EnMin= -2902.87977629874     IErMin= 2 ErrMin= 7.79D-05
 ErrMax= 7.79D-05 EMaxC= 1.00D-01 BMatC= 1.67D-06 BMatP= 5.48D-05
 IDIUse=1 WtCom= 1.00D+00 WtEn= 0.00D+00
 Coeff-Com: -0.763D-01 0.108D+01
 Coeff:     -0.763D-01 0.108D+01
 Gap=     0.506 Goal=   None    Shift=    0.000
 RMSDP=1.07D-05 MaxDP=3.94D-04 DE=-6.32D-05 OVMax= 5.53D-04

 Cycle   3  Pass 0  IDiag  1:
 RMSU=  5.01D-06    CP:  1.00D+00  1.13D+00
 E= -2902.87977870745     Delta-E=       -0.000002408713 Rises=F Damp=F
 DIIS: error= 3.12D-05 at cycle   3 NSaved=   3.
 NSaved= 3 IEnMin= 3 EnMin= -2902.87977870745     IErMin= 3 ErrMin= 3.12D-05
 ErrMax= 3.12D-05 EMaxC= 1.00D-01 BMatC= 2.53D-07 BMatP= 1.67D-06
 IDIUse=1 WtCom= 1.00D+00 WtEn= 0.00D+00
 Coeff-Com: -0.399D-01 0.260D+00 0.780D+00
 Coeff:     -0.399D-01 0.260D+00 0.780D+00
 Gap=     0.507 Goal=   None    Shift=    0.000
 RMSDP=2.12D-06 MaxDP=5.55D-05 DE=-2.41D-06 OVMax= 1.32D-04

 Initial convergence to 1.0D-05 achieved.  Increase integral accuracy.
 Cycle   4  Pass 1  IDiag  1:
 E= -2902.87977894114     Delta-E=       -0.000000233691 Rises=F Damp=F
 DIIS: error= 8.77D-06 at cycle   1 NSaved=   1.
 NSaved= 1 IEnMin= 1 EnMin= -2902.87977894114     IErMin= 1 ErrMin= 8.77D-06
 ErrMax= 8.77D-06 EMaxC= 1.00D-01 BMatC= 2.14D-08 BMatP= 2.14D-08
 IDIUse=1 WtCom= 1.00D+00 WtEn= 0.00D+00
 Coeff-Com:  0.100D+01
 Coeff:      0.100D+01
 Gap=     0.507 Goal=   None    Shift=    0.000
 RMSDP=2.12D-06 MaxDP=5.55D-05 DE=-2.34D-07 OVMax= 4.96D-05

 Cycle   5  Pass 1  IDiag  1:
 RMSU=  6.76D-07    CP:  1.00D+00
 E= -2902.87977897034     Delta-E=       -0.000000029201 Rises=F Damp=F
 DIIS: error= 5.94D-06 at cycle   2 NSaved=   2.
 NSaved= 2 IEnMin= 2 EnMin= -2902.87977897034     IErMin= 2 ErrMin= 5.94D-06
 ErrMax= 5.94D-06 EMaxC= 1.00D-01 BMatC= 7.85D-09 BMatP= 2.14D-08
 IDIUse=1 WtCom= 1.00D+00 WtEn= 0.00D+00
 Coeff-Com:  0.317D+00 0.683D+00
 Coeff:      0.317D+00 0.683D+00
 Gap=     0.507 Goal=   None    Shift=    0.000
 RMSDP=2.66D-07 MaxDP=9.27D-06 DE=-2.92D-08 OVMax= 2.97D-05

 Cycle   6  Pass 1  IDiag  1:
 RMSU=  1.80D-07    CP:  1.00D+00  1.08D+00
 E= -2902.87977897787     Delta-E=       -0.000000007525 Rises=F Damp=F
 DIIS: error= 2.12D-06 at cycle   3 NSaved=   3.
 NSaved= 3 IEnMin= 3 EnMin= -2902.87977897787     IErMin= 3 ErrMin= 2.12D-06
 ErrMax= 2.12D-06 EMaxC= 1.00D-01 BMatC= 1.15D-09 BMatP= 7.85D-09
 IDIUse=1 WtCom= 1.00D+00 WtEn= 0.00D+00
 Coeff-Com: -0.291D+00-0.884D-01 0.138D+01
 Coeff:     -0.291D+00-0.884D-01 0.138D+01
 Gap=     0.507 Goal=   None    Shift=    0.000
 RMSDP=3.30D-07 MaxDP=9.78D-06 DE=-7.52D-09 OVMax= 1.87D-05

 Cycle   7  Pass 1  IDiag  1:
 RMSU=  8.70D-08    CP:  1.00D+00  1.39D+00  1.35D+00
 E= -2902.87977898074     Delta-E=       -0.000000002872 Rises=F Damp=F
 DIIS: error= 5.63D-07 at cycle   4 NSaved=   4.
 NSaved= 4 IEnMin= 4 EnMin= -2902.87977898074     IErMin= 4 ErrMin= 5.63D-07
 ErrMax= 5.63D-07 EMaxC= 1.00D-01 BMatC= 7.47D-11 BMatP= 1.15D-09
 IDIUse=1 WtCom= 1.00D+00 WtEn= 0.00D+00
 Coeff-Com: -0.937D-01-0.565D-01 0.347D+00 0.803D+00
 Coeff:     -0.937D-01-0.565D-01 0.347D+00 0.803D+00
 Gap=     0.507 Goal=   None    Shift=    0.000
 RMSDP=5.16D-08 MaxDP=1.56D-06 DE=-2.87D-09 OVMax= 4.00D-06

 Cycle   8  Pass 1  IDiag  1:
 RMSU=  2.38D-08    CP:  1.00D+00  1.41D+00  1.39D+00  1.27D+00
 E= -2902.87977898085     Delta-E=       -0.000000000109 Rises=F Damp=F
 DIIS: error= 1.52D-07 at cycle   5 NSaved=   5.
 NSaved= 5 IEnMin= 5 EnMin= -2902.87977898085     IErMin= 5 ErrMin= 1.52D-07
 ErrMax= 1.52D-07 EMaxC= 1.00D-01 BMatC= 9.00D-12 BMatP= 7.47D-11
 IDIUse=1 WtCom= 1.00D+00 WtEn= 0.00D+00
 Coeff-Com:  0.644D-01 0.316D-01-0.298D+00-0.127D+00 0.133D+01
 Coeff:      0.644D-01 0.316D-01-0.298D+00-0.127D+00 0.133D+01
 Gap=     0.507 Goal=   None    Shift=    0.000
 RMSDP=3.71D-08 MaxDP=8.14D-07 DE=-1.09D-10 OVMax= 1.99D-06

 Cycle   9  Pass 1  IDiag  1:
 RMSU=  6.96D-09    CP:  1.00D+00  1.41D+00  1.38D+00  1.55D+00  1.34D+00
 E= -2902.87977898086     Delta-E=       -0.000000000009 Rises=F Damp=F
 DIIS: error= 3.48D-08 at cycle   6 NSaved=   6.
 NSaved= 6 IEnMin= 6 EnMin= -2902.87977898086     IErMin= 6 ErrMin= 3.48D-08
 ErrMax= 3.48D-08 EMaxC= 1.00D-01 BMatC= 4.24D-13 BMatP= 9.00D-12
 IDIUse=1 WtCom= 1.00D+00 WtEn= 0.00D+00
 Coeff-Com: -0.742D-02-0.141D-02 0.344D-01-0.117D-01-0.231D+00 0.122D+01
 Coeff:     -0.742D-02-0.141D-02 0.344D-01-0.117D-01-0.231D+00 0.122D+01
 Gap=     0.507 Goal=   None    Shift=    0.000
 RMSDP=5.88D-09 MaxDP=1.17D-07 DE=-9.09D-12 OVMax= 4.88D-07

 SCF Done:  E(RHF) =  -2902.87977898     A.U. after    9 cycles
             Convg  =    0.5881D-08             -V/T =  2.0001
 KE= 2.902617658123D+03 PE=-7.227430482628D+03 EE= 1.278174752049D+03
 Leave Link  502 at Fri Nov 22 10:05:29 2019, MaxMem=  268435456 cpu:      68.4
 (Enter /home/matheus/.gaussian/g09/l801.exe)
 Windowed orbitals will be sorted by symmetry type.
 ExpMin= 2.53D-02 ExpMax= 1.17D+07 ExpMxC= 1.33D+04 IAcc=3 IRadAn=         5 AccDes= 0.00D+00
 HarFok:  IExCor=  205 AccDes= 0.00D+00 IRadAn=         5 IDoV=-2
 ScaDFX=  1.000000  1.000000  1.000000  1.000000
 DSYEVD returned Info=          93 IAlg= 4 N=    46 NDim=    46 NE2=     4547561 trying DSYEV.
 DSYEVD returned Info=          89 IAlg= 4 N=    59 NDim=    59 NE2=     4547561 trying DSYEV.
 Largest valence mixing into a core orbital is  1.45D-04
 Largest core mixing into a valence orbital is  2.63D-05
 Range of M.O.s used for correlation:    12   197
 NBasis=   197 NAE=    27 NBE=    27 NFC=    11 NFV=     0
 NROrb=    186 NOA=    16 NOB=    16 NVA=   170 NVB=   170

 **** Warning!!: The largest alpha MO coefficient is  0.16538336D+02

 Leave Link  801 at Fri Nov 22 10:05:29 2019, MaxMem=  268435456 cpu:       0.3
 (Enter /home/matheus/.gaussian/g09/l804.exe)
 Closed-shell transformation, MDV=   268435456 ITran=4 ISComp=1.
 Semi-Direct transformation.
 ModeAB=           2 MOrb=            16 LenV=     267326800
 LASXX=     48528660 LTotXX=    48528660 LenRXX=    48528660
 LTotAB=    49298776 MaxLAS=    78372960 LenRXY=    78372960
 NonZer=    97057320 LenScr=   146313216 LnRSAI=           0
 LnScr1=           0 LExtra=           0 Total=    273214836
 MaxDsk=          -1 SrtSym=           F ITran=            4
 DoSDTr:  NPSUse=  2
 JobTyp=0 Pass  1:  I=   1 to  16.
 (rs|ai) integrals will be sorted in core.
 Complete sort for first half transformation.
 First half transformation complete.
 Begin second half transformation for I=  10.
 Begin second half transformation for I=  10.
 Complete sort for second half transformation.
 Second half transformation complete.
 SymMOI:  orbitals are not symmetric.
 Spin components of T(2) and E(2):
     alpha-alpha T2 =       0.2597239976D-01 E2=     -0.9975861116D-01
     alpha-beta  T2 =       0.1421492253D+00 E2=     -0.5563313717D+00
     beta-beta   T2 =       0.2597239976D-01 E2=     -0.9975861116D-01
 ANorm=    0.1092746093D+01
 E2 =    -0.7558485941D+00 EUMP2 =    -0.29036356275749D+04
 Leave Link  804 at Fri Nov 22 10:05:57 2019, MaxMem=  268435456 cpu:      52.8
 (Enter /home/matheus/.gaussian/g09/l913.exe)
 CIDS:  MDV=   268435456.
 Frozen-core window:  NFC=  11 NFV=   0.
 IFCWin=0 IBDFC=1 NFBD=     0     0 NFCmp=     0     0 NFFFC=     0     0
 Using DD3R+UMP44R for 1st iteration, S=T.
 Using DD4RQ for 2nd and later iterations.
 Would need an additional       431206676 words for in-memory AO integral storage.
 MP4(SDTQ)
 =========
 DD1Dir will call FoFDir   1 times, MxPair=       272
 NAB=   136 NAA=     0 NBB=     0 NumPrc=  2.
 Integrals replicated using symmetry in FoFDir.
 MinBra= 0 MaxBra= 3 Meth= 1.
 IRaf=       0 NMat= 272 IRICut=     340 DoRegI=T DoRafI=T ISym2E= 2 JSym2E=2.
 MP4(D)= -0.14947937D-01
 MP4(S)= -0.64837970D-02
 MP4(R+Q)=  0.15410057D-01
 T4(AAA)= -0.10408974D-02
 T4(AAB)= -0.14189534D-01
 Time for triples=     1343.88 seconds.
 MP4(T)=   -0.30460862D-01
 E3=       -0.11365644D-01        EUMP3=      -0.29036469932D+04
 E4(DQ)=    0.46211955D-03        UMP4(DQ)=   -0.29036465311D+04
 E4(SDQ)=  -0.60216775D-02        UMP4(SDQ)=  -0.29036530149D+04
 E4(SDTQ)= -0.36482539D-01        UMP4(SDTQ)= -0.29036834758D+04
 VARIATIONAL ENERGIES WITH THE FIRST-ORDER WAVEFUNCTION:
 E(VAR1)=  -0.29035222864D+04     E(CISD,4)=  -0.29035217193D+04
 Largest amplitude= 4.48D-02
 Leave Link  913 at Fri Nov 22 10:18:10 2019, MaxMem=  268435456 cpu:    1439.3
 (Enter /home/matheus/.gaussian/g09/l108.exe)
 Variable Step   Value    
 -------- ---- -----------
     1       3    6.236096
 Leave Link  108 at Fri Nov 22 10:18:10 2019, MaxMem=  268435456 cpu:       0.1
 (Enter /home/matheus/.gaussian/g09/l202.exe)
 ---------------------------------------------------------------------------------------------------
                            Z-MATRIX (ANGSTROMS AND DEGREES)
   CD    Cent   Atom    N1       Length/X        N2       Alpha/Y        N3        Beta/Z          J
 ---------------------------------------------------------------------------------------------------
      1      1  O        0   0.000000          0.000000          0.725000
      2      2  O        0   0.000000          0.000000         -0.725000
      3      3  H        0   0.703781          0.590542          1.023510
      4      4  H        0   0.000000          0.918721         -1.023510
      5      5  Kr       0   0.000000          3.300000          0.000000
 ---------------------------------------------------------------------------------------------------
                         Z-Matrix orientation:                         
 ---------------------------------------------------------------------
 Center     Atomic      Atomic             Coordinates (Angstroms)
 Number     Number       Type             X           Y           Z
 ---------------------------------------------------------------------
      1          8           0        0.000000    0.000000    0.725000
      2          8           0        0.000000    0.000000   -0.725000
      3          1           0        0.703781    0.590542    1.023510
      4          1           0        0.000000    0.918721   -1.023510
      5         36           0        0.000000    3.300000    0.000000
 ---------------------------------------------------------------------
                    Distance matrix (angstroms):
                    1          2          3          4          5
     1  O    0.000000
     2  O    1.450000   0.000000
     3  H    0.966000   1.975180   0.000000
     4  H    1.975180   0.966000   2.189361   0.000000
     5  Kr   3.378702   3.378702   2.980611   2.591923   0.000000
 Stoichiometry    H2KrO2
 Framework group  C1[X(H2KrO2)]
 Deg. of freedom     9
 Full point group                 C1      NOp   1
 RotChk:  IX=0 Diff= 4.15D-04
 Largest Abelian subgroup         C1      NOp   1
 Largest concise Abelian subgroup C1      NOp   1
                         Standard orientation:                         
 ---------------------------------------------------------------------
 Center     Atomic      Atomic             Coordinates (Angstroms)
 Number     Number       Type             X           Y           Z
 ---------------------------------------------------------------------
      1          8           0        2.229889   -0.714143   -0.084554
      2          8           0        2.225558    0.732194    0.018356
      3          1           0        1.646781   -1.063975    0.601565
      4          1           0        1.305989    1.026610    0.047830
      5         36           0       -1.072121   -0.002973   -0.003328
 ---------------------------------------------------------------------
 Rotational constants (GHZ):     26.0310262      1.9586010      1.8276112
 Leave Link  202 at Fri Nov 22 10:18:10 2019, MaxMem=  268435456 cpu:       0.0
 (Enter /home/matheus/.gaussian/g09/l301.exe)
 Standard basis: Aug-CC-pVTZ (5D, 7F)
 Ernie: Thresh=  0.10000D-02 Tol=  0.10000D-05 Strict=F.
 Ernie:  38 primitive shells out of 205 were deleted.
 There are   197 symmetry adapted basis functions of A   symmetry.
 Integral buffers will be    131072 words long.
 Raffenetti 1 integral format.
 Two-electron integral symmetry is turned on.
   197 basis functions,   415 primitive gaussians,   229 cartesian basis functions
    27 alpha electrons       27 beta electrons
       nuclear repulsion energy       140.6052454596 Hartrees.
 IExCor=    0 DFT=F Ex=HF Corr=None ExCW=0 ScaHFX=  1.000000
 ScaDFX=  1.000000  1.000000  1.000000  1.000000 ScalE2=  1.000000  1.000000
 IRadAn=      5 IRanWt=     -1 IRanGd=            0 ICorTp=0
 NAtoms=    5 NActive=    5 NUniq=    5 SFac= 1.00D+00 NAtFMM=   60 NAOKFM=F Big=F
 Leave Link  301 at Fri Nov 22 10:18:10 2019, MaxMem=  268435456 cpu:       0.0
 (Enter /home/matheus/.gaussian/g09/l302.exe)
 NPDir=0 NMtPBC=     1 NCelOv=     1 NCel=       1 NClECP=     1 NCelD=      1
         NCelK=      1 NCelE2=     1 NClLst=     1 CellRange=     0.0.
 One-electron integrals computed using PRISM.
 NBasis=   197 RedAO= T  NBF=   197
 NBsUse=   197 1.00D-06 NBFU=   197
 Leave Link  302 at Fri Nov 22 10:18:10 2019, MaxMem=  268435456 cpu:       0.2
 (Enter /home/matheus/.gaussian/g09/l303.exe)
 DipDrv:  MaxL=1.
 Leave Link  303 at Fri Nov 22 10:18:11 2019, MaxMem=  268435456 cpu:       0.1
 (Enter /home/matheus/.gaussian/g09/l401.exe)
 Initial guess read from the read-write file.
 B after Tr=     0.000000    0.000000    0.000000
         Rot=    1.000000    0.000000    0.000000    0.000000 Ang=   0.00 deg.
 Guess basis will be translated and rotated to current coordinates.
 Initial guess orbital symmetries:
       Occupied  (A) (A) (A) (A) (A) (A) (A) (A) (A) (A) (A) (A)
                 (A) (A) (A) (A) (A) (A) (A) (A) (A) (A) (A) (A)
                 (A) (A) (A)
       Virtual   (A) (A) (A) (A) (A) (A) (A) (A) (A) (A) (A) (A)
                 (A) (A) (A) (A) (A) (A) (A) (A) (A) (A) (A) (A)
                 (A) (A) (A) (A) (A) (A) (A) (A) (A) (A) (A) (A)
                 (A) (A) (A) (A) (A) (A) (A) (A) (A) (A) (A) (A)
                 (A) (A) (A) (A) (A) (A) (A) (A) (A) (A) (A) (A)
                 (A) (A) (A) (A) (A) (A) (A) (A) (A) (A) (A) (A)
                 (A) (A) (A) (A) (A) (A) (A) (A) (A) (A) (A) (A)
                 (A) (A) (A) (A) (A) (A) (A) (A) (A) (A) (A) (A)
                 (A) (A) (A) (A) (A) (A) (A) (A) (A) (A) (A) (A)
                 (A) (A) (A) (A) (A) (A) (A) (A) (A) (A) (A) (A)
                 (A) (A) (A) (A) (A) (A) (A) (A) (A) (A) (A) (A)
                 (A) (A) (A) (A) (A) (A) (A) (A) (A) (A) (A) (A)
                 (A) (A) (A) (A) (A) (A) (A) (A) (A) (A) (A) (A)
                 (A) (A) (A) (A) (A) (A) (A) (A) (A) (A) (A) (A)
                 (A) (A)
 The electronic state of the initial guess is 1-A.
 Generating alternative initial guess.
 Harris functional with IExCor=  205 diagonalized for initial guess.
 ExpMin= 2.53D-02 ExpMax= 1.17D+07 ExpMxC= 1.33D+04 IAcc=3 IRadAn=         5 AccDes= 0.00D+00
 HarFok:  IExCor=  205 AccDes= 0.00D+00 IRadAn=         5 IDoV= 1
 ScaDFX=  1.000000  1.000000  1.000000  1.000000
 FoFCou: FMM=F IPFlag=           0 FMFlag=      100000 FMFlg1=           0
         NFxFlg=           0 DoJE=T BraDBF=F KetDBF=T FulRan=T
         Omega=  0.000000  0.000000  1.000000  0.000000  0.000000 ICntrl=     500 IOpCl=  0
         NMat0=    1 NMatS0=    1 NMatT0=    0 NMatD0=    1 NMtDS0=    0 NMtDT0=    0
         I1Cent=           4 NGrid=           0.
 Petite list used in FoFCou.
 Harris En= -2901.93204701317    
 Leave Link  401 at Fri Nov 22 10:18:11 2019, MaxMem=  268435456 cpu:       1.3
 (Enter /home/matheus/.gaussian/g09/l502.exe)
 Closed shell SCF:
 Requested convergence on RMS density matrix=1.00D-08 within 128 cycles.
 Requested convergence on MAX density matrix=1.00D-06.
 Requested convergence on             energy=1.00D-06.
 No special actions if energy rises.
 Using DIIS extrapolation, IDIIS=  1040.
 Integral symmetry usage will be decided dynamically.
 IEnd=      178489 IEndB=      178489 NGot=   268435456 MDV=   268326278
 LenX=   268326278 LenY=   268273396
 Fock matrices will be formed incrementally for  20 cycles.

 Cycle   1  Pass 0  IDiag  1:
 FoFCou: FMM=F IPFlag=           0 FMFlag=      100000 FMFlg1=           0
         NFxFlg=           0 DoJE=F BraDBF=F KetDBF=F FulRan=T
         Omega=  0.000000  0.000000  1.000000  0.000000  0.000000 ICntrl=       0 IOpCl=  0
         NMat0=    1 NMatS0=    1 NMatT0=    0 NMatD0=    1 NMtDS0=    0 NMtDT0=    0
         I1Cent=           0 NGrid=           0.
 Symmetry not used in FoFCou.
 E= -2902.88119600770    
 DIIS: error= 4.04D-04 at cycle   1 NSaved=   1.
 NSaved= 1 IEnMin= 1 EnMin= -2902.88119600770     IErMin= 1 ErrMin= 4.04D-04
 ErrMax= 4.04D-04 EMaxC= 1.00D-01 BMatC= 4.10D-05 BMatP= 4.10D-05
 IDIUse=3 WtCom= 9.96D-01 WtEn= 4.04D-03
 Coeff-Com:  0.100D+01
 Coeff-En:   0.100D+01
 Coeff:      0.100D+01
 Gap=     0.508 Goal=   None    Shift=    0.000
 RMSDP=5.41D-05 MaxDP=1.50D-03              OVMax= 1.95D-03

 Cycle   2  Pass 0  IDiag  1:
 RMSU=  3.83D-05    CP:  1.00D+00
 E= -2902.88124340317     Delta-E=       -0.000047395465 Rises=F Damp=F
 DIIS: error= 6.57D-05 at cycle   2 NSaved=   2.
 NSaved= 2 IEnMin= 2 EnMin= -2902.88124340317     IErMin= 2 ErrMin= 6.57D-05
 ErrMax= 6.57D-05 EMaxC= 1.00D-01 BMatC= 1.13D-06 BMatP= 4.10D-05
 IDIUse=1 WtCom= 1.00D+00 WtEn= 0.00D+00
 Coeff-Com: -0.818D-01 0.108D+01
 Coeff:     -0.818D-01 0.108D+01
 Gap=     0.507 Goal=   None    Shift=    0.000
 RMSDP=9.38D-06 MaxDP=3.26D-04 DE=-4.74D-05 OVMax= 4.24D-04

 Initial convergence to 1.0D-05 achieved.  Increase integral accuracy.
 Cycle   3  Pass 1  IDiag  1:
 E= -2902.88124515508     Delta-E=       -0.000001751917 Rises=F Damp=F
 DIIS: error= 1.84D-05 at cycle   1 NSaved=   1.
 NSaved= 1 IEnMin= 1 EnMin= -2902.88124515508     IErMin= 1 ErrMin= 1.84D-05
 ErrMax= 1.84D-05 EMaxC= 1.00D-01 BMatC= 1.52D-07 BMatP= 1.52D-07
 IDIUse=1 WtCom= 1.00D+00 WtEn= 0.00D+00
 Coeff-Com:  0.100D+01
 Coeff:      0.100D+01
 Gap=     0.507 Goal=   None    Shift=    0.000
 RMSDP=9.38D-06 MaxDP=3.26D-04 DE=-1.75D-06 OVMax= 1.36D-04

 Cycle   4  Pass 1  IDiag  1:
 RMSU=  1.53D-06    CP:  1.00D+00
 E= -2902.88124528821     Delta-E=       -0.000000133127 Rises=F Damp=F
 DIIS: error= 1.07D-05 at cycle   2 NSaved=   2.
 NSaved= 2 IEnMin= 2 EnMin= -2902.88124528821     IErMin= 2 ErrMin= 1.07D-05
 ErrMax= 1.07D-05 EMaxC= 1.00D-01 BMatC= 5.25D-08 BMatP= 1.52D-07
 IDIUse=1 WtCom= 1.00D+00 WtEn= 0.00D+00
 Coeff-Com:  0.348D+00 0.652D+00
 Coeff:      0.348D+00 0.652D+00
 Gap=     0.507 Goal=   None    Shift=    0.000
 RMSDP=7.04D-07 MaxDP=3.75D-05 DE=-1.33D-07 OVMax= 4.42D-05

 Cycle   5  Pass 1  IDiag  1:
 RMSU=  4.95D-07    CP:  1.00D+00  9.64D-01
 E= -2902.88124532652     Delta-E=       -0.000000038304 Rises=F Damp=F
 DIIS: error= 3.34D-06 at cycle   3 NSaved=   3.
 NSaved= 3 IEnMin= 3 EnMin= -2902.88124532652     IErMin= 3 ErrMin= 3.34D-06
 ErrMax= 3.34D-06 EMaxC= 1.00D-01 BMatC= 2.86D-09 BMatP= 5.25D-08
 IDIUse=1 WtCom= 1.00D+00 WtEn= 0.00D+00
 Coeff-Com: -0.877D-01-0.294D-01 0.112D+01
 Coeff:     -0.877D-01-0.294D-01 0.112D+01
 Gap=     0.507 Goal=   None    Shift=    0.000
 RMSDP=3.98D-07 MaxDP=1.43D-05 DE=-3.83D-08 OVMax= 3.11D-05

 Cycle   6  Pass 1  IDiag  1:
 RMSU=  1.39D-07    CP:  1.00D+00  1.08D+00  1.34D+00
 E= -2902.88124533275     Delta-E=       -0.000000006234 Rises=F Damp=F
 DIIS: error= 1.42D-06 at cycle   4 NSaved=   4.
 NSaved= 4 IEnMin= 4 EnMin= -2902.88124533275     IErMin= 4 ErrMin= 1.42D-06
 ErrMax= 1.42D-06 EMaxC= 1.00D-01 BMatC= 6.80D-10 BMatP= 2.86D-09
 IDIUse=1 WtCom= 1.00D+00 WtEn= 0.00D+00
 Coeff-Com: -0.864D-01-0.130D+00 0.314D+00 0.903D+00
 Coeff:     -0.864D-01-0.130D+00 0.314D+00 0.903D+00
 Gap=     0.507 Goal=   None    Shift=    0.000
 RMSDP=1.76D-07 MaxDP=4.93D-06 DE=-6.23D-09 OVMax= 1.08D-05

 Cycle   7  Pass 1  IDiag  1:
 RMSU=  6.37D-08    CP:  1.00D+00  1.12D+00  1.52D+00  1.17D+00
 E= -2902.88124533384     Delta-E=       -0.000000001094 Rises=F Damp=F
 DIIS: error= 4.25D-07 at cycle   5 NSaved=   5.
 NSaved= 5 IEnMin= 5 EnMin= -2902.88124533384     IErMin= 5 ErrMin= 4.25D-07
 ErrMax= 4.25D-07 EMaxC= 1.00D-01 BMatC= 3.58D-11 BMatP= 6.80D-10
 IDIUse=1 WtCom= 1.00D+00 WtEn= 0.00D+00
 Coeff-Com:  0.616D-02-0.751D-04-0.737D-01-0.928D-02 0.108D+01
 Coeff:      0.616D-02-0.751D-04-0.737D-01-0.928D-02 0.108D+01
 Gap=     0.507 Goal=   None    Shift=    0.000
 RMSDP=5.47D-08 MaxDP=1.50D-06 DE=-1.09D-09 OVMax= 3.35D-06

 Cycle   8  Pass 1  IDiag  1:
 RMSU=  1.68D-08    CP:  1.00D+00  1.11D+00  1.54D+00  1.32D+00  1.37D+00
 E= -2902.88124533393     Delta-E=       -0.000000000083 Rises=F Damp=F
 DIIS: error= 1.15D-07 at cycle   6 NSaved=   6.
 NSaved= 6 IEnMin= 6 EnMin= -2902.88124533393     IErMin= 6 ErrMin= 1.15D-07
 ErrMax= 1.15D-07 EMaxC= 1.00D-01 BMatC= 5.46D-12 BMatP= 3.58D-11
 IDIUse=1 WtCom= 1.00D+00 WtEn= 0.00D+00
 Coeff-Com:  0.135D-01 0.186D-01-0.498D-01-0.147D+00 0.941D-01 0.107D+01
 Coeff:      0.135D-01 0.186D-01-0.498D-01-0.147D+00 0.941D-01 0.107D+01
 Gap=     0.507 Goal=   None    Shift=    0.000
 RMSDP=2.44D-08 MaxDP=5.59D-07 DE=-8.28D-11 OVMax= 1.40D-06

 Cycle   9  Pass 1  IDiag  1:
 RMSU=  5.72D-09    CP:  1.00D+00  1.11D+00  1.54D+00  1.37D+00  1.56D+00
                    CP:  1.28D+00
 E= -2902.88124533395     Delta-E=       -0.000000000025 Rises=F Damp=F
 DIIS: error= 3.01D-08 at cycle   7 NSaved=   7.
 NSaved= 7 IEnMin= 7 EnMin= -2902.88124533395     IErMin= 7 ErrMin= 3.01D-08
 ErrMax= 3.01D-08 EMaxC= 1.00D-01 BMatC= 3.22D-13 BMatP= 5.46D-12
 IDIUse=1 WtCom= 1.00D+00 WtEn= 0.00D+00
 Coeff-Com: -0.714D-02-0.101D-01 0.309D-01 0.715D-01-0.102D+00-0.541D+00
 Coeff-Com:  0.156D+01
[...]
      1          8           0        0.000000    0.000000    0.725000
      2          8           0        0.000000    0.000000   -0.725000
      3          1           0        0.703781    0.590542    1.023510
      4          1           0        0.000000    0.918721   -1.023510
      5         36           0        0.000000    5.000000    0.000000
 ---------------------------------------------------------------------
                    Distance matrix (angstroms):
                    1          2          3          4          5
     1  O    0.000000
     2  O    1.450000   0.000000
     3  H    0.966000   1.975180   0.000000
     4  H    1.975180   0.966000   2.189361   0.000000
     5  Kr   5.052289   5.052289   4.581070   4.207661   0.000000
 Stoichiometry    H2KrO2
 Framework group  C1[X(H2KrO2)]
 Deg. of freedom     9
 Full point group                 C1      NOp   1
 RotChk:  IX=0 Diff= 1.77D-04
 Largest Abelian subgroup         C1      NOp   1
 Largest concise Abelian subgroup C1      NOp   1
                         Standard orientation:                         
 ---------------------------------------------------------------------
 Center     Atomic      Atomic             Coordinates (Angstroms)
 Number     Number       Type             X           Y           Z
 ---------------------------------------------------------------------
      1          8           0        3.361997   -0.716568   -0.086717
      2          8           0        3.360237    0.729768    0.016285
      3          1           0        2.776556   -1.065308    0.597969
      4          1           0        2.441175    1.025973    0.043562
      5         36           0       -1.638767   -0.001841   -0.002169
 ---------------------------------------------------------------------
 Rotational constants (GHZ):     26.0324859      0.8482427      0.8227032
 Leave Link  202 at Fri Nov 22 14:10:35 2019, MaxMem=  268435456 cpu:       0.0
 (Enter /home/matheus/.gaussian/g09/l301.exe)
 Standard basis: Aug-CC-pVTZ (5D, 7F)
 Ernie: Thresh=  0.10000D-02 Tol=  0.10000D-05 Strict=F.
 Ernie:  38 primitive shells out of 205 were deleted.
 There are   197 symmetry adapted basis functions of A   symmetry.
 Integral buffers will be    131072 words long.
 Raffenetti 1 integral format.
 Two-electron integral symmetry is turned on.
   197 basis functions,   415 primitive gaussians,   229 cartesian basis functions
    27 alpha electrons       27 beta electrons
       nuclear repulsion energy       105.6662826785 Hartrees.
 IExCor=    0 DFT=F Ex=HF Corr=None ExCW=0 ScaHFX=  1.000000
 ScaDFX=  1.000000  1.000000  1.000000  1.000000 ScalE2=  1.000000  1.000000
 IRadAn=      5 IRanWt=     -1 IRanGd=            0 ICorTp=0
 NAtoms=    5 NActive=    5 NUniq=    5 SFac= 1.00D+00 NAtFMM=   60 NAOKFM=F Big=F
 Leave Link  301 at Fri Nov 22 14:10:35 2019, MaxMem=  268435456 cpu:       0.1
 (Enter /home/matheus/.gaussian/g09/l302.exe)
 NPDir=0 NMtPBC=     1 NCelOv=     1 NCel=       1 NClECP=     1 NCelD=      1
         NCelK=      1 NCelE2=     1 NClLst=     1 CellRange=     0.0.
 One-electron integrals computed using PRISM.
 NBasis=   197 RedAO= T  NBF=   197
 NBsUse=   197 1.00D-06 NBFU=   197
 Leave Link  302 at Fri Nov 22 14:10:36 2019, MaxMem=  268435456 cpu:       0.3
 (Enter /home/matheus/.gaussian/g09/l303.exe)
 DipDrv:  MaxL=1.
 Leave Link  303 at Fri Nov 22 14:10:36 2019, MaxMem=  268435456 cpu:       0.3
 (Enter /home/matheus/.gaussian/g09/l401.exe)
 Initial guess read from the read-write file.
 B after Tr=     0.000000    0.000000    0.000000
         Rot=    1.000000    0.000000    0.000000    0.000000 Ang=   0.00 deg.
 Guess basis will be translated and rotated to current coordinates.
 Initial guess orbital symmetries:
       Occupied  (A) (A) (A) (A) (A) (A) (A) (A) (A) (A) (A) (A)
                 (A) (A) (A) (A) (A) (A) (A) (A) (A) (A) (A) (A)
                 (A) (A) (A)
       Virtual   (A) (A) (A) (A) (A) (A) (A) (A) (A) (A) (A) (A)
                 (A) (A) (A) (A) (A) (A) (A) (A) (A) (A) (A) (A)
                 (A) (A) (A) (A) (A) (A) (A) (A) (A) (A) (A) (A)
                 (A) (A) (A) (A) (A) (A) (A) (A) (A) (A) (A) (A)
                 (A) (A) (A) (A) (A) (A) (A) (A) (A) (A) (A) (A)
                 (A) (A) (A) (A) (A) (A) (A) (A) (A) (A) (A) (A)
                 (A) (A) (A) (A) (A) (A) (A) (A) (A) (A) (A) (A)
                 (A) (A) (A) (A) (A) (A) (A) (A) (A) (A) (A) (A)
                 (A) (A) (A) (A) (A) (A) (A) (A) (A) (A) (A) (A)
                 (A) (A) (A) (A) (A) (A) (A) (A) (A) (A) (A) (A)
                 (A) (A) (A) (A) (A) (A) (A) (A) (A) (A) (A) (A)
                 (A) (A) (A) (A) (A) (A) (A) (A) (A) (A) (A) (A)
                 (A) (A) (A) (A) (A) (A) (A) (A) (A) (A) (A) (A)
                 (A) (A) (A) (A) (A) (A) (A) (A) (A) (A) (A) (A)
                 (A) (A)
 The electronic state of the initial guess is 1-A.
 Generating alternative initial guess.
 Harris functional with IExCor=  205 diagonalized for initial guess.
 ExpMin= 2.53D-02 ExpMax= 1.17D+07 ExpMxC= 1.33D+04 IAcc=3 IRadAn=         5 AccDes= 0.00D+00
 HarFok:  IExCor=  205 AccDes= 0.00D+00 IRadAn=         5 IDoV= 1
 ScaDFX=  1.000000  1.000000  1.000000  1.000000
 FoFCou: FMM=F IPFlag=           0 FMFlag=      100000 FMFlg1=           0
         NFxFlg=           0 DoJE=T BraDBF=F KetDBF=T FulRan=T
         Omega=  0.000000  0.000000  1.000000  0.000000  0.000000 ICntrl=     500 IOpCl=  0
         NMat0=    1 NMatS0=    1 NMatT0=    0 NMatD0=    1 NMtDS0=    0 NMtDT0=    0
         I1Cent=           4 NGrid=           0.
 Petite list used in FoFCou.
 Harris En= -2901.93279293917    
 Leave Link  401 at Fri Nov 22 14:10:37 2019, MaxMem=  268435456 cpu:       1.3
 (Enter /home/matheus/.gaussian/g09/l502.exe)
 Closed shell SCF:
 Requested convergence on RMS density matrix=1.00D-08 within 128 cycles.
 Requested convergence on MAX density matrix=1.00D-06.
 Requested convergence on             energy=1.00D-06.
 No special actions if energy rises.
 Using DIIS extrapolation, IDIIS=  1040.
 Integral symmetry usage will be decided dynamically.
 IEnd=      178489 IEndB=      178489 NGot=   268435456 MDV=   268326278
 LenX=   268326278 LenY=   268273396
 Fock matrices will be formed incrementally for  20 cycles.

 Cycle   1  Pass 0  IDiag  1:
 FoFCou: FMM=F IPFlag=           0 FMFlag=      100000 FMFlg1=           0
         NFxFlg=           0 DoJE=F BraDBF=F KetDBF=F FulRan=T
         Omega=  0.000000  0.000000  1.000000  0.000000  0.000000 ICntrl=       0 IOpCl=  0
         NMat0=    1 NMatS0=    1 NMatT0=    0 NMatD0=    1 NMtDS0=    0 NMtDT0=    0
         I1Cent=           0 NGrid=           0.
 Symmetry not used in FoFCou.
 E= -2902.88445492431    
 DIIS: error= 4.29D-05 at cycle   1 NSaved=   1.
 NSaved= 1 IEnMin= 1 EnMin= -2902.88445492431     IErMin= 1 ErrMin= 4.29D-05
 ErrMax= 4.29D-05 EMaxC= 1.00D-01 BMatC= 6.40D-07 BMatP= 6.40D-07
 IDIUse=1 WtCom= 1.00D+00 WtEn= 0.00D+00
 Coeff-Com:  0.100D+01
 Coeff:      0.100D+01
 Gap=     0.507 Goal=   None    Shift=    0.000
 RMSDP=1.28D-05 MaxDP=3.94D-04              OVMax= 3.68D-04

 Cycle   2  Pass 0  IDiag  1:
 RMSU=  9.04D-06    CP:  1.00D+00
 E= -2902.88445562189     Delta-E=       -0.000000697586 Rises=F Damp=F
 DIIS: error= 1.09D-05 at cycle   2 NSaved=   2.
 NSaved= 2 IEnMin= 2 EnMin= -2902.88445562189     IErMin= 2 ErrMin= 1.09D-05
 ErrMax= 1.09D-05 EMaxC= 1.00D-01 BMatC= 1.84D-08 BMatP= 6.40D-07
 IDIUse=1 WtCom= 1.00D+00 WtEn= 0.00D+00
 Coeff-Com: -0.143D-01 0.101D+01
 Coeff:     -0.143D-01 0.101D+01
 Gap=     0.507 Goal=   None    Shift=    0.000
 RMSDP=1.51D-06 MaxDP=3.96D-05 DE=-6.98D-07 OVMax= 6.15D-05

 Initial convergence to 1.0D-05 achieved.  Increase integral accuracy.
 Cycle   3  Pass 1  IDiag  1:
 E= -2902.88445564455     Delta-E=       -0.000000022656 Rises=F Damp=F
 DIIS: error= 3.16D-06 at cycle   1 NSaved=   1.
 NSaved= 1 IEnMin= 1 EnMin= -2902.88445564455     IErMin= 1 ErrMin= 3.16D-06
 ErrMax= 3.16D-06 EMaxC= 1.00D-01 BMatC= 1.31D-09 BMatP= 1.31D-09
 IDIUse=1 WtCom= 1.00D+00 WtEn= 0.00D+00
 Coeff-Com:  0.100D+01
 Coeff:      0.100D+01
 Gap=     0.507 Goal=   None    Shift=    0.000
 RMSDP=1.51D-06 MaxDP=3.96D-05 DE=-2.27D-08 OVMax= 2.52D-05

 Cycle   4  Pass 1  IDiag  1:
 RMSU=  1.83D-07    CP:  1.00D+00
 E= -2902.88445564641     Delta-E=       -0.000000001859 Rises=F Damp=F
 DIIS: error= 9.00D-07 at cycle   2 NSaved=   2.
 NSaved= 2 IEnMin= 2 EnMin= -2902.88445564641     IErMin= 2 ErrMin= 9.00D-07
 ErrMax= 9.00D-07 EMaxC= 1.00D-01 BMatC= 1.75D-10 BMatP= 1.31D-09
 IDIUse=1 WtCom= 1.00D+00 WtEn= 0.00D+00
 Coeff-Com:  0.178D+00 0.822D+00
 Coeff:      0.178D+00 0.822D+00
 Gap=     0.507 Goal=   None    Shift=    0.000
 RMSDP=6.80D-08 MaxDP=2.59D-06 DE=-1.86D-09 OVMax= 5.00D-06

 Cycle   5  Pass 1  IDiag  1:
 RMSU=  4.05D-08    CP:  1.00D+00  1.14D+00
 E= -2902.88445564662     Delta-E=       -0.000000000218 Rises=F Damp=F
 DIIS: error= 3.09D-07 at cycle   3 NSaved=   3.
 NSaved= 3 IEnMin= 3 EnMin= -2902.88445564662     IErMin= 3 ErrMin= 3.09D-07
 ErrMax= 3.09D-07 EMaxC= 1.00D-01 BMatC= 2.64D-11 BMatP= 1.75D-10
 IDIUse=1 WtCom= 1.00D+00 WtEn= 0.00D+00
 Coeff-Com: -0.793D-01 0.333D-01 0.105D+01
 Coeff:     -0.793D-01 0.333D-01 0.105D+01
 Gap=     0.507 Goal=   None    Shift=    0.000
 RMSDP=3.92D-08 MaxDP=1.80D-06 DE=-2.18D-10 OVMax= 3.83D-06

 Cycle   6  Pass 1  IDiag  1:
 RMSU=  1.32D-08    CP:  1.00D+00  1.26D+00  1.24D+00
 E= -2902.88445564669     Delta-E=       -0.000000000061 Rises=F Damp=F
 DIIS: error= 1.79D-07 at cycle   4 NSaved=   4.
 NSaved= 4 IEnMin= 4 EnMin= -2902.88445564669     IErMin= 4 ErrMin= 1.79D-07
 ErrMax= 1.79D-07 EMaxC= 1.00D-01 BMatC= 6.12D-12 BMatP= 2.64D-11
 IDIUse=1 WtCom= 1.00D+00 WtEn= 0.00D+00
 Coeff-Com: -0.589D-01-0.122D+00 0.368D+00 0.813D+00
 Coeff:     -0.589D-01-0.122D+00 0.368D+00 0.813D+00
 Gap=     0.507 Goal=   None    Shift=    0.000
 RMSDP=1.42D-08 MaxDP=6.05D-07 DE=-6.09D-11 OVMax= 1.40D-06

 Cycle   7  Pass 1  IDiag  1:
 RMSU=  5.17D-09    CP:  1.00D+00  1.30D+00  1.39D+00  1.08D+00
 E= -2902.88445564669     Delta-E=       -0.000000000007 Rises=F Damp=F
 DIIS: error= 2.74D-08 at cycle   5 NSaved=   5.
 NSaved= 5 IEnMin= 5 EnMin= -2902.88445564669     IErMin= 5 ErrMin= 2.74D-08
 ErrMax= 2.74D-08 EMaxC= 1.00D-01 BMatC= 1.99D-13 BMatP= 6.12D-12
 IDIUse=1 WtCom= 1.00D+00 WtEn= 0.00D+00
 Coeff-Com:  0.207D-01 0.387D-01-0.167D+00-0.241D+00 0.135D+01
 Coeff:      0.207D-01 0.387D-01-0.167D+00-0.241D+00 0.135D+01
 Gap=     0.507 Goal=   None    Shift=    0.000
 RMSDP=4.04D-09 MaxDP=1.16D-07 DE=-6.82D-12 OVMax= 3.37D-07

 SCF Done:  E(RHF) =  -2902.88445565     A.U. after    7 cycles
             Convg  =    0.4037D-08             -V/T =  2.0001
 KE= 2.902582897309D+03 PE=-7.151658502164D+03 EE= 1.240524866529D+03
 Leave Link  502 at Fri Nov 22 14:10:56 2019, MaxMem=  268435456 cpu:      38.6
 (Enter /home/matheus/.gaussian/g09/l801.exe)
 Windowed orbitals will be sorted by symmetry type.
 ExpMin= 2.53D-02 ExpMax= 1.17D+07 ExpMxC= 1.33D+04 IAcc=3 IRadAn=         5 AccDes= 0.00D+00
 HarFok:  IExCor=  205 AccDes= 0.00D+00 IRadAn=         5 IDoV=-2
 ScaDFX=  1.000000  1.000000  1.000000  1.000000
 DSYEVD returned Info=          93 IAlg= 4 N=    46 NDim=    46 NE2=     4547561 trying DSYEV.
 DSYEVD returned Info=          89 IAlg= 4 N=    59 NDim=    59 NE2=     4547561 trying DSYEV.
 Largest valence mixing into a core orbital is  1.48D-04
 Largest core mixing into a valence orbital is  2.64D-05
 Range of M.O.s used for correlation:    12   197
 NBasis=   197 NAE=    27 NBE=    27 NFC=    11 NFV=     0
 NROrb=    186 NOA=    16 NOB=    16 NVA=   170 NVB=   170

 **** Warning!!: The largest alpha MO coefficient is  0.15842776D+02

 Leave Link  801 at Fri Nov 22 14:10:57 2019, MaxMem=  268435456 cpu:       0.3
 (Enter /home/matheus/.gaussian/g09/l804.exe)
 Closed-shell transformation, MDV=   268435456 ITran=4 ISComp=1.
 Semi-Direct transformation.
 ModeAB=           4 MOrb=            16 LenV=     267347984
 LASXX=     48528660 LTotXX=    48528660 LenRXX=    97827436
 LTotAB=    49298776 MaxLAS=    72846528 LenRXY=           0
 NonZer=   146356096 LenScr=   220395520 LnRSAI=    72846528
 LnScr1=   110028800 LExtra=           0 Total=    501098284
 MaxDsk=          -1 SrtSym=           T ITran=            4
 DoSDTr:  NPSUse=  2
 JobTyp=0 Pass  1:  I=   1 to  16.
 (rs|ai) integrals will be sorted in core.
 Complete sort for first half transformation.
 First half transformation complete.
 Begin second half transformation for I=  10.
 Complete sort for second half transformation.
 Second half transformation complete.
 SymMOI:  orbitals are not symmetric.
 Spin components of T(2) and E(2):
     alpha-alpha T2 =       0.2557506325D-01 E2=     -0.9849534217D-01
     alpha-beta  T2 =       0.1414557557D+00 E2=     -0.5531350012D+00
     beta-beta   T2 =       0.2557506325D-01 E2=     -0.9849534217D-01
 ANorm=    0.1092064962D+01
 E2 =    -0.7501256856D+00 EUMP2 =    -0.29036345813322D+04
 Leave Link  804 at Fri Nov 22 14:11:20 2019, MaxMem=  268435456 cpu:      43.7
 (Enter /home/matheus/.gaussian/g09/l913.exe)
 CIDS:  MDV=   268435456.
 Frozen-core window:  NFC=  11 NFV=   0.
 IFCWin=0 IBDFC=1 NFBD=     0     0 NFCmp=     0     0 NFFFC=     0     0
 Using DD3R+UMP44R for 1st iteration, S=T.
 Using DD4RQ for 2nd and later iterations.
 Would need an additional       431206676 words for in-memory AO integral storage.
 MP4(SDTQ)
 =========
 DD1Dir will call FoFDir   1 times, MxPair=       272
 NAB=   136 NAA=     0 NBB=     0 NumPrc=  2.
 Integrals replicated using symmetry in FoFDir.
 MinBra= 0 MaxBra= 3 Meth= 1.
 IRaf=       0 NMat= 272 IRICut=     340 DoRegI=T DoRafI=T ISym2E= 2 JSym2E=2.
 MP4(D)= -0.14940435D-01
 MP4(S)= -0.63097366D-02
 MP4(R+Q)=  0.15035053D-01
 T4(AAA)= -0.99057284D-03
 T4(AAB)= -0.13856320D-01
 Time for triples=     1392.17 seconds.
 MP4(T)=   -0.29693786D-01
 E3=       -0.11914484D-01        EUMP3=      -0.29036464958D+04
 E4(DQ)=    0.94617833D-04        UMP4(DQ)=   -0.29036464012D+04
 E4(SDQ)=  -0.62151187D-02        UMP4(SDQ)=  -0.29036527109D+04
 E4(SDTQ)= -0.35908905D-01        UMP4(SDTQ)= -0.29036824047D+04
 VARIATIONAL ENERGIES WITH THE FIRST-ORDER WAVEFUNCTION:
 E(VAR1)=  -0.29035234263D+04     E(CISD,4)=  -0.29035232674D+04
 Largest amplitude= 2.52D-02
 Leave Link  913 at Fri Nov 22 14:24:02 2019, MaxMem=  268435456 cpu:    1478.9
 (Enter /home/matheus/.gaussian/g09/l108.exe)
 Scan completed.

 Summary of the potential surface scan:
   N      R1          SCF          MP2          MP3         MP4DQ       MP4SDQ       MP4SDTQ  
 ----  ---------  -----------  -----------  -----------  -----------  -----------  -----------
    1     3.0000  -2902.87482  -2903.63293  -2903.64402  -2903.64340  -2903.64995  -2903.68071
    2     3.1000  -2902.87771  -2903.63460  -2903.64585  -2903.64531  -2903.65183  -2903.68243
    3     3.2000  -2902.87978  -2903.63563  -2903.64699  -2903.64653  -2903.65301  -2903.68348
    4     3.3000  -2902.88125  -2903.63620  -2903.64766  -2903.64726  -2903.65372  -2903.68406
    5     3.4000  -2902.88228  -2903.63647  -2903.64801  -2903.64766  -2903.65410  -2903.68434
    6     3.5000  -2902.88300  -2903.63654  -2903.64814  -2903.64784  -2903.65426  -2903.68441
    7     3.6000  -2902.88350  -2903.63648  -2903.64813  -2903.64787  -2903.65427  -2903.68435
    8     3.7000  -2902.88385  -2903.63634  -2903.64804  -2903.64781  -2903.65420  -2903.68421
    9     3.8000  -2902.88408  -2903.63617  -2903.64790  -2903.64770  -2903.65407  -2903.68403
   10     3.9000  -2902.88424  -2903.63598  -2903.64775  -2903.64756  -2903.65392  -2903.68383
   11     4.0000  -2902.88434  -2903.63579  -2903.64758  -2903.64741  -2903.65377  -2903.68364
   12     4.1000  -2902.88440  -2903.63561  -2903.64742  -2903.64727  -2903.65361  -2903.68345
   13     4.2000  -2902.88444  -2903.63544  -2903.64727  -2903.64713  -2903.65347  -2903.68328
   14     4.3000  -2902.88446  -2903.63528  -2903.64713  -2903.64700  -2903.65334  -2903.68312
   15     4.4000  -2902.88447  -2903.63514  -2903.64701  -2903.64689  -2903.65321  -2903.68298
   16     4.5000  -2902.88448  -2903.63502  -2903.64690  -2903.64678  -2903.65310  -2903.68285
   17     4.6000  -2902.88448  -2903.63491  -2903.64680  -2903.64669  -2903.65301  -2903.68274
   18     4.7000  -2902.88447  -2903.63481  -2903.64671  -2903.64660  -2903.65292  -2903.68264
   19     4.8000  -2902.88447  -2903.63473  -2903.64663  -2903.64653  -2903.65284  -2903.68255
   20     4.9000  -2902.88446  -2903.63465  -2903.64656  -2903.64646  -2903.65277  -2903.68247
   21     5.0000  -2902.88446  -2903.63458  -2903.64650  -2903.64640  -2903.65271  -2903.68240
 ----  ---------  -----------  -----------  -----------  -----------  -----------  -----------
  
 Leave Link  108 at Fri Nov 22 14:24:03 2019, MaxMem=  268435456 cpu:       0.2
 (Enter /home/matheus/.gaussian/g09/l9999.exe)
 1\1\GINC-REDGIANT\Scan\RMP4SDTQ-FC\Aug-CC-pVTZ\H2Kr1O2\MATHEUS\22-Nov-
 2019\1\\#p mp4/aug-cc-PVTz int=ultrafine Scan\\PTCC\\0,1\O,0,0.,0.,0.7
 25\O,0,0.,0.,-0.725\H,0,0.7037808064,0.5905422151,1.0235104166\H,0,0.,
 0.9187205947,-1.0235104166\Kr,0,0.,R1,0.\\R1=3.,s,20,0.1\\Version=EM64
 L-G09RevC.01\State=1-A\HF=-2902.8748158,-2902.8777122,-2902.879779,-29
 02.8812453,-2902.8822791,-2902.8830027,-2902.8835046,-2902.883849,-290
 2.8840821,-2902.8842372,-2902.8843381,-2902.8844018,-2902.8844403,-290
 2.8844621,-2902.8844729,-2902.8844767,-2902.8844759,-2902.8844724,-290
 2.8844674,-2902.8844616,-2902.8844556\MP2=-2903.6329329,-2903.6346047,
 -2903.6356276,-2903.6362008,-2903.6364687,-2903.6365355,-2903.6364756,
 -2903.6363409,-2903.6361671,-2903.6359777,-2903.6357876,-2903.6356057,
 -2903.6354367,-2903.6352827,-2903.6351442,-2903.6350204,-2903.6349103,
 -2903.6348126,-2903.634726,-2903.6346493,-2903.6345813\MP3=-2903.64402
 04,-2903.6458476,-2903.6469932,-2903.6476641,-2903.6480105,-2903.64814
 1,-2903.6481334,-2903.648042,-2903.6479044,-2903.6477454,-2903.647581,
 -2903.6474208,-2903.6472704,-2903.6471323,-2903.6470073,-2903.6468952,
 -2903.6467953,-2903.6467064,-2903.6466276,-2903.6465577,-2903.6464958\
 MP4D=-2903.6589675,-2903.660795,-2903.6619412,-2903.6626124,-2903.6629
 588,-2903.6630891,-2903.663081,-2903.6629891,-2903.6628508,-2903.66269
 12,-2903.6625262,-2903.6623654,-2903.6622144,-2903.6620758,-2903.66195
 03,-2903.6618377,-2903.6617373,-2903.661648,-2903.6615688,-2903.661498
 5,-2903.6614363\MP4DQ=-2903.6434011,-2903.6453128,-2903.6465311,-2903.
 647264,-2903.647663,-2903.647838,-2903.6478677,-2903.6478077,-2903.647
 6962,-2903.6475591,-2903.6474128,-2903.6472677,-2903.6471297,-2903.647
 0019,-2903.6468853,-2903.6467802,-2903.646686,-2903.6466019,-2903.6465
 27,-2903.6464604,-2903.6464012\MP4SDQ=-2903.649947,-2903.6518253,-2903
 .6530149,-2903.653723,-2903.6541004,-2903.6542566,-2903.6542699,-2903.
 6541955,-2903.6540716,-2903.6539236,-2903.653768,-2903.6536147,-2903.6
 534697,-2903.6533358,-2903.6532141,-2903.6531045,-2903.6530065,-2903.6
 52919,-2903.6528413,-2903.6527722,-2903.6527109\MP4SDTQ=-2903.6807122,
 -2903.6824263,-2903.6834758,-2903.684064,-2903.6843389,-2903.6844072,-
 2903.6843454,-2903.6842069,-2903.6840284,-2903.683834,-2903.683639,-29
 03.6834524,-2903.6832792,-2903.6831214,-2903.6829794,-2903.6828527,-29
 03.6827401,-2903.6826403,-2903.6825519,-2903.6824738,-2903.6824047\RMS
 D=4.154e-09,7.180e-09,5.881e-09,6.443e-09,5.497e-09,4.753e-09,4.100e-0
 9,6.629e-09,3.795e-09,3.374e-09,3.714e-09,3.304e-09,2.930e-09,2.600e-0
 9,2.083e-09,8.889e-09,7.228e-09,6.008e-09,5.149e-09,4.525e-09,4.037e-0
 9\PG=C01 [X(H2Kr1O2)]\\@


 IT IS IMPOSSIBLE TO MEDITATE ON TIME AND THE MYSTERY 
 OF NATURE WITHOUT AN OVERWHELMING EMOTION AT THE
 LIMITATIONS OF HUMAN INTELLIGENCE.

                                         -- ALFRED NORTH WHITEHEAD
 Job cpu time:  0 days  9 hours 15 minutes  0.4 seconds.
 File lengths (MBytes):  RWF=   3950 Int=      0 D2E=      0 Chk=      4 Scr=      1
 Normal termination of Gaussian 09 at Fri Nov 22 14:24:03 2019.
