 Entering Gaussian System, Link 0=g09
 Input=/home/matheus/.ptcc/Inputs/H2O2-Kr_7.com
 Output=/home/matheus/.ptcc/Logs-MP4/H2O2-Kr_7.log
 Initial command:
 /home/matheus/.gaussian/g09/l1.exe /home/matheus/.gaussian/g09/scratch/Gau-4895.inp -scrdir=/home/matheus/.gaussian/g09/scratch/
 Entering Link 1 = /home/matheus/.gaussian/g09/l1.exe PID=      4897.
  
 Copyright (c) 1988,1990,1992,1993,1995,1998,2003,2009,2011,
            Gaussian, Inc.  All Rights Reserved.
  
 This is part of the Gaussian(R) 09 program.  It is based on
 the Gaussian(R) 03 system (copyright 2003, Gaussian, Inc.),
 the Gaussian(R) 98 system (copyright 1998, Gaussian, Inc.),
 the Gaussian(R) 94 system (copyright 1995, Gaussian, Inc.),
 the Gaussian 92(TM) system (copyright 1992, Gaussian, Inc.),
 the Gaussian 90(TM) system (copyright 1990, Gaussian, Inc.),
 the Gaussian 88(TM) system (copyright 1988, Gaussian, Inc.),
 the Gaussian 86(TM) system (copyright 1986, Carnegie Mellon
 University), and the Gaussian 82(TM) system (copyright 1983,
 Carnegie Mellon University). Gaussian is a federally registered
 trademark of Gaussian, Inc.
  
 This software contains proprietary and confidential information,
 including trade secrets, belonging to Gaussian, Inc.
  
 This software is provided under written license and may be
 used, copied, transmitted, or stored only in accord with that
 written license.
  
 The following legend is applicable only to US Government
 contracts under FAR:
  
                    RESTRICTED RIGHTS LEGEND
  
 Use, reproduction and disclosure by the US Government is
 subject to restrictions as set forth in subparagraphs (a)
 and (c) of the Commercial Computer Software - Restricted
 Rights clause in FAR 52.227-19.
  
 Gaussian, Inc.
 340 Quinnipiac St., Bldg. 40, Wallingford CT 06492
  
  
 ---------------------------------------------------------------
 Warning -- This program may not be used in any manner that
 competes with the business of Gaussian, Inc. or will provide
 assistance to any competitor of Gaussian, Inc.  The licensee
 of this program is prohibited from giving any competitor of
 Gaussian, Inc. access to this program.  By using this program,
 the user acknowledges that Gaussian, Inc. is engaged in the
 business of creating and licensing software in the field of
 computational chemistry and represents and warrants to the
 licensee that it is not a competitor of Gaussian, Inc. and that
 it will not use this program in any manner prohibited above.
 ---------------------------------------------------------------
  

 Cite this work as:
 Gaussian 09, Revision C.01,
 M. J. Frisch, G. W. Trucks, H. B. Schlegel, G. E. Scuseria, 
 M. A. Robb, J. R. Cheeseman, G. Scalmani, V. Barone, B. Mennucci, 
 G. A. Petersson, H. Nakatsuji, M. Caricato, X. Li, H. P. Hratchian, 
 A. F. Izmaylov, J. Bloino, G. Zheng, J. L. Sonnenberg, M. Hada, 
 M. Ehara, K. Toyota, R. Fukuda, J. Hasegawa, M. Ishida, T. Nakajima, 
 Y. Honda, O. Kitao, H. Nakai, T. Vreven, J. A. Montgomery, Jr., 
 J. E. Peralta, F. Ogliaro, M. Bearpark, J. J. Heyd, E. Brothers, 
 K. N. Kudin, V. N. Staroverov, T. Keith, R. Kobayashi, J. Normand, 
 K. Raghavachari, A. Rendell, J. C. Burant, S. S. Iyengar, J. Tomasi, 
 M. Cossi, N. Rega, J. M. Millam, M. Klene, J. E. Knox, J. B. Cross, 
 V. Bakken, C. Adamo, J. Jaramillo, R. Gomperts, R. E. Stratmann, 
 O. Yazyev, A. J. Austin, R. Cammi, C. Pomelli, J. W. Ochterski, 
 R. L. Martin, K. Morokuma, V. G. Zakrzewski, G. A. Voth, 
 P. Salvador, J. J. Dannenberg, S. Dapprich, A. D. Daniels, 
 O. Farkas, J. B. Foresman, J. V. Ortiz, J. Cioslowski, 
 and D. J. Fox, Gaussian, Inc., Wallingford CT, 2010.
 
 ******************************************
 Gaussian 09:  EM64L-G09RevC.01 23-Sep-2011
                23-Nov-2019 
 ******************************************
 %mem=2GB
 %nproc=2
 Will use up to    2 processors via shared memory.
 -------------------------------------
 #p mp4/aug-cc-PVTz int=ultrafine Scan
 -------------------------------------
 1/38=1,60=1/1,8;
 2/12=2,17=6,18=5,29=3,40=1/2;
 3/5=16,6=1,7=10,11=9,16=1,25=1,30=1,75=-5/1,2,3;
 4//1;
 5/5=2,38=5/2;
 8/6=4,9=120000,10=1/1,4;
 9/5=5/13;
 6/7=2,8=2,9=2,10=2,18=1/1;
 1/60=1/8(1);
 99/9=1/99;
 2/29=3/2;
 3/5=16,6=1,7=10,11=9,16=1,25=1,30=1,75=-5/1,2,3;
 4/5=5,16=3/1;
 5/5=2,38=5/2;
 8/6=4,9=120000,10=1/1,4;
 9/5=5/13;
 1/60=1/8(-6);
 99/9=1/99;
 Leave Link    1 at Sat Nov 23 12:47:08 2019, MaxMem=  268435456 cpu:       0.0
 (Enter /home/matheus/.gaussian/g09/l101.exe)
 ----
 PTCC
 ----
 Charge =  0 Multiplicity = 1
 Symbolic Z-Matrix:
 O                     0.        0.        0.725 
 O                     0.        0.       -0.725 
 H                     0.86331   0.31422   1.02351 
 H                     0.        0.91872  -1.02351 
 Kr                    0.       R1        0. 
       Variables:
  R1                    3.     Scan 20    0.1    
 
 NAtoms=      5 NQM=        0 NQMF=       0 NMMI=      5 NMMIF=      0
                NMic=       0 NMicF=      0.
                    Isotopes and Nuclear Properties:
 (Nuclear quadrupole moments (NQMom) in fm**2, nuclear magnetic moments (NMagM)
  in nuclear magnetons)

  Atom         1           2           3           4           5
 IAtWgt=          16          16           1           1          84
 AtmWgt=  15.9949146  15.9949146   1.0078250   1.0078250  83.9115064
 NucSpn=           0           0           1           1           0
 AtZEff=   0.0000000   0.0000000   0.0000000   0.0000000   0.0000000
 NQMom=    0.0000000   0.0000000   0.0000000   0.0000000   0.0000000
 NMagM=    0.0000000   0.0000000   2.7928460   2.7928460   0.0000000
 Leave Link  101 at Sat Nov 23 12:47:09 2019, MaxMem=  268435456 cpu:       0.1
 (Enter /home/matheus/.gaussian/g09/l108.exe)
 Scan the potential surface.
 Variable   Value     No. Steps Step-Size
 -------- ----------- --------- ---------
     1       3.000000      20      0.1000
 A total of     21 points will be computed.
 Leave Link  108 at Sat Nov 23 12:47:09 2019, MaxMem=  268435456 cpu:       0.0
 (Enter /home/matheus/.gaussian/g09/l202.exe)
 ---------------------------------------------------------------------------------------------------
                            Z-MATRIX (ANGSTROMS AND DEGREES)
   CD    Cent   Atom    N1       Length/X        N2       Alpha/Y        N3        Beta/Z          J
 ---------------------------------------------------------------------------------------------------
      1      1  O        0   0.000000          0.000000          0.725000
      2      2  O        0   0.000000          0.000000         -0.725000
      3      3  H        0   0.863315          0.314221          1.023510
      4      4  H        0   0.000000          0.918721         -1.023510
      5      5  Kr       0   0.000000          3.000000          0.000000
 ---------------------------------------------------------------------------------------------------
                         Z-Matrix orientation:                         
 ---------------------------------------------------------------------
 Center     Atomic      Atomic             Coordinates (Angstroms)
 Number     Number       Type             X           Y           Z
 ---------------------------------------------------------------------
      1          8           0        0.000000    0.000000    0.725000
      2          8           0        0.000000    0.000000   -0.725000
      3          1           0        0.863315    0.314221    1.023510
      4          1           0        0.000000    0.918721   -1.023510
      5         36           0        0.000000    3.000000    0.000000
 ---------------------------------------------------------------------
                    Distance matrix (angstroms):
                    1          2          3          4          5
     1  O    0.000000
     2  O    1.450000   0.000000
     3  H    0.966000   1.975180   0.000000
     4  H    1.975180   0.966000   2.302396   0.000000
     5  Kr   3.086361   3.086361   3.001049   2.319331   0.000000
 Stoichiometry    H2KrO2
 Framework group  C1[X(H2KrO2)]
 Deg. of freedom     9
 Full point group                 C1      NOp   1
 Largest Abelian subgroup         C1      NOp   1
 Largest concise Abelian subgroup C1      NOp   1
                         Standard orientation:                         
 ---------------------------------------------------------------------
 Center     Atomic      Atomic             Coordinates (Angstroms)
 Number     Number       Type             X           Y           Z
 ---------------------------------------------------------------------
      1          8           0        2.027244   -0.704579   -0.107619
      2          8           0        2.017454    0.739726    0.020400
      3          1           0        1.727457   -1.080559    0.730189
      4          1           0        1.096833    1.029722    0.059329
      5         36           0       -0.977274   -0.006398   -0.002549
 ---------------------------------------------------------------------
 Rotational constants (GHZ):     25.7099481      2.3602095      2.1745891
 Leave Link  202 at Sat Nov 23 12:47:09 2019, MaxMem=  268435456 cpu:       0.0
 (Enter /home/matheus/.gaussian/g09/l301.exe)
 Standard basis: Aug-CC-pVTZ (5D, 7F)
 Ernie: Thresh=  0.10000D-02 Tol=  0.10000D-05 Strict=F.
 Ernie:  38 primitive shells out of 205 were deleted.
 There are   197 symmetry adapted basis functions of A   symmetry.
 Integral buffers will be    131072 words long.
 Raffenetti 1 integral format.
 Two-electron integral symmetry is turned on.
   197 basis functions,   415 primitive gaussians,   229 cartesian basis functions
    27 alpha electrons       27 beta electrons
       nuclear repulsion energy       149.9587672391 Hartrees.
 IExCor=    0 DFT=F Ex=HF Corr=None ExCW=0 ScaHFX=  1.000000
 ScaDFX=  1.000000  1.000000  1.000000  1.000000 ScalE2=  1.000000  1.000000
 IRadAn=      5 IRanWt=     -1 IRanGd=            0 ICorTp=0
 NAtoms=    5 NActive=    5 NUniq=    5 SFac= 1.00D+00 NAtFMM=   60 NAOKFM=F Big=F
 Leave Link  301 at Sat Nov 23 12:47:09 2019, MaxMem=  268435456 cpu:       0.1
 (Enter /home/matheus/.gaussian/g09/l302.exe)
 NPDir=0 NMtPBC=     1 NCelOv=     1 NCel=       1 NClECP=     1 NCelD=      1
         NCelK=      1 NCelE2=     1 NClLst=     1 CellRange=     0.0.
 One-electron integrals computed using PRISM.
 NBasis=   197 RedAO= T  NBF=   197
 NBsUse=   197 1.00D-06 NBFU=   197
 Leave Link  302 at Sat Nov 23 12:47:09 2019, MaxMem=  268435456 cpu:       0.2
 (Enter /home/matheus/.gaussian/g09/l303.exe)
 DipDrv:  MaxL=1.
 Leave Link  303 at Sat Nov 23 12:47:09 2019, MaxMem=  268435456 cpu:       0.1
 (Enter /home/matheus/.gaussian/g09/l401.exe)
 Harris functional with IExCor=  205 diagonalized for initial guess.
 ExpMin= 2.53D-02 ExpMax= 1.17D+07 ExpMxC= 1.33D+04 IAcc=3 IRadAn=         5 AccDes= 0.00D+00
 HarFok:  IExCor=  205 AccDes= 0.00D+00 IRadAn=         5 IDoV= 1
 ScaDFX=  1.000000  1.000000  1.000000  1.000000
 FoFCou: FMM=F IPFlag=           0 FMFlag=      100000 FMFlg1=           0
         NFxFlg=           0 DoJE=T BraDBF=F KetDBF=T FulRan=T
         Omega=  0.000000  0.000000  1.000000  0.000000  0.000000 ICntrl=     500 IOpCl=  0
         NMat0=    1 NMatS0=    1 NMatT0=    0 NMatD0=    1 NMtDS0=    0 NMtDT0=    0
         I1Cent=           4 NGrid=           0.
 Petite list used in FoFCou.
 Harris En= -2901.93136833462    
 Initial guess orbital symmetries:
       Occupied  (A) (A) (A) (A) (A) (A) (A) (A) (A) (A) (A) (A)
                 (A) (A) (A) (A) (A) (A) (A) (A) (A) (A) (A) (A)
                 (A) (A) (A)
       Virtual   (A) (A) (A) (A) (A) (A) (A) (A) (A) (A) (A) (A)
                 (A) (A) (A) (A) (A) (A) (A) (A) (A) (A) (A) (A)
                 (A) (A) (A) (A) (A) (A) (A) (A) (A) (A) (A) (A)
                 (A) (A) (A) (A) (A) (A) (A) (A) (A) (A) (A) (A)
                 (A) (A) (A) (A) (A) (A) (A) (A) (A) (A) (A) (A)
                 (A) (A) (A) (A) (A) (A) (A) (A) (A) (A) (A) (A)
                 (A) (A) (A) (A) (A) (A) (A) (A) (A) (A) (A) (A)
                 (A) (A) (A) (A) (A) (A) (A) (A) (A) (A) (A) (A)
                 (A) (A) (A) (A) (A) (A) (A) (A) (A) (A) (A) (A)
                 (A) (A) (A) (A) (A) (A) (A) (A) (A) (A) (A) (A)
                 (A) (A) (A) (A) (A) (A) (A) (A) (A) (A) (A) (A)
                 (A) (A) (A) (A) (A) (A) (A) (A) (A) (A) (A) (A)
                 (A) (A) (A) (A) (A) (A) (A) (A) (A) (A) (A) (A)
                 (A) (A) (A) (A) (A) (A) (A) (A) (A) (A) (A) (A)
                 (A) (A)
 The electronic state of the initial guess is 1-A.
 Leave Link  401 at Sat Nov 23 12:47:10 2019, MaxMem=  268435456 cpu:       1.2
 (Enter /home/matheus/.gaussian/g09/l502.exe)
 Closed shell SCF:
 Requested convergence on RMS density matrix=1.00D-08 within 128 cycles.
 Requested convergence on MAX density matrix=1.00D-06.
 Requested convergence on             energy=1.00D-06.
 No special actions if energy rises.
 Using DIIS extrapolation, IDIIS=  1040.
 Integral symmetry usage will be decided dynamically.
 IEnd=      178489 IEndB=      178489 NGot=   268435456 MDV=   268326278
 LenX=   268326278 LenY=   268273396
 Fock matrices will be formed incrementally for  20 cycles.

 Cycle   1  Pass 0  IDiag  1:
 FoFCou: FMM=F IPFlag=           0 FMFlag=      100000 FMFlg1=           0
         NFxFlg=           0 DoJE=F BraDBF=F KetDBF=F FulRan=T
         Omega=  0.000000  0.000000  1.000000  0.000000  0.000000 ICntrl=       0 IOpCl=  0
         NMat0=    1 NMatS0=    1 NMatT0=    0 NMatD0=    1 NMtDS0=    0 NMtDT0=    0
         I1Cent=           0 NGrid=           0.
 Symmetry not used in FoFCou.
 E= -2902.75728884722    
 DIIS: error= 4.35D-02 at cycle   1 NSaved=   1.
 NSaved= 1 IEnMin= 1 EnMin= -2902.75728884722     IErMin= 1 ErrMin= 4.35D-02
 ErrMax= 4.35D-02 EMaxC= 1.00D-01 BMatC= 6.94D-01 BMatP= 6.94D-01
 IDIUse=3 WtCom= 5.65D-01 WtEn= 4.35D-01
 Coeff-Com:  0.100D+01
 Coeff-En:   0.100D+01
 Coeff:      0.100D+01
 Gap=     0.705 Goal=   None    Shift=    0.000
 GapD=    0.705 DampG=2.000 DampE=0.500 DampFc=1.0000 IDamp=-1.
 RMSDP=2.24D-03 MaxDP=1.50D-01              OVMax= 5.20D-02

 Cycle   2  Pass 0  IDiag  1:
 RMSU=  1.57D-03    CP:  1.01D+00
 E= -2902.86249086159     Delta-E=       -0.105202014363 Rises=F Damp=F
 DIIS: error= 8.16D-03 at cycle   2 NSaved=   2.
 NSaved= 2 IEnMin= 2 EnMin= -2902.86249086159     IErMin= 2 ErrMin= 8.16D-03
 ErrMax= 8.16D-03 EMaxC= 1.00D-01 BMatC= 4.11D-02 BMatP= 6.94D-01
 IDIUse=3 WtCom= 9.18D-01 WtEn= 8.16D-02
 Coeff-Com:  0.153D+00 0.847D+00
 Coeff-En:   0.000D+00 0.100D+01
 Coeff:      0.140D+00 0.860D+00
 Gap=     0.536 Goal=   None    Shift=    0.000
 RMSDP=8.08D-04 MaxDP=4.24D-02 DE=-1.05D-01 OVMax= 2.45D-02

 Cycle   3  Pass 0  IDiag  1:
 RMSU=  4.42D-04    CP:  1.01D+00  7.79D-01
 E= -2902.87660159001     Delta-E=       -0.014110728426 Rises=F Damp=F
 DIIS: error= 1.83D-03 at cycle   3 NSaved=   3.
 NSaved= 3 IEnMin= 3 EnMin= -2902.87660159001     IErMin= 3 ErrMin= 1.83D-03
 ErrMax= 1.83D-03 EMaxC= 1.00D-01 BMatC= 2.42D-03 BMatP= 4.11D-02
 IDIUse=3 WtCom= 9.82D-01 WtEn= 1.83D-02
 Coeff-Com: -0.599D-02 0.172D+00 0.834D+00
 Coeff-En:   0.000D+00 0.000D+00 0.100D+01
 Coeff:     -0.588D-02 0.169D+00 0.837D+00
 Gap=     0.513 Goal=   None    Shift=    0.000
 RMSDP=1.28D-04 MaxDP=5.01D-03 DE=-1.41D-02 OVMax= 7.77D-03

 Cycle   4  Pass 0  IDiag  1:
 RMSU=  4.98D-05    CP:  1.01D+00  8.11D-01  8.78D-01
 E= -2902.87778742483     Delta-E=       -0.001185834814 Rises=F Damp=F
 DIIS: error= 3.19D-04 at cycle   4 NSaved=   4.
 NSaved= 4 IEnMin= 4 EnMin= -2902.87778742483     IErMin= 4 ErrMin= 3.19D-04
 ErrMax= 3.19D-04 EMaxC= 1.00D-01 BMatC= 5.07D-05 BMatP= 2.42D-03
 IDIUse=3 WtCom= 9.97D-01 WtEn= 3.19D-03
 Coeff-Com: -0.443D-02 0.112D-01 0.153D+00 0.840D+00
 Coeff-En:   0.000D+00 0.000D+00 0.000D+00 0.100D+01
 Coeff:     -0.442D-02 0.112D-01 0.152D+00 0.841D+00
 Gap=     0.516 Goal=   None    Shift=    0.000
 RMSDP=2.22D-05 MaxDP=7.23D-04 DE=-1.19D-03 OVMax= 1.78D-03

 Cycle   5  Pass 0  IDiag  1:
 RMSU=  1.38D-05    CP:  1.01D+00  8.13D-01  8.94D-01  9.83D-01
 E= -2902.87783110319     Delta-E=       -0.000043678366 Rises=F Damp=F
 DIIS: error= 1.01D-04 at cycle   5 NSaved=   5.
 NSaved= 5 IEnMin= 5 EnMin= -2902.87783110319     IErMin= 5 ErrMin= 1.01D-04
 ErrMax= 1.01D-04 EMaxC= 1.00D-01 BMatC= 4.02D-06 BMatP= 5.07D-05
 IDIUse=3 WtCom= 9.99D-01 WtEn= 1.01D-03
 Coeff-Com:  0.876D-03-0.158D-01-0.753D-01 0.451D-02 0.109D+01
 Coeff-En:   0.000D+00 0.000D+00 0.000D+00 0.000D+00 0.100D+01
 Coeff:      0.875D-03-0.158D-01-0.752D-01 0.451D-02 0.109D+01
 Gap=     0.516 Goal=   None    Shift=    0.000
 RMSDP=1.17D-05 MaxDP=3.23D-04 DE=-4.37D-05 OVMax= 8.13D-04

 Cycle   6  Pass 0  IDiag  1:
 RMSU=  5.28D-06    CP:  1.01D+00  8.11D-01  8.91D-01  1.07D+00  1.26D+00
 E= -2902.87783748433     Delta-E=       -0.000006381138 Rises=F Damp=F
 DIIS: error= 3.13D-05 at cycle   6 NSaved=   6.
 NSaved= 6 IEnMin= 6 EnMin= -2902.87783748433     IErMin= 6 ErrMin= 3.13D-05
 ErrMax= 3.13D-05 EMaxC= 1.00D-01 BMatC= 3.13D-07 BMatP= 4.02D-06
 IDIUse=1 WtCom= 1.00D+00 WtEn= 0.00D+00
 Coeff-Com:  0.255D-03-0.483D-03-0.106D-01-0.584D-01 0.155D-01 0.105D+01
 Coeff:      0.255D-03-0.483D-03-0.106D-01-0.584D-01 0.155D-01 0.105D+01
 Gap=     0.516 Goal=   None    Shift=    0.000
 RMSDP=3.87D-06 MaxDP=1.39D-04 DE=-6.38D-06 OVMax= 3.51D-04

 Initial convergence to 1.0D-05 achieved.  Increase integral accuracy.
 Cycle   7  Pass 1  IDiag  1:
 E= -2902.87783812689     Delta-E=       -0.000000642562 Rises=F Damp=F
 DIIS: error= 1.59D-05 at cycle   1 NSaved=   1.
 NSaved= 1 IEnMin= 1 EnMin= -2902.87783812689     IErMin= 1 ErrMin= 1.59D-05
 ErrMax= 1.59D-05 EMaxC= 1.00D-01 BMatC= 6.02D-08 BMatP= 6.02D-08
 IDIUse=1 WtCom= 1.00D+00 WtEn= 0.00D+00
 Coeff-Com:  0.100D+01
 Coeff:      0.100D+01
 Gap=     0.516 Goal=   None    Shift=    0.000
 RMSDP=3.87D-06 MaxDP=1.39D-04 DE=-6.43D-07 OVMax= 1.32D-04

 Cycle   8  Pass 1  IDiag  1:
 RMSU=  9.19D-07    CP:  1.00D+00
 E= -2902.87783821477     Delta-E=       -0.000000087873 Rises=F Damp=F
 DIIS: error= 9.21D-06 at cycle   2 NSaved=   2.
 NSaved= 2 IEnMin= 2 EnMin= -2902.87783821477     IErMin= 2 ErrMin= 9.21D-06
 ErrMax= 9.21D-06 EMaxC= 1.00D-01 BMatC= 2.98D-08 BMatP= 6.02D-08
 IDIUse=1 WtCom= 1.00D+00 WtEn= 0.00D+00
 Coeff-Com:  0.365D+00 0.635D+00
 Coeff:      0.365D+00 0.635D+00
 Gap=     0.516 Goal=   None    Shift=    0.000
 RMSDP=5.74D-07 MaxDP=2.48D-05 DE=-8.79D-08 OVMax= 5.44D-05

 Cycle   9  Pass 1  IDiag  1:
 RMSU=  3.89D-07    CP:  1.00D+00  1.13D+00
 E= -2902.87783824521     Delta-E=       -0.000000030443 Rises=F Damp=F
 DIIS: error= 4.25D-06 at cycle   3 NSaved=   3.
 NSaved= 3 IEnMin= 3 EnMin= -2902.87783824521     IErMin= 3 ErrMin= 4.25D-06
 ErrMax= 4.25D-06 EMaxC= 1.00D-01 BMatC= 4.97D-09 BMatP= 2.98D-08
 IDIUse=1 WtCom= 1.00D+00 WtEn= 0.00D+00
 Coeff-Com: -0.491D+00-0.338D+00 0.183D+01
 Coeff:     -0.491D+00-0.338D+00 0.183D+01
 Gap=     0.516 Goal=   None    Shift=    0.000
 RMSDP=9.44D-07 MaxDP=2.00D-05 DE=-3.04D-08 OVMax= 1.21D-04

 Cycle  10  Pass 1  IDiag  1:
 RMSU=  1.13D-07    CP:  1.00D+00  1.74D+00  1.86D+00
 E= -2902.87783826616     Delta-E=       -0.000000020955 Rises=F Damp=F
 DIIS: error= 7.15D-07 at cycle   4 NSaved=   4.
 NSaved= 4 IEnMin= 4 EnMin= -2902.87783826616     IErMin= 4 ErrMin= 7.15D-07
 ErrMax= 7.15D-07 EMaxC= 1.00D-01 BMatC= 2.18D-10 BMatP= 4.97D-09
 IDIUse=1 WtCom= 1.00D+00 WtEn= 0.00D+00
 Coeff-Com:  0.903D-01 0.408D-01-0.394D+00 0.126D+01
 Coeff:      0.903D-01 0.408D-01-0.394D+00 0.126D+01
 Gap=     0.516 Goal=   None    Shift=    0.000
 RMSDP=1.38D-07 MaxDP=3.34D-06 DE=-2.10D-08 OVMax= 2.10D-05

 Cycle  11  Pass 1  IDiag  1:
 RMSU=  3.40D-08    CP:  1.00D+00  1.80D+00  1.95D+00  1.56D+00
 E= -2902.87783826696     Delta-E=       -0.000000000791 Rises=F Damp=F
 DIIS: error= 3.13D-07 at cycle   5 NSaved=   5.
 NSaved= 5 IEnMin= 5 EnMin= -2902.87783826696     IErMin= 5 ErrMin= 3.13D-07
 ErrMax= 3.13D-07 EMaxC= 1.00D-01 BMatC= 4.53D-11 BMatP= 2.18D-10
 IDIUse=1 WtCom= 1.00D+00 WtEn= 0.00D+00
 Coeff-Com:  0.110D+00 0.731D-01-0.417D+00 0.134D+00 0.110D+01
 Coeff:      0.110D+00 0.731D-01-0.417D+00 0.134D+00 0.110D+01
 Gap=     0.516 Goal=   None    Shift=    0.000
 RMSDP=6.32D-08 MaxDP=1.54D-06 DE=-7.91D-10 OVMax= 9.49D-06

 Cycle  12  Pass 1  IDiag  1:
 RMSU=  1.26D-08    CP:  1.00D+00  1.82D+00  1.98D+00  1.86D+00  1.36D+00
 E= -2902.87783826708     Delta-E=       -0.000000000124 Rises=F Damp=F
 DIIS: error= 1.05D-07 at cycle   6 NSaved=   6.
 NSaved= 6 IEnMin= 6 EnMin= -2902.87783826708     IErMin= 6 ErrMin= 1.05D-07
 ErrMax= 1.05D-07 EMaxC= 1.00D-01 BMatC= 3.42D-12 BMatP= 4.53D-11
 IDIUse=1 WtCom= 1.00D+00 WtEn= 0.00D+00
 Coeff-Com: -0.576D-02-0.199D-02 0.259D-01-0.108D+00-0.213D-01 0.111D+01
 Coeff:     -0.576D-02-0.199D-02 0.259D-01-0.108D+00-0.213D-01 0.111D+01
 Gap=     0.516 Goal=   None    Shift=    0.000
 RMSDP=1.63D-08 MaxDP=3.62D-07 DE=-1.24D-10 OVMax= 2.28D-06

 Cycle  13  Pass 1  IDiag  1:
 RMSU=  3.48D-09    CP:  1.00D+00  1.83D+00  1.98D+00  1.92D+00  1.57D+00
                    CP:  1.23D+00
 E= -2902.87783826710     Delta-E=       -0.000000000022 Rises=F Damp=F
 DIIS: error= 2.71D-08 at cycle   7 NSaved=   7.
 NSaved= 7 IEnMin= 7 EnMin= -2902.87783826710     IErMin= 7 ErrMin= 2.71D-08
 ErrMax= 2.71D-08 EMaxC= 1.00D-01 BMatC= 3.04D-13 BMatP= 3.42D-12
 IDIUse=1 WtCom= 1.00D+00 WtEn= 0.00D+00
 Coeff-Com: -0.116D-01-0.739D-02 0.442D-01-0.153D-01-0.136D+00 0.658D-01
 Coeff-Com:  0.106D+01
 Coeff:     -0.116D-01-0.739D-02 0.442D-01-0.153D-01-0.136D+00 0.658D-01
 Coeff:      0.106D+01
 Gap=     0.516 Goal=   None    Shift=    0.000
 RMSDP=4.37D-09 MaxDP=9.43D-08 DE=-2.18D-11 OVMax= 5.07D-07

 SCF Done:  E(RHF) =  -2902.87783827     A.U. after   13 cycles
             Convg  =    0.4370D-08             -V/T =  2.0001
 KE= 2.902642491319D+03 PE=-7.240050476268D+03 EE= 1.284571379443D+03
 Leave Link  502 at Sat Nov 23 12:48:02 2019, MaxMem=  268435456 cpu:     103.2
 (Enter /home/matheus/.gaussian/g09/l801.exe)
 Windowed orbitals will be sorted by symmetry type.
 ExpMin= 2.53D-02 ExpMax= 1.17D+07 ExpMxC= 1.33D+04 IAcc=3 IRadAn=         5 AccDes= 0.00D+00
 HarFok:  IExCor=  205 AccDes= 0.00D+00 IRadAn=         5 IDoV=-2
 ScaDFX=  1.000000  1.000000  1.000000  1.000000
 DSYEVD returned Info=          93 IAlg= 4 N=    46 NDim=    46 NE2=     4547561 trying DSYEV.
 DSYEVD returned Info=         119 IAlg= 4 N=    59 NDim=    59 NE2=     4547561 trying DSYEV.
 Largest valence mixing into a core orbital is  1.44D-04
 Largest core mixing into a valence orbital is  2.61D-05
 Range of M.O.s used for correlation:    12   197
 NBasis=   197 NAE=    27 NBE=    27 NFC=    11 NFV=     0
 NROrb=    186 NOA=    16 NOB=    16 NVA=   170 NVB=   170

 **** Warning!!: The largest alpha MO coefficient is  0.15271859D+02

 Leave Link  801 at Sat Nov 23 12:48:02 2019, MaxMem=  268435456 cpu:       0.3
 (Enter /home/matheus/.gaussian/g09/l804.exe)
 Closed-shell transformation, MDV=   268435456 ITran=4 ISComp=1.
 Semi-Direct transformation.
 ModeAB=           2 MOrb=            16 LenV=     267325270
 LASXX=     48528660 LTotXX=    48528660 LenRXX=    48528660
 LTotAB=    49298776 MaxLAS=    78372960 LenRXY=    78372960
 NonZer=    97057320 LenScr=   146313216 LnRSAI=           0
 LnScr1=           0 LExtra=           0 Total=    273214836
 MaxDsk=          -1 SrtSym=           F ITran=            4
 DoSDTr:  NPSUse=  2
 JobTyp=0 Pass  1:  I=   1 to  16.
 (rs|ai) integrals will be sorted in core.
 Complete sort for first half transformation.
 First half transformation complete.
 Begin second half transformation for I=  10.
 Begin second half transformation for I=  10.
 Complete sort for second half transformation.
 Second half transformation complete.
 SymMOI:  orbitals are not symmetric.
 Spin components of T(2) and E(2):
     alpha-alpha T2 =       0.2607634140D-01 E2=     -0.1001642774D+00
     alpha-beta  T2 =       0.1422640084D+00 E2=     -0.5572774693D+00
     beta-beta   T2 =       0.2607634140D-01 E2=     -0.1001642774D+00
 ANorm=    0.1092893724D+01
 E2 =    -0.7576060240D+00 EUMP2 =    -0.29036354442911D+04
 Leave Link  804 at Sat Nov 23 12:48:28 2019, MaxMem=  268435456 cpu:      49.2
 (Enter /home/matheus/.gaussian/g09/l913.exe)
 CIDS:  MDV=   268435456.
 Frozen-core window:  NFC=  11 NFV=   0.
 IFCWin=0 IBDFC=1 NFBD=     0     0 NFCmp=     0     0 NFFFC=     0     0
 Using DD3R+UMP44R for 1st iteration, S=T.
 Using DD4RQ for 2nd and later iterations.
 Would need an additional       431206676 words for in-memory AO integral storage.
 MP4(SDTQ)
 =========
 DD1Dir will call FoFDir   1 times, MxPair=       272
 NAB=   136 NAA=     0 NBB=     0 NumPrc=  2.
 Integrals replicated using symmetry in FoFDir.
 MinBra= 0 MaxBra= 3 Meth= 1.
 IRaf=       0 NMat= 272 IRICut=     340 DoRegI=T DoRafI=T ISym2E= 2 JSym2E=2.
 MP4(D)= -0.14967234D-01
 MP4(S)= -0.65303366D-02
 MP4(R+Q)=  0.15510575D-01
 T4(AAA)= -0.10556120D-02
 T4(AAB)= -0.14276326D-01
 Time for triples=     1363.83 seconds.
 MP4(T)=   -0.30663876D-01
 E3=       -0.11131591D-01        EUMP3=      -0.29036465759D+04
 E4(DQ)=    0.54334053D-03        UMP4(DQ)=   -0.29036460325D+04
 E4(SDQ)=  -0.59869961D-02        UMP4(SDQ)=  -0.29036525629D+04
 E4(SDTQ)= -0.36650872D-01        UMP4(SDTQ)= -0.29036832268D+04
 VARIATIONAL ENERGIES WITH THE FIRST-ORDER WAVEFUNCTION:
 E(VAR1)=  -0.29035214475D+04     E(CISD,4)=  -0.29035207822D+04
 Largest amplitude= 3.44D-02
 Leave Link  913 at Sat Nov 23 13:00:55 2019, MaxMem=  268435456 cpu:    1458.4
 (Enter /home/matheus/.gaussian/g09/l601.exe)
 Copying SCF densities to generalized density rwf, IOpCl= 0 IROHF=0.

 **********************************************************************

            Population analysis using the SCF density.

 **********************************************************************

 Orbital symmetries:
       Occupied  (A) (A) (A) (A) (A) (A) (A) (A) (A) (A) (A) (A)
                 (A) (A) (A) (A) (A) (A) (A) (A) (A) (A) (A) (A)
                 (A) (A) (A)
       Virtual   (A) (A) (A) (A) (A) (A) (A) (A) (A) (A) (A) (A)
                 (A) (A) (A) (A) (A) (A) (A) (A) (A) (A) (A) (A)
                 (A) (A) (A) (A) (A) (A) (A) (A) (A) (A) (A) (A)
                 (A) (A) (A) (A) (A) (A) (A) (A) (A) (A) (A) (A)
                 (A) (A) (A) (A) (A) (A) (A) (A) (A) (A) (A) (A)
                 (A) (A) (A) (A) (A) (A) (A) (A) (A) (A) (A) (A)
                 (A) (A) (A) (A) (A) (A) (A) (A) (A) (A) (A) (A)
                 (A) (A) (A) (A) (A) (A) (A) (A) (A) (A) (A) (A)
                 (A) (A) (A) (A) (A) (A) (A) (A) (A) (A) (A) (A)
                 (A) (A) (A) (A) (A) (A) (A) (A) (A) (A) (A) (A)
                 (A) (A) (A) (A) (A) (A) (A) (A) (A) (A) (A) (A)
                 (A) (A) (A) (A) (A) (A) (A) (A) (A) (A) (A) (A)
                 (A) (A) (A) (A) (A) (A) (A) (A) (A) (A) (A) (A)
                 (A) (A) (A) (A) (A) (A) (A) (A) (A) (A) (A) (A)
                 (A) (A)
 The electronic state is 1-A.
 Alpha  occ. eigenvalues -- -520.18534 -69.92290 -63.02947 -63.02946 -63.02942
 Alpha  occ. eigenvalues --  -20.63096 -20.62815 -10.86956  -8.35175  -8.35157
 Alpha  occ. eigenvalues --   -8.35139  -3.84556  -3.84552  -3.84529  -3.84511
 Alpha  occ. eigenvalues --   -3.84506  -1.46854  -1.21773  -1.17575  -0.75227
 Alpha  occ. eigenvalues --   -0.67478  -0.60172  -0.55224  -0.54483  -0.53905
 Alpha  occ. eigenvalues --   -0.51778  -0.48142
 Alpha virt. eigenvalues --    0.03464   0.04539   0.08706   0.09688   0.11616
 Alpha virt. eigenvalues --    0.12808   0.14404   0.15664   0.18042   0.18857
 Alpha virt. eigenvalues --    0.19092   0.21144   0.22673   0.25874   0.26681
 Alpha virt. eigenvalues --    0.27767   0.28160   0.31238   0.33696   0.34354
 Alpha virt. eigenvalues --    0.35692   0.37469   0.39723   0.41468   0.42128
 Alpha virt. eigenvalues --    0.44065   0.46583   0.51350   0.57057   0.58925
 Alpha virt. eigenvalues --    0.59843   0.65239   0.66333   0.68874   0.73125
 Alpha virt. eigenvalues --    0.76214   0.77388   0.78907   0.81206   0.82321
 Alpha virt. eigenvalues --    0.82875   0.83826   0.86262   0.86647   0.89271
 Alpha virt. eigenvalues --    0.90281   0.91982   0.93704   0.95348   0.97815
 Alpha virt. eigenvalues --    0.99030   1.00215   1.01560   1.02554   1.04669
 Alpha virt. eigenvalues --    1.05108   1.10645   1.13917   1.15130   1.17444
 Alpha virt. eigenvalues --    1.18243   1.21787   1.23509   1.30219   1.32529
 Alpha virt. eigenvalues --    1.33711   1.40798   1.45424   1.47224   1.50218
 Alpha virt. eigenvalues --    1.51714   1.57052   1.59496   1.63815   1.69419
 Alpha virt. eigenvalues --    1.79321   1.82899   1.96606   2.06815   2.08375
 Alpha virt. eigenvalues --    2.16022   2.17174   2.21204   2.26436   2.32827
 Alpha virt. eigenvalues --    2.33779   2.36637   2.37433   2.41662   2.43451
 Alpha virt. eigenvalues --    2.44267   2.46028   2.48385   2.52430   2.52736
 Alpha virt. eigenvalues --    2.55013   2.58235   2.63825   2.65455   2.67499
 Alpha virt. eigenvalues --    2.68347   2.69549   2.70161   2.75495   2.77018
 Alpha virt. eigenvalues --    2.78339   2.78607   2.82906   2.88964   2.90440
 Alpha virt. eigenvalues --    2.91259   2.93099   2.96713   3.03967   3.07795
 Alpha virt. eigenvalues --    3.13830   3.21926   3.30253   3.31816   3.82689
 Alpha virt. eigenvalues --    3.90107   4.13533   4.21098   4.25025   4.28508
 Alpha virt. eigenvalues --    4.32839   4.40427   4.44903   4.48146   4.51477
 Alpha virt. eigenvalues --    4.55669   4.75952   4.83115   4.87154   4.96973
 Alpha virt. eigenvalues --    5.19253   5.23554   5.25256   5.40677   5.43355
 Alpha virt. eigenvalues --    5.46737   5.79666   6.18492   6.36613   6.47757
 Alpha virt. eigenvalues --    6.53956   6.59631   6.67080   6.76829   6.84879
 Alpha virt. eigenvalues --    6.98123   7.16350   7.16937   7.20636   7.22174
 Alpha virt. eigenvalues --    7.25349   7.29062   7.32684   7.34099   7.39167
 Alpha virt. eigenvalues --    7.47564   7.53030   7.61737   7.85665   7.94194
 Alpha virt. eigenvalues --    8.21148   8.49934   8.54398  14.75438  15.32365
          Condensed to atoms (all electrons):
              1          2          3          4          5
     1  O    8.131049  -0.081411   0.238343  -0.005196  -0.020144
     2  O   -0.081411   8.148273   0.007199   0.237823  -0.015724
     3  H    0.238343   0.007199   0.492390  -0.001731  -0.002298
     4  H   -0.005196   0.237823  -0.001731   0.493567  -0.004761
     5  Kr  -0.020144  -0.015724  -0.002298  -0.004761  36.030518
 Mulliken atomic charges:
              1
     1  O   -0.262641
     2  O   -0.296161
     3  H    0.266096
     4  H    0.280298
     5  Kr   0.012409
 Sum of Mulliken atomic charges =   0.00000
 Mulliken charges with hydrogens summed into heavy atoms:
              1
     1  O    0.003454
     2  O   -0.015863
     5  Kr   0.012409
 Sum of Mulliken charges with hydrogens summed into heavy atoms =   0.00000
 Electronic spatial extent (au):  <R**2>=            481.2217
 Charge=              0.0000 electrons
 Dipole moment (field-independent basis, Debye):
    X=             -2.4226    Y=             -0.3184    Z=              1.4310  Tot=              2.8316
 Quadrupole moment (field-independent basis, Debye-Ang):
   XX=            -37.0082   YY=            -27.8349   ZZ=            -28.9936
   XY=             -1.5663   XZ=              2.5742   YZ=             -1.8113
 Traceless Quadrupole moment (field-independent basis, Debye-Ang):
   XX=             -5.7293   YY=              3.4440   ZZ=              2.2853
   XY=             -1.5663   XZ=              2.5742   YZ=             -1.8113
 Octapole moment (field-independent basis, Debye-Ang**2):
  XXX=            -39.7735  YYY=             -0.8874  ZZZ=              1.0680  XYY=             -5.7757
  XXY=             -4.3983  XXZ=              3.8356  XZZ=             -5.5775  YZZ=             -1.6744
  YYZ=              2.2450  XYZ=             -3.2199
 Hexadecapole moment (field-independent basis, Debye-Ang**3):
 XXXX=           -459.7372 YYYY=            -62.0946 ZZZZ=            -28.8698 XXXY=             -7.9583
 XXXZ=              6.8351 YYYX=             -2.9861 YYYZ=             -2.6769 ZZZX=              2.3322
 ZZZY=             -1.8848 XXYY=            -82.7606 XXZZ=            -72.1855 YYZZ=            -15.6061
 XXYZ=             -5.8673 YYXZ=              3.9084 ZZXY=             -2.8665
 N-N= 1.499587672391D+02 E-N=-7.240050477052D+03  KE= 2.902642491319D+03
 Leave Link  601 at Sat Nov 23 13:00:56 2019, MaxMem=  268435456 cpu:       0.2
 (Enter /home/matheus/.gaussian/g09/l108.exe)
 Variable Step   Value    
 -------- ---- -----------
     1       1    5.858151
 Leave Link  108 at Sat Nov 23 13:00:56 2019, MaxMem=  268435456 cpu:       0.1
 (Enter /home/matheus/.gaussian/g09/l202.exe)
 ---------------------------------------------------------------------------------------------------
                            Z-MATRIX (ANGSTROMS AND DEGREES)
   CD    Cent   Atom    N1       Length/X        N2       Alpha/Y        N3        Beta/Z          J
 ---------------------------------------------------------------------------------------------------
      1      1  O        0   0.000000          0.000000          0.725000
      2      2  O        0   0.000000          0.000000         -0.725000
      3      3  H        0   0.863315          0.314221          1.023510
      4      4  H        0   0.000000          0.918721         -1.023510
      5      5  Kr       0   0.000000          3.100000          0.000000
 ---------------------------------------------------------------------------------------------------
                         Z-Matrix orientation:                         
 ---------------------------------------------------------------------
 Center     Atomic      Atomic             Coordinates (Angstroms)
 Number     Number       Type             X           Y           Z
 ---------------------------------------------------------------------
      1          8           0        0.000000    0.000000    0.725000
      2          8           0        0.000000    0.000000   -0.725000
      3          1           0        0.863315    0.314221    1.023510
      4          1           0        0.000000    0.918721   -1.023510
      5         36           0        0.000000    3.100000    0.000000
 ---------------------------------------------------------------------
                    Distance matrix (angstroms):
                    1          2          3          4          5
     1  O    0.000000
     2  O    1.450000   0.000000
     3  H    0.966000   1.975180   0.000000
     4  H    1.975180   0.966000   2.302396   0.000000
     5  Kr   3.183650   3.183650   3.090866   2.409472   0.000000
 Stoichiometry    H2KrO2
 Framework group  C1[X(H2KrO2)]
 Deg. of freedom     9
 Full point group                 C1      NOp   1
 RotChk:  IX=0 Diff= 8.99D-04
 Largest Abelian subgroup         C1      NOp   1
 Largest concise Abelian subgroup C1      NOp   1
                         Standard orientation:                         
 ---------------------------------------------------------------------
 Center     Atomic      Atomic             Coordinates (Angstroms)
 Number     Number       Type             X           Y           Z
 ---------------------------------------------------------------------
      1          8           0        2.093577   -0.705128   -0.107779
      2          8           0        2.084488    0.739178    0.020271
      3          1           0        1.793287   -1.080973    0.729910
      4          1           0        1.164004    1.029651    0.058869
      5         36           0       -1.010606   -0.006141   -0.002464
 ---------------------------------------------------------------------
 Rotational constants (GHZ):     25.7099161      2.2097041      2.0461796
 Leave Link  202 at Sat Nov 23 13:00:56 2019, MaxMem=  268435456 cpu:       0.0
 (Enter /home/matheus/.gaussian/g09/l301.exe)
 Standard basis: Aug-CC-pVTZ (5D, 7F)
 Ernie: Thresh=  0.10000D-02 Tol=  0.10000D-05 Strict=F.
 Ernie:  38 primitive shells out of 205 were deleted.
 There are   197 symmetry adapted basis functions of A   symmetry.
 Integral buffers will be    131072 words long.
 Raffenetti 1 integral format.
 Two-electron integral symmetry is turned on.
   197 basis functions,   415 primitive gaussians,   229 cartesian basis functions
    27 alpha electrons       27 beta electrons
       nuclear repulsion energy       146.4490644297 Hartrees.
 IExCor=    0 DFT=F Ex=HF Corr=None ExCW=0 ScaHFX=  1.000000
 ScaDFX=  1.000000  1.000000  1.000000  1.000000 ScalE2=  1.000000  1.000000
 IRadAn=      5 IRanWt=     -1 IRanGd=            0 ICorTp=0
 NAtoms=    5 NActive=    5 NUniq=    5 SFac= 1.00D+00 NAtFMM=   60 NAOKFM=F Big=F
 Leave Link  301 at Sat Nov 23 13:00:56 2019, MaxMem=  268435456 cpu:       0.1
 (Enter /home/matheus/.gaussian/g09/l302.exe)
 NPDir=0 NMtPBC=     1 NCelOv=     1 NCel=       1 NClECP=     1 NCelD=      1
         NCelK=      1 NCelE2=     1 NClLst=     1 CellRange=     0.0.
 One-electron integrals computed using PRISM.
 NBasis=   197 RedAO= T  NBF=   197
 NBsUse=   197 1.00D-06 NBFU=   197
 Leave Link  302 at Sat Nov 23 13:00:56 2019, MaxMem=  268435456 cpu:       0.2
 (Enter /home/matheus/.gaussian/g09/l303.exe)
 DipDrv:  MaxL=1.
 Leave Link  303 at Sat Nov 23 13:00:56 2019, MaxMem=  268435456 cpu:       0.1
 (Enter /home/matheus/.gaussian/g09/l401.exe)
 Initial guess read from the read-write file.
 B after Tr=     0.000000    0.000000    0.000000
         Rot=    1.000000    0.000000    0.000000    0.000000 Ang=   0.00 deg.
 Guess basis will be translated and rotated to current coordinates.
 Initial guess orbital symmetries:
       Occupied  (A) (A) (A) (A) (A) (A) (A) (A) (A) (A) (A) (A)
                 (A) (A) (A) (A) (A) (A) (A) (A) (A) (A) (A) (A)
                 (A) (A) (A)
       Virtual   (A) (A) (A) (A) (A) (A) (A) (A) (A) (A) (A) (A)
                 (A) (A) (A) (A) (A) (A) (A) (A) (A) (A) (A) (A)
                 (A) (A) (A) (A) (A) (A) (A) (A) (A) (A) (A) (A)
                 (A) (A) (A) (A) (A) (A) (A) (A) (A) (A) (A) (A)
                 (A) (A) (A) (A) (A) (A) (A) (A) (A) (A) (A) (A)
                 (A) (A) (A) (A) (A) (A) (A) (A) (A) (A) (A) (A)
                 (A) (A) (A) (A) (A) (A) (A) (A) (A) (A) (A) (A)
                 (A) (A) (A) (A) (A) (A) (A) (A) (A) (A) (A) (A)
                 (A) (A) (A) (A) (A) (A) (A) (A) (A) (A) (A) (A)
                 (A) (A) (A) (A) (A) (A) (A) (A) (A) (A) (A) (A)
                 (A) (A) (A) (A) (A) (A) (A) (A) (A) (A) (A) (A)
                 (A) (A) (A) (A) (A) (A) (A) (A) (A) (A) (A) (A)
                 (A) (A) (A) (A) (A) (A) (A) (A) (A) (A) (A) (A)
                 (A) (A) (A) (A) (A) (A) (A) (A) (A) (A) (A) (A)
                 (A) (A)
 The electronic state of the initial guess is 1-A.
 Generating alternative initial guess.
 Harris functional with IExCor=  205 diagonalized for initial guess.
 ExpMin= 2.53D-02 ExpMax= 1.17D+07 ExpMxC= 1.33D+04 IAcc=3 IRadAn=         5 AccDes= 0.00D+00
 HarFok:  IExCor=  205 AccDes= 0.00D+00 IRadAn=         5 IDoV= 1
 ScaDFX=  1.000000  1.000000  1.000000  1.000000
 FoFCou: FMM=F IPFlag=           0 FMFlag=      100000 FMFlg1=           0
         NFxFlg=           0 DoJE=T BraDBF=F KetDBF=T FulRan=T
         Omega=  0.000000  0.000000  1.000000  0.000000  0.000000 ICntrl=     500 IOpCl=  0
         NMat0=    1 NMatS0=    1 NMatT0=    0 NMatD0=    1 NMtDS0=    0 NMtDT0=    0
         I1Cent=           4 NGrid=           0.
 Petite list used in FoFCou.
 Harris En= -2901.93264436108    
 Leave Link  401 at Sat Nov 23 13:00:57 2019, MaxMem=  268435456 cpu:       1.4
 (Enter /home/matheus/.gaussian/g09/l502.exe)
 Closed shell SCF:
 Requested convergence on RMS density matrix=1.00D-08 within 128 cycles.
 Requested convergence on MAX density matrix=1.00D-06.
 Requested convergence on             energy=1.00D-06.
 No special actions if energy rises.
 Using DIIS extrapolation, IDIIS=  1040.
 Integral symmetry usage will be decided dynamically.
 IEnd=      178489 IEndB=      178489 NGot=   268435456 MDV=   268326278
 LenX=   268326278 LenY=   268273396
 Fock matrices will be formed incrementally for  20 cycles.

 Cycle   1  Pass 0  IDiag  1:
 FoFCou: FMM=F IPFlag=           0 FMFlag=      100000 FMFlg1=           0
         NFxFlg=           0 DoJE=F BraDBF=F KetDBF=F FulRan=T
         Omega=  0.000000  0.000000  1.000000  0.000000  0.000000 ICntrl=       0 IOpCl=  0
         NMat0=    1 NMatS0=    1 NMatT0=    0 NMatD0=    1 NMtDS0=    0 NMtDT0=    0
         I1Cent=           0 NGrid=           0.
 Symmetry not used in FoFCou.
 E= -2902.88043212689    
 DIIS: error= 5.11D-04 at cycle   1 NSaved=   1.
 NSaved= 1 IEnMin= 1 EnMin= -2902.88043212689     IErMin= 1 ErrMin= 5.11D-04
 ErrMax= 5.11D-04 EMaxC= 1.00D-01 BMatC= 6.87D-05 BMatP= 6.87D-05
 IDIUse=3 WtCom= 9.95D-01 WtEn= 5.11D-03
 Coeff-Com:  0.100D+01
 Coeff-En:   0.100D+01
 Coeff:      0.100D+01
 Gap=     0.518 Goal=   None    Shift=    0.000
 RMSDP=7.05D-05 MaxDP=3.08D-03              OVMax= 2.72D-03

 Cycle   2  Pass 0  IDiag  1:
 RMSU=  4.99D-05    CP:  1.00D+00
 E= -2902.88051205409     Delta-E=       -0.000079927197 Rises=F Damp=F
 DIIS: error= 8.61D-05 at cycle   2 NSaved=   2.
 NSaved= 2 IEnMin= 2 EnMin= -2902.88051205409     IErMin= 2 ErrMin= 8.61D-05
 ErrMax= 8.61D-05 EMaxC= 1.00D-01 BMatC= 2.39D-06 BMatP= 6.87D-05
 IDIUse=1 WtCom= 1.00D+00 WtEn= 0.00D+00
 Coeff-Com: -0.708D-01 0.107D+01
 Coeff:     -0.708D-01 0.107D+01
 Gap=     0.516 Goal=   None    Shift=    0.000
 RMSDP=1.25D-05 MaxDP=4.77D-04 DE=-7.99D-05 OVMax= 6.60D-04

 Cycle   3  Pass 0  IDiag  1:
 RMSU=  5.99D-06    CP:  1.00D+00  1.13D+00
 E= -2902.88051535430     Delta-E=       -0.000003300204 Rises=F Damp=F
 DIIS: error= 3.66D-05 at cycle   3 NSaved=   3.
 NSaved= 3 IEnMin= 3 EnMin= -2902.88051535430     IErMin= 3 ErrMin= 3.66D-05
 ErrMax= 3.66D-05 EMaxC= 1.00D-01 BMatC= 4.06D-07 BMatP= 2.39D-06
 IDIUse=1 WtCom= 1.00D+00 WtEn= 0.00D+00
 Coeff-Com: -0.440D-01 0.273D+00 0.771D+00
 Coeff:     -0.440D-01 0.273D+00 0.771D+00
 Gap=     0.517 Goal=   None    Shift=    0.000
 RMSDP=2.45D-06 MaxDP=7.06D-05 DE=-3.30D-06 OVMax= 1.61D-04

 Initial convergence to 1.0D-05 achieved.  Increase integral accuracy.
 Cycle   4  Pass 1  IDiag  1:
 E= -2902.88051571761     Delta-E=       -0.000000363315 Rises=F Damp=F
 DIIS: error= 1.12D-05 at cycle   1 NSaved=   1.
 NSaved= 1 IEnMin= 1 EnMin= -2902.88051571761     IErMin= 1 ErrMin= 1.12D-05
 ErrMax= 1.12D-05 EMaxC= 1.00D-01 BMatC= 3.31D-08 BMatP= 3.31D-08
 IDIUse=1 WtCom= 1.00D+00 WtEn= 0.00D+00
 Coeff-Com:  0.100D+01
 Coeff:      0.100D+01
 Gap=     0.517 Goal=   None    Shift=    0.000
 RMSDP=2.45D-06 MaxDP=7.06D-05 DE=-3.63D-07 OVMax= 6.63D-05

 Cycle   5  Pass 1  IDiag  1:
 RMSU=  7.98D-07    CP:  1.00D+00
 E= -2902.88051576257     Delta-E=       -0.000000044957 Rises=F Damp=F
 DIIS: error= 7.26D-06 at cycle   2 NSaved=   2.
 NSaved= 2 IEnMin= 2 EnMin= -2902.88051576257     IErMin= 2 ErrMin= 7.26D-06
 ErrMax= 7.26D-06 EMaxC= 1.00D-01 BMatC= 1.22D-08 BMatP= 3.31D-08
 IDIUse=1 WtCom= 1.00D+00 WtEn= 0.00D+00
 Coeff-Com:  0.314D+00 0.686D+00
 Coeff:      0.314D+00 0.686D+00
 Gap=     0.517 Goal=   None    Shift=    0.000
 RMSDP=3.30D-07 MaxDP=1.23D-05 DE=-4.50D-08 OVMax= 3.73D-05

 Cycle   6  Pass 1  IDiag  1:
 RMSU=  2.25D-07    CP:  1.00D+00  1.08D+00
 E= -2902.88051577449     Delta-E=       -0.000000011926 Rises=F Damp=F
 DIIS: error= 2.53D-06 at cycle   3 NSaved=   3.
 NSaved= 3 IEnMin= 3 EnMin= -2902.88051577449     IErMin= 3 ErrMin= 2.53D-06
 ErrMax= 2.53D-06 EMaxC= 1.00D-01 BMatC= 1.96D-09 BMatP= 1.22D-08
 IDIUse=1 WtCom= 1.00D+00 WtEn= 0.00D+00
 Coeff-Com: -0.314D+00-0.829D-01 0.140D+01
 Coeff:     -0.314D+00-0.829D-01 0.140D+01
 Gap=     0.517 Goal=   None    Shift=    0.000
 RMSDP=4.16D-07 MaxDP=1.15D-05 DE=-1.19D-08 OVMax= 2.54D-05

 Cycle   7  Pass 1  IDiag  1:
 RMSU=  1.02D-07    CP:  1.00D+00  1.40D+00  1.37D+00
 E= -2902.88051577928     Delta-E=       -0.000000004787 Rises=F Damp=F
 DIIS: error= 5.21D-07 at cycle   4 NSaved=   4.
 NSaved= 4 IEnMin= 4 EnMin= -2902.88051577928     IErMin= 4 ErrMin= 5.21D-07
 ErrMax= 5.21D-07 EMaxC= 1.00D-01 BMatC= 9.65D-11 BMatP= 1.96D-09
 IDIUse=1 WtCom= 1.00D+00 WtEn= 0.00D+00
 Coeff-Com: -0.873D-01-0.445D-01 0.302D+00 0.830D+00
 Coeff:     -0.873D-01-0.445D-01 0.302D+00 0.830D+00
 Gap=     0.517 Goal=   None    Shift=    0.000
 RMSDP=5.89D-08 MaxDP=1.85D-06 DE=-4.79D-09 OVMax= 4.63D-06

 Cycle   8  Pass 1  IDiag  1:
 RMSU=  2.69D-08    CP:  1.00D+00  1.42D+00  1.41D+00  1.27D+00
 E= -2902.88051577944     Delta-E=       -0.000000000157 Rises=F Damp=F
 DIIS: error= 1.79D-07 at cycle   5 NSaved=   5.
 NSaved= 5 IEnMin= 5 EnMin= -2902.88051577944     IErMin= 5 ErrMin= 1.79D-07
 ErrMax= 1.79D-07 EMaxC= 1.00D-01 BMatC= 1.38D-11 BMatP= 9.65D-11
 IDIUse=1 WtCom= 1.00D+00 WtEn= 0.00D+00
 Coeff-Com:  0.618D-01 0.271D-01-0.279D+00-0.817D-01 0.127D+01
 Coeff:      0.618D-01 0.271D-01-0.279D+00-0.817D-01 0.127D+01
 Gap=     0.517 Goal=   None    Shift=    0.000
 RMSDP=3.91D-08 MaxDP=9.33D-07 DE=-1.57D-10 OVMax= 2.42D-06

 Cycle   9  Pass 1  IDiag  1:
 RMSU=  8.62D-09    CP:  1.00D+00  1.42D+00  1.41D+00  1.51D+00  1.31D+00
 E= -2902.88051577946     Delta-E=       -0.000000000017 Rises=F Damp=F
 DIIS: error= 4.04D-08 at cycle   6 NSaved=   6.
 NSaved= 6 IEnMin= 6 EnMin= -2902.88051577946     IErMin= 6 ErrMin= 4.04D-08
 ErrMax= 4.04D-08 EMaxC= 1.00D-01 BMatC= 7.47D-13 BMatP= 1.38D-11
 IDIUse=1 WtCom= 1.00D+00 WtEn= 0.00D+00
 Coeff-Com:  0.474D-03 0.265D-02-0.143D-02-0.349D-01-0.775D-01 0.111D+01
 Coeff:      0.474D-03 0.265D-02-0.143D-02-0.349D-01-0.775D-01 0.111D+01
 Gap=     0.517 Goal=   None    Shift=    0.000
 RMSDP=6.47D-09 MaxDP=1.51D-07 DE=-1.73D-11 OVMax= 6.01D-07

 SCF Done:  E(RHF) =  -2902.88051578     A.U. after    9 cycles
             Convg  =    0.6471D-08             -V/T =  2.0001
 KE= 2.902623268817D+03 PE=-7.233029950518D+03 EE= 1.281077101492D+03
 Leave Link  502 at Sat Nov 23 13:01:33 2019, MaxMem=  268435456 cpu:      71.6
 (Enter /home/matheus/.gaussian/g09/l801.exe)
 Windowed orbitals will be sorted by symmetry type.
 ExpMin= 2.53D-02 ExpMax= 1.17D+07 ExpMxC= 1.33D+04 IAcc=3 IRadAn=         5 AccDes= 0.00D+00
 HarFok:  IExCor=  205 AccDes= 0.00D+00 IRadAn=         5 IDoV=-2
 ScaDFX=  1.000000  1.000000  1.000000  1.000000
 Largest valence mixing into a core orbital is  1.45D-04
 Largest core mixing into a valence orbital is  2.62D-05
 Range of M.O.s used for correlation:    12   197
 NBasis=   197 NAE=    27 NBE=    27 NFC=    11 NFV=     0
 NROrb=    186 NOA=    16 NOB=    16 NVA=   170 NVB=   170

 **** Warning!!: The largest alpha MO coefficient is  0.16133789D+02

 Leave Link  801 at Sat Nov 23 13:01:34 2019, MaxMem=  268435456 cpu:       0.3
 (Enter /home/matheus/.gaussian/g09/l804.exe)
 Closed-shell transformation, MDV=   268435456 ITran=4 ISComp=1.
 Semi-Direct transformation.
 ModeAB=           2 MOrb=            16 LenV=     267326596
 LASXX=     48528660 LTotXX=    48528660 LenRXX=    48528660
 LTotAB=    49298776 MaxLAS=    78372960 LenRXY=    78372960
 NonZer=    97057320 LenScr=   146313216 LnRSAI=           0
 LnScr1=           0 LExtra=           0 Total=    273214836
 MaxDsk=          -1 SrtSym=           F ITran=            4
 DoSDTr:  NPSUse=  2
 JobTyp=0 Pass  1:  I=   1 to  16.
 (rs|ai) integrals will be sorted in core.
 Complete sort for first half transformation.
 First half transformation complete.
 Begin second half transformation for I=  10.
 Begin second half transformation for I=  10.
 Complete sort for second half transformation.
 Second half transformation complete.
 SymMOI:  orbitals are not symmetric.
 Spin components of T(2) and E(2):
     alpha-alpha T2 =       0.2600002102D-01 E2=     -0.9989666032D-01
     alpha-beta  T2 =       0.1421678183D+00 E2=     -0.5566652412D+00
     beta-beta   T2 =       0.2600002102D-01 E2=     -0.9989666032D-01
 ANorm=    0.1092779877D+01
 E2 =    -0.7564585618D+00 EUMP2 =    -0.29036369743412D+04
 Leave Link  804 at Sat Nov 23 13:02:00 2019, MaxMem=  268435456 cpu:      50.3
 (Enter /home/matheus/.gaussian/g09/l913.exe)
 CIDS:  MDV=   268435456.
 Frozen-core window:  NFC=  11 NFV=   0.
 IFCWin=0 IBDFC=1 NFBD=     0     0 NFCmp=     0     0 NFFFC=     0     0
 Using DD3R+UMP44R for 1st iteration, S=T.
 Using DD4RQ for 2nd and later iterations.
 Would need an additional       431206676 words for in-memory AO integral storage.
 MP4(SDTQ)
 =========
 DD1Dir will call FoFDir   1 times, MxPair=       272
 NAB=   136 NAA=     0 NBB=     0 NumPrc=  2.
 Integrals replicated using symmetry in FoFDir.
 MinBra= 0 MaxBra= 3 Meth= 1.
 IRaf=       0 NMat= 272 IRICut=     340 DoRegI=T DoRafI=T ISym2E= 2 JSym2E=2.
 MP4(D)= -0.14967519D-01
 MP4(S)= -0.65000786D-02
 MP4(R+Q)=  0.15433165D-01
 T4(AAA)= -0.10451926D-02
 T4(AAB)= -0.14210410D-01
 Time for triples=     1325.92 seconds.
 MP4(T)=   -0.30511206D-01
 E3=       -0.11277359D-01        EUMP3=      -0.29036482517D+04
 E4(DQ)=    0.46564622D-03        UMP4(DQ)=   -0.29036477861D+04
 E4(SDQ)=  -0.60344324D-02        UMP4(SDQ)=  -0.29036542861D+04
 E4(SDTQ)= -0.36545639D-01        UMP4(SDTQ)= -0.29036847973D+04
 VARIATIONAL ENERGIES WITH THE FIRST-ORDER WAVEFUNCTION:
 E(VAR1)=  -0.29035234203D+04     E(CISD,4)=  -0.29035228394D+04
 Largest amplitude= 3.25D-02
 Leave Link  913 at Sat Nov 23 13:14:11 2019, MaxMem=  268435456 cpu:    1421.0
 (Enter /home/matheus/.gaussian/g09/l108.exe)
 Variable Step   Value    
 -------- ---- -----------
     1       2    6.047124
 Leave Link  108 at Sat Nov 23 13:14:12 2019, MaxMem=  268435456 cpu:       0.1
 (Enter /home/matheus/.gaussian/g09/l202.exe)
 ---------------------------------------------------------------------------------------------------
                            Z-MATRIX (ANGSTROMS AND DEGREES)
   CD    Cent   Atom    N1       Length/X        N2       Alpha/Y        N3        Beta/Z          J
 ---------------------------------------------------------------------------------------------------
      1      1  O        0   0.000000          0.000000          0.725000
      2      2  O        0   0.000000          0.000000         -0.725000
      3      3  H        0   0.863315          0.314221          1.023510
      4      4  H        0   0.000000          0.918721         -1.023510
      5      5  Kr       0   0.000000          3.200000          0.000000
 ---------------------------------------------------------------------------------------------------
                         Z-Matrix orientation:                         
 ---------------------------------------------------------------------
 Center     Atomic      Atomic             Coordinates (Angstroms)
 Number     Number       Type             X           Y           Z
 ---------------------------------------------------------------------
      1          8           0        0.000000    0.000000    0.725000
      2          8           0        0.000000    0.000000   -0.725000
      3          1           0        0.863315    0.314221    1.023510
      4          1           0        0.000000    0.918721   -1.023510
      5         36           0        0.000000    3.200000    0.000000
 ---------------------------------------------------------------------
                    Distance matrix (angstroms):
                    1          2          3          4          5
     1  O    0.000000
     2  O    1.450000   0.000000
     3  H    0.966000   1.975180   0.000000
     4  H    1.975180   0.966000   2.302396   0.000000
     5  Kr   3.281101   3.281101   3.181290   2.500362   0.000000
 Stoichiometry    H2KrO2
 Framework group  C1[X(H2KrO2)]
 Deg. of freedom     9
 Full point group                 C1      NOp   1
 RotChk:  IX=0 Diff= 8.23D-04
 Largest Abelian subgroup         C1      NOp   1
 Largest concise Abelian subgroup C1      NOp   1
                         Standard orientation:                         
 ---------------------------------------------------------------------
 Center     Atomic      Atomic             Coordinates (Angstroms)
 Number     Number       Type             X           Y           Z
 ---------------------------------------------------------------------
      1          8           0        2.159946   -0.705631   -0.107928
      2          8           0        2.151484    0.738676    0.020151
      3          1           0        1.859189   -1.081355    0.729647
      4          1           0        1.231121    1.029576    0.058434
      5         36           0       -1.043937   -0.005905   -0.002385
 ---------------------------------------------------------------------
 Rotational constants (GHZ):     25.7098945      2.0731187      1.9285215
 Leave Link  202 at Sat Nov 23 13:14:12 2019, MaxMem=  268435456 cpu:       0.0
 (Enter /home/matheus/.gaussian/g09/l301.exe)
 Standard basis: Aug-CC-pVTZ (5D, 7F)
 Ernie: Thresh=  0.10000D-02 Tol=  0.10000D-05 Strict=F.
 Ernie:  38 primitive shells out of 205 were deleted.
 There are   197 symmetry adapted basis functions of A   symmetry.
 Integral buffers will be    131072 words long.
 Raffenetti 1 integral format.
 Two-electron integral symmetry is turned on.
   197 basis functions,   415 primitive gaussians,   229 cartesian basis functions
    27 alpha electrons       27 beta electrons
       nuclear repulsion energy       143.1428763525 Hartrees.
 IExCor=    0 DFT=F Ex=HF Corr=None ExCW=0 ScaHFX=  1.000000
 ScaDFX=  1.000000  1.000000  1.000000  1.000000 ScalE2=  1.000000  1.000000
 IRadAn=      5 IRanWt=     -1 IRanGd=            0 ICorTp=0
 NAtoms=    5 NActive=    5 NUniq=    5 SFac= 1.00D+00 NAtFMM=   60 NAOKFM=F Big=F
 Leave Link  301 at Sat Nov 23 13:14:12 2019, MaxMem=  268435456 cpu:       0.1
 (Enter /home/matheus/.gaussian/g09/l302.exe)
 NPDir=0 NMtPBC=     1 NCelOv=     1 NCel=       1 NClECP=     1 NCelD=      1
         NCelK=      1 NCelE2=     1 NClLst=     1 CellRange=     0.0.
 One-electron integrals computed using PRISM.
 NBasis=   197 RedAO= T  NBF=   197
 NBsUse=   197 1.00D-06 NBFU=   197
 Leave Link  302 at Sat Nov 23 13:14:12 2019, MaxMem=  268435456 cpu:       0.2
 (Enter /home/matheus/.gaussian/g09/l303.exe)
 DipDrv:  MaxL=1.
 Leave Link  303 at Sat Nov 23 13:14:12 2019, MaxMem=  268435456 cpu:       0.2
 (Enter /home/matheus/.gaussian/g09/l401.exe)
 Initial guess read from the read-write file.
 B after Tr=     0.000000    0.000000    0.000000
         Rot=    1.000000    0.000000    0.000000    0.000000 Ang=   0.00 deg.
 Guess basis will be translated and rotated to current coordinates.
 Initial guess orbital symmetries:
       Occupied  (A) (A) (A) (A) (A) (A) (A) (A) (A) (A) (A) (A)
                 (A) (A) (A) (A) (A) (A) (A) (A) (A) (A) (A) (A)
                 (A) (A) (A)
       Virtual   (A) (A) (A) (A) (A) (A) (A) (A) (A) (A) (A) (A)
                 (A) (A) (A) (A) (A) (A) (A) (A) (A) (A) (A) (A)
                 (A) (A) (A) (A) (A) (A) (A) (A) (A) (A) (A) (A)
                 (A) (A) (A) (A) (A) (A) (A) (A) (A) (A) (A) (A)
                 (A) (A) (A) (A) (A) (A) (A) (A) (A) (A) (A) (A)
                 (A) (A) (A) (A) (A) (A) (A) (A) (A) (A) (A) (A)
                 (A) (A) (A) (A) (A) (A) (A) (A) (A) (A) (A) (A)
                 (A) (A) (A) (A) (A) (A) (A) (A) (A) (A) (A) (A)
                 (A) (A) (A) (A) (A) (A) (A) (A) (A) (A) (A) (A)
                 (A) (A) (A) (A) (A) (A) (A) (A) (A) (A) (A) (A)
                 (A) (A) (A) (A) (A) (A) (A) (A) (A) (A) (A) (A)
                 (A) (A) (A) (A) (A) (A) (A) (A) (A) (A) (A) (A)
                 (A) (A) (A) (A) (A) (A) (A) (A) (A) (A) (A) (A)
                 (A) (A) (A) (A) (A) (A) (A) (A) (A) (A) (A) (A)
                 (A) (A)
 The electronic state of the initial guess is 1-A.
 Generating alternative initial guess.
 Harris functional with IExCor=  205 diagonalized for initial guess.
 ExpMin= 2.53D-02 ExpMax= 1.17D+07 ExpMxC= 1.33D+04 IAcc=3 IRadAn=         5 AccDes= 0.00D+00
 HarFok:  IExCor=  205 AccDes= 0.00D+00 IRadAn=         5 IDoV= 1
 ScaDFX=  1.000000  1.000000  1.000000  1.000000
 FoFCou: FMM=F IPFlag=           0 FMFlag=      100000 FMFlg1=           0
         NFxFlg=           0 DoJE=T BraDBF=F KetDBF=T FulRan=T
         Omega=  0.000000  0.000000  1.000000  0.000000  0.000000 ICntrl=     500 IOpCl=  0
         NMat0=    1 NMatS0=    1 NMatT0=    0 NMatD0=    1 NMtDS0=    0 NMtDT0=    0
         I1Cent=           4 NGrid=           0.
 Petite list used in FoFCou.
 Harris En= -2901.93343570600    
 Leave Link  401 at Sat Nov 23 13:14:14 2019, MaxMem=  268435456 cpu:       1.8
 (Enter /home/matheus/.gaussian/g09/l502.exe)
 Closed shell SCF:
 Requested convergence on RMS density matrix=1.00D-08 within 128 cycles.
 Requested convergence on MAX density matrix=1.00D-06.
 Requested convergence on             energy=1.00D-06.
 No special actions if energy rises.
 Using DIIS extrapolation, IDIIS=  1040.
 Integral symmetry usage will be decided dynamically.
 IEnd=      178489 IEndB=      178489 NGot=   268435456 MDV=   268326278
 LenX=   268326278 LenY=   268273396
 Fock matrices will be formed incrementally for  20 cycles.

 Cycle   1  Pass 0  IDiag  1:
 FoFCou: FMM=F IPFlag=           0 FMFlag=      100000 FMFlg1=           0
         NFxFlg=           0 DoJE=F BraDBF=F KetDBF=F FulRan=T
         Omega=  0.000000  0.000000  1.000000  0.000000  0.000000 ICntrl=       0 IOpCl=  0
         NMat0=    1 NMatS0=    1 NMatT0=    0 NMatD0=    1 NMtDS0=    0 NMtDT0=    0
         I1Cent=           0 NGrid=           0.
 Symmetry not used in FoFCou.
 E= -2902.88236182892    
 DIIS: error= 4.32D-04 at cycle   1 NSaved=   1.
 NSaved= 1 IEnMin= 1 EnMin= -2902.88236182892     IErMin= 1 ErrMin= 4.32D-04
 ErrMax= 4.32D-04 EMaxC= 1.00D-01 BMatC= 5.11D-05 BMatP= 5.11D-05
 IDIUse=3 WtCom= 9.96D-01 WtEn= 4.32D-03
 Coeff-Com:  0.100D+01
 Coeff-En:   0.100D+01
 Coeff:      0.100D+01
 Gap=     0.518 Goal=   None    Shift=    0.000
 RMSDP=6.00D-05 MaxDP=2.15D-03              OVMax= 2.43D-03

 Cycle   2  Pass 0  IDiag  1:
 RMSU=  4.24D-05    CP:  1.00D+00
 E= -2902.88242158625     Delta-E=       -0.000059757331 Rises=F Damp=F
 DIIS: error= 7.20D-05 at cycle   2 NSaved=   2.
 NSaved= 2 IEnMin= 2 EnMin= -2902.88242158625     IErMin= 2 ErrMin= 7.20D-05
 ErrMax= 7.20D-05 EMaxC= 1.00D-01 BMatC= 1.61D-06 BMatP= 5.11D-05
 IDIUse=1 WtCom= 1.00D+00 WtEn= 0.00D+00
 Coeff-Com: -0.780D-01 0.108D+01
 Coeff:     -0.780D-01 0.108D+01
 Gap=     0.517 Goal=   None    Shift=    0.000
 RMSDP=1.06D-05 MaxDP=3.98D-04 DE=-5.98D-05 OVMax= 5.42D-04

 Cycle   3  Pass 0  IDiag  1:
 RMSU=  4.99D-06    CP:  1.00D+00  1.13D+00
 E= -2902.88242395382     Delta-E=       -0.000002367569 Rises=F Damp=F
 DIIS: error= 2.87D-05 at cycle   3 NSaved=   3.
 NSaved= 3 IEnMin= 3 EnMin= -2902.88242395382     IErMin= 3 ErrMin= 2.87D-05
 ErrMax= 2.87D-05 EMaxC= 1.00D-01 BMatC= 2.46D-07 BMatP= 1.61D-06
 IDIUse=1 WtCom= 1.00D+00 WtEn= 0.00D+00
 Coeff-Com: -0.408D-01 0.258D+00 0.782D+00
 Coeff:     -0.408D-01 0.258D+00 0.782D+00
 Gap=     0.517 Goal=   None    Shift=    0.000
 RMSDP=2.05D-06 MaxDP=6.32D-05 DE=-2.37D-06 OVMax= 1.29D-04

 Initial convergence to 1.0D-05 achieved.  Increase integral accuracy.
 Cycle   4  Pass 1  IDiag  1:
 E= -2902.88242418489     Delta-E=       -0.000000231064 Rises=F Damp=F
 DIIS: error= 9.03D-06 at cycle   1 NSaved=   1.
 NSaved= 1 IEnMin= 1 EnMin= -2902.88242418489     IErMin= 1 ErrMin= 9.03D-06
 ErrMax= 9.03D-06 EMaxC= 1.00D-01 BMatC= 2.35D-08 BMatP= 2.35D-08
 IDIUse=1 WtCom= 1.00D+00 WtEn= 0.00D+00
 Coeff-Com:  0.100D+01
 Coeff:      0.100D+01
 Gap=     0.517 Goal=   None    Shift=    0.000
 RMSDP=2.05D-06 MaxDP=6.32D-05 DE=-2.31D-07 OVMax= 5.14D-05

 Cycle   5  Pass 1  IDiag  1:
 RMSU=  6.95D-07    CP:  1.00D+00
 E= -2902.88242421647     Delta-E=       -0.000000031579 Rises=F Damp=F
 DIIS: error= 6.47D-06 at cycle   2 NSaved=   2.
 NSaved= 2 IEnMin= 2 EnMin= -2902.88242421647     IErMin= 2 ErrMin= 6.47D-06
 ErrMax= 6.47D-06 EMaxC= 1.00D-01 BMatC= 8.72D-09 BMatP= 2.35D-08
 IDIUse=1 WtCom= 1.00D+00 WtEn= 0.00D+00
 Coeff-Com:  0.318D+00 0.682D+00
 Coeff:      0.318D+00 0.682D+00
 Gap=     0.517 Goal=   None    Shift=    0.000
 RMSDP=2.80D-07 MaxDP=1.03D-05 DE=-3.16D-08 OVMax= 3.08D-05

 Cycle   6  Pass 1  IDiag  1:
 RMSU=  1.90D-07    CP:  1.00D+00  1.08D+00
 E= -2902.88242422492     Delta-E=       -0.000000008453 Rises=F Damp=F
 DIIS: error= 2.03D-06 at cycle   3 NSaved=   3.
 NSaved= 3 IEnMin= 3 EnMin= -2902.88242422492     IErMin= 3 ErrMin= 2.03D-06
 ErrMax= 2.03D-06 EMaxC= 1.00D-01 BMatC= 1.35D-09 BMatP= 8.72D-09
 IDIUse=1 WtCom= 1.00D+00 WtEn= 0.00D+00
 Coeff-Com: -0.311D+00-0.928D-01 0.140D+01
 Coeff:     -0.311D+00-0.928D-01 0.140D+01
 Gap=     0.517 Goal=   None    Shift=    0.000
 RMSDP=3.50D-07 MaxDP=1.09D-05 DE=-8.45D-09 OVMax= 2.03D-05

 Cycle   7  Pass 1  IDiag  1:
 RMSU=  8.67D-08    CP:  1.00D+00  1.40D+00  1.36D+00
 E= -2902.88242422821     Delta-E=       -0.000000003295 Rises=F Damp=F
 DIIS: error= 4.53D-07 at cycle   4 NSaved=   4.
 NSaved= 4 IEnMin= 4 EnMin= -2902.88242422821     IErMin= 4 ErrMin= 4.53D-07
 ErrMax= 4.53D-07 EMaxC= 1.00D-01 BMatC= 7.12D-11 BMatP= 1.35D-09
 IDIUse=1 WtCom= 1.00D+00 WtEn= 0.00D+00
 Coeff-Com: -0.918D-01-0.493D-01 0.326D+00 0.815D+00
 Coeff:     -0.918D-01-0.493D-01 0.326D+00 0.815D+00
 Gap=     0.517 Goal=   None    Shift=    0.000
 RMSDP=4.90D-08 MaxDP=1.60D-06 DE=-3.30D-09 OVMax= 3.78D-06

 Cycle   8  Pass 1  IDiag  1:
 RMSU=  2.30D-08    CP:  1.00D+00  1.41D+00  1.40D+00  1.26D+00
 E= -2902.88242422831     Delta-E=       -0.000000000099 Rises=F Damp=F
 DIIS: error= 1.46D-07 at cycle   5 NSaved=   5.
 NSaved= 5 IEnMin= 5 EnMin= -2902.88242422831     IErMin= 5 ErrMin= 1.46D-07
 ErrMax= 1.46D-07 EMaxC= 1.00D-01 BMatC= 9.71D-12 BMatP= 7.12D-11
 IDIUse=1 WtCom= 1.00D+00 WtEn= 0.00D+00
 Coeff-Com:  0.658D-01 0.314D-01-0.297D+00-0.105D+00 0.131D+01
 Coeff:      0.658D-01 0.314D-01-0.297D+00-0.105D+00 0.131D+01
 Gap=     0.517 Goal=   None    Shift=    0.000
 RMSDP=3.43D-08 MaxDP=8.80D-07 DE=-9.91D-11 OVMax= 2.10D-06

 Cycle   9  Pass 1  IDiag  1:
 RMSU=  7.25D-09    CP:  1.00D+00  1.41D+00  1.39D+00  1.51D+00  1.33D+00
 E= -2902.88242422836     Delta-E=       -0.000000000045 Rises=F Damp=F
 DIIS: error= 3.68D-08 at cycle   6 NSaved=   6.
 NSaved= 6 IEnMin= 6 EnMin= -2902.88242422836     IErMin= 6 ErrMin= 3.68D-08
 ErrMax= 3.68D-08 EMaxC= 1.00D-01 BMatC= 4.97D-13 BMatP= 9.71D-12
 IDIUse=1 WtCom= 1.00D+00 WtEn= 0.00D+00
 Coeff-Com: -0.818D-02-0.137D-02 0.367D-01-0.140D-01-0.242D+00 0.123D+01
 Coeff:     -0.818D-02-0.137D-02 0.367D-01-0.140D-01-0.242D+00 0.123D+01
 Gap=     0.517 Goal=   None    Shift=    0.000
 RMSDP=5.93D-09 MaxDP=1.26D-07 DE=-4.46D-11 OVMax= 6.44D-07

 SCF Done:  E(RHF) =  -2902.88242423     A.U. after    9 cycles
             Convg  =    0.5928D-08             -V/T =  2.0001
 KE= 2.902609043422D+03 PE=-7.226422575827D+03 EE= 1.277788231824D+03
 Leave Link  502 at Sat Nov 23 13:14:47 2019, MaxMem=  268435456 cpu:      65.6
 (Enter /home/matheus/.gaussian/g09/l801.exe)
 Windowed orbitals will be sorted by symmetry type.
 ExpMin= 2.53D-02 ExpMax= 1.17D+07 ExpMxC= 1.33D+04 IAcc=3 IRadAn=         5 AccDes= 0.00D+00
 HarFok:  IExCor=  205 AccDes= 0.00D+00 IRadAn=         5 IDoV=-2
 ScaDFX=  1.000000  1.000000  1.000000  1.000000
 DSYEVD returned Info=          93 IAlg= 4 N=    46 NDim=    46 NE2=     4547561 trying DSYEV.
 DSYEVD returned Info=         119 IAlg= 4 N=    59 NDim=    59 NE2=     4547561 trying DSYEV.
 Largest valence mixing into a core orbital is  1.45D-04
 Largest core mixing into a valence orbital is  2.62D-05
 Range of M.O.s used for correlation:    12   197
 NBasis=   197 NAE=    27 NBE=    27 NFC=    11 NFV=     0
 NROrb=    186 NOA=    16 NOB=    16 NVA=   170 NVB=   170

 **** Warning!!: The largest alpha MO coefficient is  0.16280377D+02

 Leave Link  801 at Sat Nov 23 13:14:47 2019, MaxMem=  268435456 cpu:       0.3
 (Enter /home/matheus/.gaussian/g09/l804.exe)
 Closed-shell transformation, MDV=   268435456 ITran=4 ISComp=1.
 Semi-Direct transformation.
 ModeAB=           2 MOrb=            16 LenV=     267327658
 LASXX=     48528660 LTotXX=    48528660 LenRXX=    48528660
 LTotAB=    49298776 MaxLAS=    78372960 LenRXY=    78372960
 NonZer=    97057320 LenScr=   146313216 LnRSAI=           0
 LnScr1=           0 LExtra=           0 Total=    273214836
 MaxDsk=          -1 SrtSym=           F ITran=            4
 DoSDTr:  NPSUse=  2
 JobTyp=0 Pass  1:  I=   1 to  16.
 (rs|ai) integrals will be sorted in core.
 Complete sort for first half transformation.
 First half transformation complete.
 Begin second half transformation for I=  10.
 Begin second half transformation for I=  10.
 Complete sort for second half transformation.
 Second half transformation complete.
 SymMOI:  orbitals are not symmetric.
 Spin components of T(2) and E(2):
     alpha-alpha T2 =       0.2593456366D-01 E2=     -0.9967060844D-01
     alpha-beta  T2 =       0.1420809636D+00 E2=     -0.5561408797D+00
     beta-beta   T2 =       0.2593456366D-01 E2=     -0.9967060844D-01
 ANorm=    0.1092680233D+01
 E2 =    -0.7554820966D+00 EUMP2 =    -0.29036379063249D+04
 Leave Link  804 at Sat Nov 23 13:15:12 2019, MaxMem=  268435456 cpu:      46.7
 (Enter /home/matheus/.gaussian/g09/l913.exe)
 CIDS:  MDV=   268435456.
 Frozen-core window:  NFC=  11 NFV=   0.
 IFCWin=0 IBDFC=1 NFBD=     0     0 NFCmp=     0     0 NFFFC=     0     0
 Using DD3R+UMP44R for 1st iteration, S=T.
 Using DD4RQ for 2nd and later iterations.
 Would need an additional       431206676 words for in-memory AO integral storage.
 MP4(SDTQ)
 =========
 DD1Dir will call FoFDir   1 times, MxPair=       272
 NAB=   136 NAA=     0 NBB=     0 NumPrc=  2.
 Integrals replicated using symmetry in FoFDir.
 MinBra= 0 MaxBra= 3 Meth= 1.
 IRaf=       0 NMat= 272 IRICut=     340 DoRegI=T DoRafI=T ISym2E= 2 JSym2E=2.
 MP4(D)= -0.14968186D-01
 MP4(S)= -0.64739521D-02
 MP4(R+Q)=  0.15366693D-01
 T4(AAA)= -0.10363321D-02
 T4(AAB)= -0.14154065D-01
 Time for triples=     1282.31 seconds.
 MP4(T)=   -0.30380795D-01
 E3=       -0.11392523D-01        EUMP3=      -0.29036492988D+04
 E4(DQ)=    0.39850627D-03        UMP4(DQ)=   -0.29036489003D+04
 E4(SDQ)=  -0.60754459D-02        UMP4(SDQ)=  -0.29036553743D+04
 E4(SDTQ)= -0.36456241D-01        UMP4(SDTQ)= -0.29036857551D+04
 VARIATIONAL ENERGIES WITH THE FIRST-ORDER WAVEFUNCTION:
 E(VAR1)=  -0.29035247246D+04     E(CISD,4)=  -0.29035242152D+04
 Largest amplitude= 3.00D-02
 Leave Link  913 at Sat Nov 23 13:26:56 2019, MaxMem=  268435456 cpu:    1372.7
 (Enter /home/matheus/.gaussian/g09/l108.exe)
 Variable Step   Value    
 -------- ---- -----------
     1       3    6.236096
 Leave Link  108 at Sat Nov 23 13:26:56 2019, MaxMem=  268435456 cpu:       0.1
 (Enter /home/matheus/.gaussian/g09/l202.exe)
 ---------------------------------------------------------------------------------------------------
                            Z-MATRIX (ANGSTROMS AND DEGREES)
   CD    Cent   Atom    N1       Length/X        N2       Alpha/Y        N3        Beta/Z          J
 ---------------------------------------------------------------------------------------------------
      1      1  O        0   0.000000          0.000000          0.725000
      2      2  O        0   0.000000          0.000000         -0.725000
      3      3  H        0   0.863315          0.314221          1.023510
      4      4  H        0   0.000000          0.918721         -1.023510
      5      5  Kr       0   0.000000          3.300000          0.000000
 ---------------------------------------------------------------------------------------------------
                         Z-Matrix orientation:                         
 ---------------------------------------------------------------------
 Center     Atomic      Atomic             Coordinates (Angstroms)
 Number     Number       Type             X           Y           Z
 ---------------------------------------------------------------------
      1          8           0        0.000000    0.000000    0.725000
      2          8           0        0.000000    0.000000   -0.725000
      3          1           0        0.863315    0.314221    1.023510
      4          1           0        0.000000    0.918721   -1.023510
      5         36           0        0.000000    3.300000    0.000000
 ---------------------------------------------------------------------
                    Distance matrix (angstroms):
                    1          2          3          4          5
     1  O    0.000000
     2  O    1.450000   0.000000
     3  H    0.966000   1.975180   0.000000
     4  H    1.975180   0.966000   2.302396   0.000000
     5  Kr   3.378702   3.378702   3.272272   2.591923   0.000000
 Stoichiometry    H2KrO2
 Framework group  C1[X(H2KrO2)]
 Deg. of freedom     9
 Full point group                 C1      NOp   1
 RotChk:  IX=0 Diff= 7.57D-04
 Largest Abelian subgroup         C1      NOp   1
 Largest concise Abelian subgroup C1      NOp   1
                         Standard orientation:                         
 ---------------------------------------------------------------------
 Center     Atomic      Atomic             Coordinates (Angstroms)
 Number     Number       Type             X           Y           Z
 ---------------------------------------------------------------------
      1          8           0        2.226346   -0.706095   -0.108068
      2          8           0        2.218446    0.738214    0.020038
      3          1           0        1.925153   -1.081710    0.729399
      4          1           0        1.298192    1.029498    0.058022
      5         36           0       -1.077269   -0.005687   -0.002311
 ---------------------------------------------------------------------
 Rotational constants (GHZ):     25.7098813      1.9487916      1.8204794
 Leave Link  202 at Sat Nov 23 13:26:56 2019, MaxMem=  268435456 cpu:       0.0
 (Enter /home/matheus/.gaussian/g09/l301.exe)
 Standard basis: Aug-CC-pVTZ (5D, 7F)
 Ernie: Thresh=  0.10000D-02 Tol=  0.10000D-05 Strict=F.
 Ernie:  38 primitive shells out of 205 were deleted.
 There are   197 symmetry adapted basis functions of A   symmetry.
 Integral buffers will be    131072 words long.
 Raffenetti 1 integral format.
 Two-electron integral symmetry is turned on.
   197 basis functions,   415 primitive gaussians,   229 cartesian basis functions
    27 alpha electrons       27 beta electrons
       nuclear repulsion energy       140.0237045117 Hartrees.
 IExCor=    0 DFT=F Ex=HF Corr=None ExCW=0 ScaHFX=  1.000000
 ScaDFX=  1.000000  1.000000  1.000000  1.000000 ScalE2=  1.000000  1.000000
 IRadAn=      5 IRanWt=     -1 IRanGd=            0 ICorTp=0
 NAtoms=    5 NActive=    5 NUniq=    5 SFac= 1.00D+00 NAtFMM=   60 NAOKFM=F Big=F
 Leave Link  301 at Sat Nov 23 13:26:56 2019, MaxMem=  268435456 cpu:       0.1
 (Enter /home/matheus/.gaussian/g09/l302.exe)
 NPDir=0 NMtPBC=     1 NCelOv=     1 NCel=       1 NClECP=     1 NCelD=      1
         NCelK=      1 NCelE2=     1 NClLst=     1 CellRange=     0.0.
 One-electron integrals computed using PRISM.
 NBasis=   197 RedAO= T  NBF=   197
 NBsUse=   197 1.00D-06 NBFU=   197
 Leave Link  302 at Sat Nov 23 13:26:56 2019, MaxMem=  268435456 cpu:       0.3
 (Enter /home/matheus/.gaussian/g09/l303.exe)
 DipDrv:  MaxL=1.
 Leave Link  303 at Sat Nov 23 13:26:57 2019, MaxMem=  268435456 cpu:       0.1
 (Enter /home/matheus/.gaussian/g09/l401.exe)
 Initial guess read from the read-write file.
 B after Tr=     0.000000    0.000000    0.000000
         Rot=    1.000000    0.000000    0.000000    0.000000 Ang=   0.00 deg.
 Guess basis will be translated and rotated to current coordinates.
 Initial guess orbital symmetries:
       Occupied  (A) (A) (A) (A) (A) (A) (A) (A) (A) (A) (A) (A)
                 (A) (A) (A) (A) (A) (A) (A) (A) (A) (A) (A) (A)
                 (A) (A) (A)
       Virtual   (A) (A) (A) (A) (A) (A) (A) (A) (A) (A) (A) (A)
                 (A) (A) (A) (A) (A) (A) (A) (A) (A) (A) (A) (A)
                 (A) (A) (A) (A) (A) (A) (A) (A) (A) (A) (A) (A)
                 (A) (A) (A) (A) (A) (A) (A) (A) (A) (A) (A) (A)
                 (A) (A) (A) (A) (A) (A) (A) (A) (A) (A) (A) (A)
                 (A) (A) (A) (A) (A) (A) (A) (A) (A) (A) (A) (A)
                 (A) (A) (A) (A) (A) (A) (A) (A) (A) (A) (A) (A)
                 (A) (A) (A) (A) (A) (A) (A) (A) (A) (A) (A) (A)
                 (A) (A) (A) (A) (A) (A) (A) (A) (A) (A) (A) (A)
                 (A) (A) (A) (A) (A) (A) (A) (A) (A) (A) (A) (A)
                 (A) (A) (A) (A) (A) (A) (A) (A) (A) (A) (A) (A)
                 (A) (A) (A) (A) (A) (A) (A) (A) (A) (A) (A) (A)
                 (A) (A) (A) (A) (A) (A) (A) (A) (A) (A) (A) (A)
                 (A) (A) (A) (A) (A) (A) (A) (A) (A) (A) (A) (A)
                 (A) (A)
 The electronic state of the initial guess is 1-A.
 Generating alternative initial guess.
 Harris functional with IExCor=  205 diagonalized for initial guess.
 ExpMin= 2.53D-02 ExpMax= 1.17D+07 ExpMxC= 1.33D+04 IAcc=3 IRadAn=         5 AccDes= 0.00D+00
 HarFok:  IExCor=  205 AccDes= 0.00D+00 IRadAn=         5 IDoV= 1
 ScaDFX=  1.000000  1.000000  1.000000  1.000000
 FoFCou: FMM=F IPFlag=           0 FMFlag=      100000 FMFlg1=           0
         NFxFlg=           0 DoJE=T BraDBF=F KetDBF=T FulRan=T
         Omega=  0.000000  0.000000  1.000000  0.000000  0.000000 ICntrl=     500 IOpCl=  0
         NMat0=    1 NMatS0=    1 NMatT0=    0 NMatD0=    1 NMtDS0=    0 NMtDT0=    0
         I1Cent=           4 NGrid=           0.
 Petite list used in FoFCou.
 Harris En= -2901.93391259341    
 Leave Link  401 at Sat Nov 23 13:26:58 2019, MaxMem=  268435456 cpu:       1.6
 (Enter /home/matheus/.gaussian/g09/l502.exe)
 Closed shell SCF:
 Requested convergence on RMS density matrix=1.00D-08 within 128 cycles.
 Requested convergence on MAX density matrix=1.00D-06.
 Requested convergence on             energy=1.00D-06.
 No special actions if energy rises.
 Using DIIS extrapolation, IDIIS=  1040.
 Integral symmetry usage will be decided dynamically.
 IEnd=      178489 IEndB=      178489 NGot=   268435456 MDV=   268326278
 LenX=   268326278 LenY=   268273396
 Fock matrices will be formed incrementally for  20 cycles.

 Cycle   1  Pass 0  IDiag  1:
 FoFCou: FMM=F IPFlag=           0 FMFlag=      100000 FMFlg1=           0
         NFxFlg=           0 DoJE=F BraDBF=F KetDBF=F FulRan=T
         Omega=  0.000000  0.000000  1.000000  0.000000  0.000000 ICntrl=       0 IOpCl=  0
         NMat0=    1 NMatS0=    1 NMatT0=    0 NMatD0=    1 NMtDS0=    0 NMtDT0=    0
         I1Cent=           0 NGrid=           0.
 Symmetry not used in FoFCou.
 E= -2902.88373059239    
 DIIS: error= 3.65D-04 at cycle   1 NSaved=   1.
 NSaved= 1 IEnMin= 1 EnMin= -2902.88373059239     IErMin= 1 ErrMin= 3.65D-04
 ErrMax= 3.65D-04 EMaxC= 1.00D-01 BMatC= 3.83D-05 BMatP= 3.83D-05
 IDIUse=3 WtCom= 9.96D-01 WtEn= 3.65D-03
 Coeff-Com:  0.100D+01
 Coeff-En:   0.100D+01
 Coeff:      0.100D+01
 Gap=     0.519 Goal=   None    Shift=    0.000
 RMSDP=5.25D-05 MaxDP=1.59D-03              OVMax= 2.21D-03

 Cycle   2  Pass 0  IDiag  1:
 RMSU=  3.71D-05    CP:  1.00D+00
 E= -2902.88377546750     Delta-E=       -0.000044875108 Rises=F Damp=F
 DIIS: error= 5.99D-05 at cycle   2 NSaved=   2.
 NSaved= 2 IEnMin= 2 EnMin= -2902.88377546750     IErMin= 2 ErrMin= 5.99D-05
 ErrMax= 5.99D-05 EMaxC= 1.00D-01 BMatC= 1.09D-06 BMatP= 3.83D-05
 IDIUse=1 WtCom= 1.00D+00 WtEn= 0.00D+00
 Coeff-Com: -0.833D-01 0.108D+01
 Coeff:     -0.833D-01 0.108D+01
 Gap=     0.518 Goal=   None    Shift=    0.000
 RMSDP=9.29D-06 MaxDP=3.28D-04 DE=-4.49D-05 OVMax= 4.70D-04

 Initial convergence to 1.0D-05 achieved.  Increase integral accuracy.
 Cycle   3  Pass 1  IDiag  1:
 E= -2902.88377718377     Delta-E=       -0.000001716269 Rises=F Damp=F
 DIIS: error= 2.20D-05 at cycle   1 NSaved=   1.
 NSaved= 1 IEnMin= 1 EnMin= -2902.88377718377     IErMin= 1 ErrMin= 2.20D-05
 ErrMax= 2.20D-05 EMaxC= 1.00D-01 BMatC= 1.47D-07 BMatP= 1.47D-07
 IDIUse=1 WtCom= 1.00D+00 WtEn= 0.00D+00
 Coeff-Com:  0.100D+01
 Coeff:      0.100D+01
 Gap=     0.518 Goal=   None    Shift=    0.000
 RMSDP=9.29D-06 MaxDP=3.28D-04 DE=-1.72D-06 OVMax= 1.34D-04

 Cycle   4  Pass 1  IDiag  1:
 RMSU=  1.49D-06    CP:  1.00D+00
 E= -2902.88377731640     Delta-E=       -0.000000132631 Rises=F Damp=F
 DIIS: error= 1.14D-05 at cycle   2 NSaved=   2.
 NSaved= 2 IEnMin= 2 EnMin= -2902.88377731640     IErMin= 2 ErrMin= 1.14D-05
 ErrMax= 1.14D-05 EMaxC= 1.00D-01 BMatC= 5.11D-08 BMatP= 1.47D-07
 IDIUse=1 WtCom= 1.00D+00 WtEn= 0.00D+00
 Coeff-Com:  0.346D+00 0.654D+00
 Coeff:      0.346D+00 0.654D+00
 Gap=     0.518 Goal=   None    Shift=    0.000
 RMSDP=7.04D-07 MaxDP=3.70D-05 DE=-1.33D-07 OVMax= 4.01D-05

 Cycle   5  Pass 1  IDiag  1:
 RMSU=  4.97D-07    CP:  1.00D+00  9.78D-01
 E= -2902.88377735403     Delta-E=       -0.000000037631 Rises=F Damp=F
 DIIS: error= 3.51D-06 at cycle   3 NSaved=   3.
 NSaved= 3 IEnMin= 3 EnMin= -2902.88377735403     IErMin= 3 ErrMin= 3.51D-06
 ErrMax= 3.51D-06 EMaxC= 1.00D-01 BMatC= 3.06D-09 BMatP= 5.11D-08
 IDIUse=1 WtCom= 1.00D+00 WtEn= 0.00D+00
 Coeff-Com: -0.979D-01-0.362D-01 0.113D+01
 Coeff:     -0.979D-01-0.362D-01 0.113D+01
 Gap=     0.518 Goal=   None    Shift=    0.000
 RMSDP=4.20D-07 MaxDP=1.57D-05 DE=-3.76D-08 OVMax= 2.96D-05

 Cycle   6  Pass 1  IDiag  1:
 RMSU=  1.42D-07    CP:  1.00D+00  1.11D+00  1.35D+00
 E= -2902.88377736094     Delta-E=       -0.000000006908 Rises=F Damp=F
 DIIS: error= 1.39D-06 at cycle   4 NSaved=   4.
 NSaved= 4 IEnMin= 4 EnMin= -2902.88377736094     IErMin= 4 ErrMin= 1.39D-06
 ErrMax= 1.39D-06 EMaxC= 1.00D-01 BMatC= 7.40D-10 BMatP= 3.06D-09
 IDIUse=1 WtCom= 1.00D+00 WtEn= 0.00D+00
 Coeff-Com: -0.895D-01-0.135D+00 0.322D+00 0.903D+00
 Coeff:     -0.895D-01-0.135D+00 0.322D+00 0.903D+00
 Gap=     0.518 Goal=   None    Shift=    0.000
 RMSDP=1.79D-07 MaxDP=5.18D-06 DE=-6.91D-09 OVMax= 1.11D-05

 Cycle   7  Pass 1  IDiag  1:
 RMSU=  6.33D-08    CP:  1.00D+00  1.15D+00  1.53D+00  1.16D+00
 E= -2902.88377736211     Delta-E=       -0.000000001167 Rises=F Damp=F
 DIIS: error= 3.38D-07 at cycle   5 NSaved=   5.
 NSaved= 5 IEnMin= 5 EnMin= -2902.88377736211     IErMin= 5 ErrMin= 3.38D-07
 ErrMax= 3.38D-07 EMaxC= 1.00D-01 BMatC= 3.73D-11 BMatP= 7.40D-10
 IDIUse=1 WtCom= 1.00D+00 WtEn= 0.00D+00
 Coeff-Com:  0.771D-02 0.872D-03-0.749D-01-0.271D-01 0.109D+01
 Coeff:      0.771D-02 0.872D-03-0.749D-01-0.271D-01 0.109D+01
 Gap=     0.518 Goal=   None    Shift=    0.000
 RMSDP=5.34D-08 MaxDP=1.62D-06 DE=-1.17D-09 OVMax= 3.39D-06

 Cycle   8  Pass 1  IDiag  1:
 RMSU=  1.71D-08    CP:  1.00D+00  1.14D+00  1.55D+00  1.31D+00  1.36D+00
 E= -2902.88377736221     Delta-E=       -0.000000000102 Rises=F Damp=F
 DIIS: error= 1.18D-07 at cycle   6 NSaved=   6.
 NSaved= 6 IEnMin= 6 EnMin= -2902.88377736221     IErMin= 6 ErrMin= 1.18D-07
 ErrMax= 1.18D-07 EMaxC= 1.00D-01 BMatC= 5.99D-12 BMatP= 3.73D-11
 IDIUse=1 WtCom= 1.00D+00 WtEn= 0.00D+00
 Coeff-Com:  0.138D-01 0.187D-01-0.489D-01-0.148D+00 0.111D+00 0.105D+01
 Coeff:      0.138D-01 0.187D-01-0.489D-01-0.148D+00 0.111D+00 0.105D+01
 Gap=     0.518 Goal=   None    Shift=    0.000
 RMSDP=2.24D-08 MaxDP=5.52D-07 DE=-1.02D-10 OVMax= 1.58D-06

 Cycle   9  Pass 1  IDiag  1:
 RMSU=  5.88D-09    CP:  1.00D+00  1.14D+00  1.55D+00  1.35D+00  1.53D+00
                    CP:  1.26D+00
 E= -2902.88377736220     Delta-E=        0.000000000005 Rises=F Damp=F
 DIIS: error= 3.59D-08 at cycle   7 NSaved=   7.
 NSaved= 7 IEnMin= 6 EnMin= -2902.88377736221     IErMin= 7 ErrMin= 3.59D-08
 ErrMax= 3.59D-08 EMaxC= 1.00D-01 BMatC= 4.29D-13 BMatP= 5.99D-12
 IDIUse=1 WtCom= 1.00D+00 WtEn= 0.00D+00
 Coeff-Com: -0.742D-02-0.103D-01 0.319D-01 0.707D-01-0.115D+00-0.529D+00
 Coeff-Com:  0.156D+01
 Coeff:     -0.742D-02-0.103D-01 0.319D-01 0.707D-01-0.115D+00-0.529D+00
 Coeff:      0.156D+01
[...]
 ---------------------------------------------------------------------
      1          8           0        0.000000    0.000000    0.725000
      2          8           0        0.000000    0.000000   -0.725000
      3          1           0        0.863315    0.314221    1.023510
      4          1           0        0.000000    0.918721   -1.023510
      5         36           0        0.000000    5.000000    0.000000
 ---------------------------------------------------------------------
                    Distance matrix (angstroms):
                    1          2          3          4          5
     1  O    0.000000
     2  O    1.450000   0.000000
     3  H    0.966000   1.975180   0.000000
     4  H    1.975180   0.966000   2.302396   0.000000
     5  Kr   5.052289   5.052289   4.873337   4.207661   0.000000
 Stoichiometry    H2KrO2
 Framework group  C1[X(H2KrO2)]
 Deg. of freedom     9
 Full point group                 C1      NOp   1
 RotChk:  IX=0 Diff= 2.78D-04
 Largest Abelian subgroup         C1      NOp   1
 Largest concise Abelian subgroup C1      NOp   1
                         Standard orientation:                         
 ---------------------------------------------------------------------
 Center     Atomic      Atomic             Coordinates (Angstroms)
 Number     Number       Type             X           Y           Z
 ---------------------------------------------------------------------
      1          8           0        3.357487   -0.710635   -0.109567
      2          8           0        3.354268    0.733662    0.018863
      3          1           0        3.051713   -1.085363    0.726637
      4          1           0        2.434924    1.028235    0.053358
      5         36           0       -1.643908   -0.003530   -0.001510
 ---------------------------------------------------------------------
 Rotational constants (GHZ):     25.7101440      0.8454446      0.8203569
 Leave Link  202 at Sat Nov 23 17:10:35 2019, MaxMem=  268435456 cpu:       0.0
 (Enter /home/matheus/.gaussian/g09/l301.exe)
 Standard basis: Aug-CC-pVTZ (5D, 7F)
 Ernie: Thresh=  0.10000D-02 Tol=  0.10000D-05 Strict=F.
 Ernie:  38 primitive shells out of 205 were deleted.
 There are   197 symmetry adapted basis functions of A   symmetry.
 Integral buffers will be    131072 words long.
 Raffenetti 1 integral format.
 Two-electron integral symmetry is turned on.
   197 basis functions,   415 primitive gaussians,   229 cartesian basis functions
    27 alpha electrons       27 beta electrons
       nuclear repulsion energy       105.4050198831 Hartrees.
 IExCor=    0 DFT=F Ex=HF Corr=None ExCW=0 ScaHFX=  1.000000
 ScaDFX=  1.000000  1.000000  1.000000  1.000000 ScalE2=  1.000000  1.000000
 IRadAn=      5 IRanWt=     -1 IRanGd=            0 ICorTp=0
 NAtoms=    5 NActive=    5 NUniq=    5 SFac= 1.00D+00 NAtFMM=   60 NAOKFM=F Big=F
 Leave Link  301 at Sat Nov 23 17:10:35 2019, MaxMem=  268435456 cpu:       0.1
 (Enter /home/matheus/.gaussian/g09/l302.exe)
 NPDir=0 NMtPBC=     1 NCelOv=     1 NCel=       1 NClECP=     1 NCelD=      1
         NCelK=      1 NCelE2=     1 NClLst=     1 CellRange=     0.0.
 One-electron integrals computed using PRISM.
 NBasis=   197 RedAO= T  NBF=   197
 NBsUse=   197 1.00D-06 NBFU=   197
 Leave Link  302 at Sat Nov 23 17:10:35 2019, MaxMem=  268435456 cpu:       0.3
 (Enter /home/matheus/.gaussian/g09/l303.exe)
 DipDrv:  MaxL=1.
 Leave Link  303 at Sat Nov 23 17:10:36 2019, MaxMem=  268435456 cpu:       0.2
 (Enter /home/matheus/.gaussian/g09/l401.exe)
 Initial guess read from the read-write file.
 B after Tr=     0.000000    0.000000    0.000000
         Rot=    1.000000    0.000000    0.000000    0.000000 Ang=   0.00 deg.
 Guess basis will be translated and rotated to current coordinates.
 Initial guess orbital symmetries:
       Occupied  (A) (A) (A) (A) (A) (A) (A) (A) (A) (A) (A) (A)
                 (A) (A) (A) (A) (A) (A) (A) (A) (A) (A) (A) (A)
                 (A) (A) (A)
       Virtual   (A) (A) (A) (A) (A) (A) (A) (A) (A) (A) (A) (A)
                 (A) (A) (A) (A) (A) (A) (A) (A) (A) (A) (A) (A)
                 (A) (A) (A) (A) (A) (A) (A) (A) (A) (A) (A) (A)
                 (A) (A) (A) (A) (A) (A) (A) (A) (A) (A) (A) (A)
                 (A) (A) (A) (A) (A) (A) (A) (A) (A) (A) (A) (A)
                 (A) (A) (A) (A) (A) (A) (A) (A) (A) (A) (A) (A)
                 (A) (A) (A) (A) (A) (A) (A) (A) (A) (A) (A) (A)
                 (A) (A) (A) (A) (A) (A) (A) (A) (A) (A) (A) (A)
                 (A) (A) (A) (A) (A) (A) (A) (A) (A) (A) (A) (A)
                 (A) (A) (A) (A) (A) (A) (A) (A) (A) (A) (A) (A)
                 (A) (A) (A) (A) (A) (A) (A) (A) (A) (A) (A) (A)
                 (A) (A) (A) (A) (A) (A) (A) (A) (A) (A) (A) (A)
                 (A) (A) (A) (A) (A) (A) (A) (A) (A) (A) (A) (A)
                 (A) (A) (A) (A) (A) (A) (A) (A) (A) (A) (A) (A)
                 (A) (A)
 The electronic state of the initial guess is 1-A.
 Generating alternative initial guess.
 Harris functional with IExCor=  205 diagonalized for initial guess.
 ExpMin= 2.53D-02 ExpMax= 1.17D+07 ExpMxC= 1.33D+04 IAcc=3 IRadAn=         5 AccDes= 0.00D+00
 HarFok:  IExCor=  205 AccDes= 0.00D+00 IRadAn=         5 IDoV= 1
 ScaDFX=  1.000000  1.000000  1.000000  1.000000
 FoFCou: FMM=F IPFlag=           0 FMFlag=      100000 FMFlg1=           0
         NFxFlg=           0 DoJE=T BraDBF=F KetDBF=T FulRan=T
         Omega=  0.000000  0.000000  1.000000  0.000000  0.000000 ICntrl=     500 IOpCl=  0
         NMat0=    1 NMatS0=    1 NMatT0=    0 NMatD0=    1 NMtDS0=    0 NMtDT0=    0
         I1Cent=           4 NGrid=           0.
 Petite list used in FoFCou.
 Harris En= -2901.93399552731    
 Leave Link  401 at Sat Nov 23 17:10:36 2019, MaxMem=  268435456 cpu:       1.3
 (Enter /home/matheus/.gaussian/g09/l502.exe)
 Closed shell SCF:
 Requested convergence on RMS density matrix=1.00D-08 within 128 cycles.
 Requested convergence on MAX density matrix=1.00D-06.
 Requested convergence on             energy=1.00D-06.
 No special actions if energy rises.
 Using DIIS extrapolation, IDIIS=  1040.
 Integral symmetry usage will be decided dynamically.
 IEnd=      178489 IEndB=      178489 NGot=   268435456 MDV=   268326278
 LenX=   268326278 LenY=   268273396
 Fock matrices will be formed incrementally for  20 cycles.

 Cycle   1  Pass 0  IDiag  1:
 FoFCou: FMM=F IPFlag=           0 FMFlag=      100000 FMFlg1=           0
         NFxFlg=           0 DoJE=F BraDBF=F KetDBF=F FulRan=T
         Omega=  0.000000  0.000000  1.000000  0.000000  0.000000 ICntrl=       0 IOpCl=  0
         NMat0=    1 NMatS0=    1 NMatT0=    0 NMatD0=    1 NMtDS0=    0 NMtDT0=    0
         I1Cent=           0 NGrid=           0.
 Symmetry not used in FoFCou.
 E= -2902.88678266162    
 DIIS: error= 3.95D-05 at cycle   1 NSaved=   1.
 NSaved= 1 IEnMin= 1 EnMin= -2902.88678266162     IErMin= 1 ErrMin= 3.95D-05
 ErrMax= 3.95D-05 EMaxC= 1.00D-01 BMatC= 5.80D-07 BMatP= 5.80D-07
 IDIUse=1 WtCom= 1.00D+00 WtEn= 0.00D+00
 Coeff-Com:  0.100D+01
 Coeff:      0.100D+01
 Gap=     0.518 Goal=   None    Shift=    0.000
 RMSDP=1.43D-05 MaxDP=5.48D-04              OVMax= 3.32D-04

 Cycle   2  Pass 0  IDiag  1:
 RMSU=  1.01D-05    CP:  1.00D+00
 E= -2902.88678328994     Delta-E=       -0.000000628324 Rises=F Damp=F
 DIIS: error= 1.01D-05 at cycle   2 NSaved=   2.
 NSaved= 2 IEnMin= 2 EnMin= -2902.88678328994     IErMin= 2 ErrMin= 1.01D-05
 ErrMax= 1.01D-05 EMaxC= 1.00D-01 BMatC= 1.47D-08 BMatP= 5.80D-07
 IDIUse=1 WtCom= 1.00D+00 WtEn= 0.00D+00
 Coeff-Com: -0.288D-01 0.103D+01
 Coeff:     -0.288D-01 0.103D+01
 Gap=     0.518 Goal=   None    Shift=    0.000
 RMSDP=1.79D-06 MaxDP=6.41D-05 DE=-6.28D-07 OVMax= 5.49D-05

 Initial convergence to 1.0D-05 achieved.  Increase integral accuracy.
 Cycle   3  Pass 1  IDiag  1:
 E= -2902.88678330944     Delta-E=       -0.000000019495 Rises=F Damp=F
 DIIS: error= 3.17D-06 at cycle   1 NSaved=   1.
 NSaved= 1 IEnMin= 1 EnMin= -2902.88678330944     IErMin= 1 ErrMin= 3.17D-06
 ErrMax= 3.17D-06 EMaxC= 1.00D-01 BMatC= 1.14D-09 BMatP= 1.14D-09
 IDIUse=1 WtCom= 1.00D+00 WtEn= 0.00D+00
 Coeff-Com:  0.100D+01
 Coeff:      0.100D+01
 Gap=     0.518 Goal=   None    Shift=    0.000
 RMSDP=1.79D-06 MaxDP=6.41D-05 DE=-1.95D-08 OVMax= 2.19D-05

 Cycle   4  Pass 1  IDiag  1:
 RMSU=  1.83D-07    CP:  1.00D+00
 E= -2902.88678331108     Delta-E=       -0.000000001643 Rises=F Damp=F
 DIIS: error= 8.81D-07 at cycle   2 NSaved=   2.
 NSaved= 2 IEnMin= 2 EnMin= -2902.88678331108     IErMin= 2 ErrMin= 8.81D-07
 ErrMax= 8.81D-07 EMaxC= 1.00D-01 BMatC= 1.83D-10 BMatP= 1.14D-09
 IDIUse=1 WtCom= 1.00D+00 WtEn= 0.00D+00
 Coeff-Com:  0.189D+00 0.811D+00
 Coeff:      0.189D+00 0.811D+00
 Gap=     0.518 Goal=   None    Shift=    0.000
 RMSDP=6.51D-08 MaxDP=1.74D-06 DE=-1.64D-09 OVMax= 4.07D-06

 Cycle   5  Pass 1  IDiag  1:
 RMSU=  3.89D-08    CP:  1.00D+00  1.13D+00
 E= -2902.88678331132     Delta-E=       -0.000000000241 Rises=F Damp=F
 DIIS: error= 3.57D-07 at cycle   3 NSaved=   3.
 NSaved= 3 IEnMin= 3 EnMin= -2902.88678331132     IErMin= 3 ErrMin= 3.57D-07
 ErrMax= 3.57D-07 EMaxC= 1.00D-01 BMatC= 3.34D-11 BMatP= 1.83D-10
 IDIUse=1 WtCom= 1.00D+00 WtEn= 0.00D+00
 Coeff-Com: -0.893D-01 0.663D-01 0.102D+01
 Coeff:     -0.893D-01 0.663D-01 0.102D+01
 Gap=     0.518 Goal=   None    Shift=    0.000
 RMSDP=3.86D-08 MaxDP=1.25D-06 DE=-2.41D-10 OVMax= 3.26D-06

 Cycle   6  Pass 1  IDiag  1:
 RMSU=  1.50D-08    CP:  1.00D+00  1.25D+00  1.22D+00
 E= -2902.88678331138     Delta-E=       -0.000000000057 Rises=F Damp=F
 DIIS: error= 1.93D-07 at cycle   4 NSaved=   4.
 NSaved= 4 IEnMin= 4 EnMin= -2902.88678331138     IErMin= 4 ErrMin= 1.93D-07
 ErrMax= 1.93D-07 EMaxC= 1.00D-01 BMatC= 7.16D-12 BMatP= 3.34D-11
 IDIUse=1 WtCom= 1.00D+00 WtEn= 0.00D+00
 Coeff-Com: -0.663D-01-0.139D+00 0.311D+00 0.894D+00
 Coeff:     -0.663D-01-0.139D+00 0.311D+00 0.894D+00
 Gap=     0.518 Goal=   None    Shift=    0.000
 RMSDP=1.66D-08 MaxDP=4.79D-07 DE=-5.68D-11 OVMax= 1.42D-06

 Cycle   7  Pass 1  IDiag  1:
 RMSU=  6.14D-09    CP:  1.00D+00  1.29D+00  1.40D+00  1.21D+00
 E= -2902.88678331140     Delta-E=       -0.000000000018 Rises=F Damp=F
 DIIS: error= 5.69D-08 at cycle   5 NSaved=   5.
 NSaved= 5 IEnMin= 5 EnMin= -2902.88678331140     IErMin= 5 ErrMin= 5.69D-08
 ErrMax= 5.69D-08 EMaxC= 1.00D-01 BMatC= 4.00D-13 BMatP= 7.16D-12
 IDIUse=1 WtCom= 1.00D+00 WtEn= 0.00D+00
 Coeff-Com:  0.350D-01 0.612D-01-0.215D+00-0.399D+00 0.152D+01
 Coeff:      0.350D-01 0.612D-01-0.215D+00-0.399D+00 0.152D+01
 Gap=     0.518 Goal=   None    Shift=    0.000
 RMSDP=6.81D-09 MaxDP=2.09D-07 DE=-1.82D-11 OVMax= 6.29D-07

 SCF Done:  E(RHF) =  -2902.88678331     A.U. after    7 cycles
             Convg  =    0.6814D-08             -V/T =  2.0001
 KE= 2.902575774053D+03 PE=-7.151238071663D+03 EE= 1.240370494415D+03
 Leave Link  502 at Sat Nov 23 17:10:56 2019, MaxMem=  268435456 cpu:      37.6
 (Enter /home/matheus/.gaussian/g09/l801.exe)
 Windowed orbitals will be sorted by symmetry type.
 ExpMin= 2.53D-02 ExpMax= 1.17D+07 ExpMxC= 1.33D+04 IAcc=3 IRadAn=         5 AccDes= 0.00D+00
 HarFok:  IExCor=  205 AccDes= 0.00D+00 IRadAn=         5 IDoV=-2
 ScaDFX=  1.000000  1.000000  1.000000  1.000000
 DSYEVD returned Info=          93 IAlg= 4 N=    46 NDim=    46 NE2=     4547561 trying DSYEV.
 Largest valence mixing into a core orbital is  1.48D-04
 Largest core mixing into a valence orbital is  2.63D-05
 Range of M.O.s used for correlation:    12   197
 NBasis=   197 NAE=    27 NBE=    27 NFC=    11 NFV=     0
 NROrb=    186 NOA=    16 NOB=    16 NVA=   170 NVB=   170

 **** Warning!!: The largest alpha MO coefficient is  0.14632209D+02

 Leave Link  801 at Sat Nov 23 17:10:56 2019, MaxMem=  268435456 cpu:       0.3
 (Enter /home/matheus/.gaussian/g09/l804.exe)
 Closed-shell transformation, MDV=   268435456 ITran=4 ISComp=1.
 Semi-Direct transformation.
 ModeAB=           4 MOrb=            16 LenV=     267348882
 LASXX=     48528660 LTotXX=    48528660 LenRXX=    97827436
 LTotAB=    49298776 MaxLAS=    72528096 LenRXY=           0
 NonZer=   146356096 LenScr=   220395520 LnRSAI=    72528096
 LnScr1=   109531136 LExtra=           0 Total=    500282188
 MaxDsk=          -1 SrtSym=           T ITran=            4
 DoSDTr:  NPSUse=  2
 JobTyp=0 Pass  1:  I=   1 to  16.
 (rs|ai) integrals will be sorted in core.
 Complete sort for first half transformation.
 First half transformation complete.
 Begin second half transformation for I=  10.
 Complete sort for second half transformation.
 Second half transformation complete.
 SymMOI:  orbitals are not symmetric.
 Spin components of T(2) and E(2):
     alpha-alpha T2 =       0.2556214187D-01 E2=     -0.9848651745D-01
     alpha-beta  T2 =       0.1414362371D+00 E2=     -0.5531615412D+00
     beta-beta   T2 =       0.2556214187D-01 E2=     -0.9848651745D-01
 ANorm=    0.1092044194D+01
 E2 =    -0.7501345761D+00 EUMP2 =    -0.29036369178875D+04
 Leave Link  804 at Sat Nov 23 17:11:19 2019, MaxMem=  268435456 cpu:      43.2
 (Enter /home/matheus/.gaussian/g09/l913.exe)
 CIDS:  MDV=   268435456.
 Frozen-core window:  NFC=  11 NFV=   0.
 IFCWin=0 IBDFC=1 NFBD=     0     0 NFCmp=     0     0 NFFFC=     0     0
 Using DD3R+UMP44R for 1st iteration, S=T.
 Using DD4RQ for 2nd and later iterations.
 Would need an additional       431206676 words for in-memory AO integral storage.
 MP4(SDTQ)
 =========
 DD1Dir will call FoFDir   1 times, MxPair=       272
 NAB=   136 NAA=     0 NBB=     0 NumPrc=  2.
 Integrals replicated using symmetry in FoFDir.
 MinBra= 0 MaxBra= 3 Meth= 1.
 IRaf=       0 NMat= 272 IRICut=     340 DoRegI=T DoRafI=T ISym2E= 2 JSym2E=2.
 MP4(D)= -0.14962347D-01
 MP4(S)= -0.63129730D-02
 MP4(R+Q)=  0.15019378D-01
 T4(AAA)= -0.98913296D-03
 T4(AAB)= -0.13843033D-01
 Time for triples=     1383.44 seconds.
 MP4(T)=   -0.29664332D-01
 E3=       -0.11909785D-01        EUMP3=      -0.29036488277D+04
 E4(DQ)=    0.57030742D-04        UMP4(DQ)=   -0.29036487706D+04
 E4(SDQ)=  -0.62559423D-02        UMP4(SDQ)=  -0.29036550836D+04
 E4(SDTQ)= -0.35920274D-01        UMP4(SDTQ)= -0.29036847479D+04
 VARIATIONAL ENERGIES WITH THE FIRST-ORDER WAVEFUNCTION:
 E(VAR1)=  -0.29035257818D+04     E(CISD,4)=  -0.29035256567D+04
 Largest amplitude= 3.40D-02
 Leave Link  913 at Sat Nov 23 17:23:54 2019, MaxMem=  268435456 cpu:    1467.7
 (Enter /home/matheus/.gaussian/g09/l108.exe)
 Scan completed.

 Summary of the potential surface scan:
   N      R1          SCF          MP2          MP3         MP4DQ       MP4SDQ       MP4SDTQ  
 ----  ---------  -----------  -----------  -----------  -----------  -----------  -----------
    1     3.0000  -2902.87784  -2903.63544  -2903.64658  -2903.64603  -2903.65256  -2903.68323
    2     3.1000  -2902.88052  -2903.63697  -2903.64825  -2903.64779  -2903.65429  -2903.68480
    3     3.2000  -2902.88242  -2903.63791  -2903.64930  -2903.64890  -2903.65537  -2903.68576
    4     3.3000  -2902.88378  -2903.63843  -2903.64991  -2903.64957  -2903.65602  -2903.68629
    5     3.4000  -2902.88473  -2903.63867  -2903.65022  -2903.64993  -2903.65636  -2903.68654
    6     3.5000  -2902.88540  -2903.63872  -2903.65034  -2903.65009  -2903.65650  -2903.68659
    7     3.6000  -2902.88586  -2903.63866  -2903.65033  -2903.65011  -2903.65651  -2903.68653
    8     3.7000  -2902.88619  -2903.63854  -2903.65024  -2903.65006  -2903.65644  -2903.68640
    9     3.8000  -2902.88640  -2903.63837  -2903.65012  -2903.64995  -2903.65633  -2903.68624
   10     3.9000  -2902.88655  -2903.63820  -2903.64997  -2903.64983  -2903.65619  -2903.68606
   11     4.0000  -2902.88665  -2903.63802  -2903.64982  -2903.64969  -2903.65605  -2903.68588
   12     4.1000  -2902.88671  -2903.63785  -2903.64967  -2903.64956  -2903.65591  -2903.68570
   13     4.2000  -2902.88675  -2903.63770  -2903.64953  -2903.64943  -2903.65577  -2903.68555
   14     4.3000  -2902.88677  -2903.63756  -2903.64941  -2903.64932  -2903.65565  -2903.68540
   15     4.4000  -2902.88678  -2903.63743  -2903.64929  -2903.64921  -2903.65554  -2903.68527
   16     4.5000  -2902.88679  -2903.63732  -2903.64919  -2903.64912  -2903.65544  -2903.68516
   17     4.6000  -2902.88679  -2903.63722  -2903.64910  -2903.64903  -2903.65535  -2903.68505
   18     4.7000  -2902.88679  -2903.63713  -2903.64902  -2903.64895  -2903.65527  -2903.68496
   19     4.8000  -2902.88679  -2903.63705  -2903.64895  -2903.64889  -2903.65520  -2903.68488
   20     4.9000  -2902.88679  -2903.63698  -2903.64888  -2903.64882  -2903.65514  -2903.68481
   21     5.0000  -2902.88678  -2903.63692  -2903.64883  -2903.64877  -2903.65508  -2903.68475
 ----  ---------  -----------  -----------  -----------  -----------  -----------  -----------
  
 Leave Link  108 at Sat Nov 23 17:23:54 2019, MaxMem=  268435456 cpu:       0.2
 (Enter /home/matheus/.gaussian/g09/l9999.exe)
 1\1\GINC-REDGIANT\Scan\RMP4SDTQ-FC\Aug-CC-pVTZ\H2Kr1O2\MATHEUS\23-Nov-
 2019\1\\#p mp4/aug-cc-PVTz int=ultrafine Scan\\PTCC\\0,1\O,0,0.,0.,0.7
 25\O,0,0.,0.,-0.725\H,0,0.8633149634,0.3142209495,1.0235104166\H,0,0.,
 0.9187205947,-1.0235104166\Kr,0,0.,R1,0.\\R1=3.,s,20,0.1\\Version=EM64
 L-G09RevC.01\State=1-A\HF=-2902.8778383,-2902.8805158,-2902.8824242,-2
 902.8837774,-2902.8847314,-2902.8853999,-2902.8858648,-2902.8861851,-2
 902.8864033,-2902.8865498,-2902.8866464,-2902.8867087,-2902.8867478,-2
 902.8867714,-2902.8867847,-2902.8867913,-2902.8867934,-2902.8867928,-2
 902.8867904,-2902.8867871,-2902.8867833\MP2=-2903.6354443,-2903.636974
 3,-2903.6379063,-2903.6384255,-2903.6386654,-2903.6387218,-2903.638662
 7,-2903.6385357,-2903.6383735,-2903.6381976,-2903.6380218,-2903.637854
 2,-2903.6376992,-2903.6375584,-2903.637432,-2903.6373192,-2903.6372188
 ,-2903.6371296,-2903.6370504,-2903.6369802,-2903.6369179\MP3=-2903.646
 5759,-2903.6482517,-2903.6492988,-2903.6499097,-2903.6502232,-2903.650
 3394,-2903.6503294,-2903.6502432,-2903.6501151,-2903.649968,-2903.6498
 165,-2903.6496696,-2903.6495322,-2903.6494065,-2903.649293,-2903.64919
 14,-2903.6491007,-2903.6490199,-2903.648948,-2903.6488842,-2903.648827
 7\MP4D=-2903.6615431,-2903.6632192,-2903.664267,-2903.6648785,-2903.66
 51923,-2903.6653084,-2903.6652981,-2903.6652115,-2903.6650829,-2903.66
 49352,-2903.6647832,-2903.6646358,-2903.6644979,-2903.6643717,-2903.66
 42578,-2903.6641557,-2903.6640645,-2903.6639833,-2903.6639111,-2903.66
 38469,-2903.66379\MP4DQ=-2903.6460325,-2903.6477861,-2903.6489003,-290
 3.6495687,-2903.649931,-2903.6500885,-2903.6501132,-2903.6500561,-2903
 .6499524,-2903.6498255,-2903.6496909,-2903.649558,-2903.6494321,-2903.
 649316,-2903.6492104,-2903.6491153,-2903.6490299,-2903.6489536,-2903.6
 488854,-2903.6488247,-2903.6487706\MP4SDQ=-2903.6525629,-2903.6542861,
 -2903.6553743,-2903.6560199,-2903.6563624,-2903.6565025,-2903.656512,-
 2903.6564417,-2903.6563264,-2903.6561894,-2903.6560461,-2903.6559056,-
 2903.6557733,-2903.6556515,-2903.6555411,-2903.6554418,-2903.6553529,-
 2903.6552734,-2903.6552026,-2903.6551396,-2903.6550836\MP4SDTQ=-2903.6
 832268,-2903.6847973,-2903.6857551,-2903.6862891,-2903.686536,-2903.68
 65941,-2903.6865335,-2903.6864032,-2903.6862368,-2903.6860564,-2903.68
 58763,-2903.6857046,-2903.6855459,-2903.6854018,-2903.6852725,-2903.68
 51571,-2903.6850545,-2903.6849635,-2903.6848827,-2903.6848112,-2903.68
 47479\RMSD=4.370e-09,6.471e-09,5.928e-09,6.842e-09,6.152e-09,5.537e-09
 ,4.947e-09,7.164e-09,4.298e-09,3.370e-09,4.104e-09,4.209e-09,3.765e-09
 ,3.486e-09,3.204e-09,2.731e-09,9.140e-09,8.447e-09,7.883e-09,7.359e-09
 ,6.814e-09\PG=C01 [X(H2Kr1O2)]\\@


 WE ARE REACHING THE STAGE WHERE THE PROBLEMS WE MUST SOLVE ARE 
 GOING TO BECOME INSOLUBLE WITHOUT COMPUTERS.
 I DO NOT FEAR COMPUTERS.  I FEAR THE LACK OF THEM.

                                   -- ISSAC ASIMOV
 Job cpu time:  0 days  8 hours 57 minutes  4.1 seconds.
 File lengths (MBytes):  RWF=   3949 Int=      0 D2E=      0 Chk=      4 Scr=      1
 Normal termination of Gaussian 09 at Sat Nov 23 17:23:55 2019.
