 Entering Gaussian System, Link 0=g09
 Input=/home/matheus/.ptcc/Inputs/H2O2-Kr_10.com
 Output=/home/matheus/.ptcc/Logs-MP4/H2O2-Kr_10.log
 Initial command:
 /home/matheus/.gaussian/g09/l1.exe /home/matheus/.gaussian/g09/scratch/Gau-2614.inp -scrdir=/home/matheus/.gaussian/g09/scratch/
 Entering Link 1 = /home/matheus/.gaussian/g09/l1.exe PID=      2616.
  
 Copyright (c) 1988,1990,1992,1993,1995,1998,2003,2009,2011,
            Gaussian, Inc.  All Rights Reserved.
  
 This is part of the Gaussian(R) 09 program.  It is based on
 the Gaussian(R) 03 system (copyright 2003, Gaussian, Inc.),
 the Gaussian(R) 98 system (copyright 1998, Gaussian, Inc.),
 the Gaussian(R) 94 system (copyright 1995, Gaussian, Inc.),
 the Gaussian 92(TM) system (copyright 1992, Gaussian, Inc.),
 the Gaussian 90(TM) system (copyright 1990, Gaussian, Inc.),
 the Gaussian 88(TM) system (copyright 1988, Gaussian, Inc.),
 the Gaussian 86(TM) system (copyright 1986, Carnegie Mellon
 University), and the Gaussian 82(TM) system (copyright 1983,
 Carnegie Mellon University). Gaussian is a federally registered
 trademark of Gaussian, Inc.
  
 This software contains proprietary and confidential information,
 including trade secrets, belonging to Gaussian, Inc.
  
 This software is provided under written license and may be
 used, copied, transmitted, or stored only in accord with that
 written license.
  
 The following legend is applicable only to US Government
 contracts under FAR:
  
                    RESTRICTED RIGHTS LEGEND
  
 Use, reproduction and disclosure by the US Government is
 subject to restrictions as set forth in subparagraphs (a)
 and (c) of the Commercial Computer Software - Restricted
 Rights clause in FAR 52.227-19.
  
 Gaussian, Inc.
 340 Quinnipiac St., Bldg. 40, Wallingford CT 06492
  
  
 ---------------------------------------------------------------
 Warning -- This program may not be used in any manner that
 competes with the business of Gaussian, Inc. or will provide
 assistance to any competitor of Gaussian, Inc.  The licensee
 of this program is prohibited from giving any competitor of
 Gaussian, Inc. access to this program.  By using this program,
 the user acknowledges that Gaussian, Inc. is engaged in the
 business of creating and licensing software in the field of
 computational chemistry and represents and warrants to the
 licensee that it is not a competitor of Gaussian, Inc. and that
 it will not use this program in any manner prohibited above.
 ---------------------------------------------------------------
  

 Cite this work as:
 Gaussian 09, Revision C.01,
 M. J. Frisch, G. W. Trucks, H. B. Schlegel, G. E. Scuseria, 
 M. A. Robb, J. R. Cheeseman, G. Scalmani, V. Barone, B. Mennucci, 
 G. A. Petersson, H. Nakatsuji, M. Caricato, X. Li, H. P. Hratchian, 
 A. F. Izmaylov, J. Bloino, G. Zheng, J. L. Sonnenberg, M. Hada, 
 M. Ehara, K. Toyota, R. Fukuda, J. Hasegawa, M. Ishida, T. Nakajima, 
 Y. Honda, O. Kitao, H. Nakai, T. Vreven, J. A. Montgomery, Jr., 
 J. E. Peralta, F. Ogliaro, M. Bearpark, J. J. Heyd, E. Brothers, 
 K. N. Kudin, V. N. Staroverov, T. Keith, R. Kobayashi, J. Normand, 
 K. Raghavachari, A. Rendell, J. C. Burant, S. S. Iyengar, J. Tomasi, 
 M. Cossi, N. Rega, J. M. Millam, M. Klene, J. E. Knox, J. B. Cross, 
 V. Bakken, C. Adamo, J. Jaramillo, R. Gomperts, R. E. Stratmann, 
 O. Yazyev, A. J. Austin, R. Cammi, C. Pomelli, J. W. Ochterski, 
 R. L. Martin, K. Morokuma, V. G. Zakrzewski, G. A. Voth, 
 P. Salvador, J. J. Dannenberg, S. Dapprich, A. D. Daniels, 
 O. Farkas, J. B. Foresman, J. V. Ortiz, J. Cioslowski, 
 and D. J. Fox, Gaussian, Inc., Wallingford CT, 2010.
 
 ******************************************
 Gaussian 09:  EM64L-G09RevC.01 23-Sep-2011
                 2-Dec-2019 
 ******************************************
 %mem=2GB
 %nproc=2
 Will use up to    2 processors via shared memory.
 -------------------------------------
 #p mp4/aug-cc-PVTz int=ultrafine Scan
 -------------------------------------
 1/38=1,60=1/1,8;
 2/12=2,17=6,18=5,29=3,40=1/2;
 3/5=16,6=1,7=10,11=9,16=1,25=1,30=1,75=-5/1,2,3;
 4//1;
 5/5=2,38=5/2;
 8/6=4,9=120000,10=1/1,4;
 9/5=5/13;
 6/7=2,8=2,9=2,10=2,18=1/1;
 1/60=1/8(1);
 99/9=1/99;
 2/29=3/2;
 3/5=16,6=1,7=10,11=9,16=1,25=1,30=1,75=-5/1,2,3;
 4/5=5,16=3/1;
 5/5=2,38=5/2;
 8/6=4,9=120000,10=1/1,4;
 9/5=5/13;
 1/60=1/8(-6);
 99/9=1/99;
 Leave Link    1 at Mon Dec  2 01:05:45 2019, MaxMem=  268435456 cpu:       0.0
 (Enter /home/matheus/.gaussian/g09/l101.exe)
 ----
 PTCC
 ----
 Charge =  0 Multiplicity = 1
 Symbolic Z-Matrix:
 O                     0.        0.        0.725 
 O                     0.        0.       -0.725 
 H                     0.90476  -0.15953   1.02351 
 H                     0.        0.91872  -1.02351 
 Kr                    0.       R1        0. 
       Variables:
  R1                    3.     Scan 20    0.1    
 
 NAtoms=      5 NQM=        0 NQMF=       0 NMMI=      5 NMMIF=      0
                NMic=       0 NMicF=      0.
                    Isotopes and Nuclear Properties:
 (Nuclear quadrupole moments (NQMom) in fm**2, nuclear magnetic moments (NMagM)
  in nuclear magnetons)

  Atom         1           2           3           4           5
 IAtWgt=          16          16           1           1          84
 AtmWgt=  15.9949146  15.9949146   1.0078250   1.0078250  83.9115064
 NucSpn=           0           0           1           1           0
 AtZEff=   0.0000000   0.0000000   0.0000000   0.0000000   0.0000000
 NQMom=    0.0000000   0.0000000   0.0000000   0.0000000   0.0000000
 NMagM=    0.0000000   0.0000000   2.7928460   2.7928460   0.0000000
 Leave Link  101 at Mon Dec  2 01:05:45 2019, MaxMem=  268435456 cpu:       0.1
 (Enter /home/matheus/.gaussian/g09/l108.exe)
 Scan the potential surface.
 Variable   Value     No. Steps Step-Size
 -------- ----------- --------- ---------
     1       3.000000      20      0.1000
 A total of     21 points will be computed.
 Leave Link  108 at Mon Dec  2 01:05:45 2019, MaxMem=  268435456 cpu:       0.0
 (Enter /home/matheus/.gaussian/g09/l202.exe)
 ---------------------------------------------------------------------------------------------------
                            Z-MATRIX (ANGSTROMS AND DEGREES)
   CD    Cent   Atom    N1       Length/X        N2       Alpha/Y        N3        Beta/Z          J
 ---------------------------------------------------------------------------------------------------
      1      1  O        0   0.000000          0.000000          0.725000
      2      2  O        0   0.000000          0.000000         -0.725000
      3      3  H        0   0.904763         -0.159534          1.023510
      4      4  H        0   0.000000          0.918721         -1.023510
      5      5  Kr       0   0.000000          3.000000          0.000000
 ---------------------------------------------------------------------------------------------------
                         Z-Matrix orientation:                         
 ---------------------------------------------------------------------
 Center     Atomic      Atomic             Coordinates (Angstroms)
 Number     Number       Type             X           Y           Z
 ---------------------------------------------------------------------
      1          8           0        0.000000    0.000000    0.725000
      2          8           0        0.000000    0.000000   -0.725000
      3          1           0        0.904763   -0.159534    1.023510
      4          1           0        0.000000    0.918721   -1.023510
      5         36           0        0.000000    3.000000    0.000000
 ---------------------------------------------------------------------
                    Distance matrix (angstroms):
                    1          2          3          4          5
     1  O    0.000000
     2  O    1.450000   0.000000
     3  H    0.966000   1.975180   0.000000
     4  H    1.975180   0.966000   2.484255   0.000000
     5  Kr   3.086361   3.086361   3.442212   2.319331   0.000000
 Stoichiometry    H2KrO2
 Framework group  C1[X(H2KrO2)]
 Deg. of freedom     9
 Full point group                 C1      NOp   1
 Largest Abelian subgroup         C1      NOp   1
 Largest concise Abelian subgroup C1      NOp   1
                         Standard orientation:                         
 ---------------------------------------------------------------------
 Center     Atomic      Atomic             Coordinates (Angstroms)
 Number     Number       Type             X           Y           Z
 ---------------------------------------------------------------------
      1          8           0        2.021768   -0.693300   -0.118861
      2          8           0        2.004728    0.750466    0.014370
      3          1           0        2.201795   -1.071309    0.751687
      4          1           0        1.082725    1.035355    0.058021
      5         36           0       -0.986014   -0.011705    0.000728
 ---------------------------------------------------------------------
 Rotational constants (GHZ):     25.6313314      2.3378634      2.1561704
 Leave Link  202 at Mon Dec  2 01:05:45 2019, MaxMem=  268435456 cpu:       0.0
 (Enter /home/matheus/.gaussian/g09/l301.exe)
 Standard basis: Aug-CC-pVTZ (5D, 7F)
 Ernie: Thresh=  0.10000D-02 Tol=  0.10000D-05 Strict=F.
 Ernie:  38 primitive shells out of 205 were deleted.
 There are   197 symmetry adapted basis functions of A   symmetry.
 Integral buffers will be    131072 words long.
 Raffenetti 1 integral format.
 Two-electron integral symmetry is turned on.
   197 basis functions,   415 primitive gaussians,   229 cartesian basis functions
    27 alpha electrons       27 beta electrons
       nuclear repulsion energy       149.1283769891 Hartrees.
 IExCor=    0 DFT=F Ex=HF Corr=None ExCW=0 ScaHFX=  1.000000
 ScaDFX=  1.000000  1.000000  1.000000  1.000000 ScalE2=  1.000000  1.000000
 IRadAn=      5 IRanWt=     -1 IRanGd=            0 ICorTp=0
 NAtoms=    5 NActive=    5 NUniq=    5 SFac= 1.00D+00 NAtFMM=   60 NAOKFM=F Big=F
 Leave Link  301 at Mon Dec  2 01:05:45 2019, MaxMem=  268435456 cpu:       0.0
 (Enter /home/matheus/.gaussian/g09/l302.exe)
 NPDir=0 NMtPBC=     1 NCelOv=     1 NCel=       1 NClECP=     1 NCelD=      1
         NCelK=      1 NCelE2=     1 NClLst=     1 CellRange=     0.0.
 One-electron integrals computed using PRISM.
 NBasis=   197 RedAO= T  NBF=   197
 NBsUse=   197 1.00D-06 NBFU=   197
 Leave Link  302 at Mon Dec  2 01:05:45 2019, MaxMem=  268435456 cpu:       0.2
 (Enter /home/matheus/.gaussian/g09/l303.exe)
 DipDrv:  MaxL=1.
 Leave Link  303 at Mon Dec  2 01:05:45 2019, MaxMem=  268435456 cpu:       0.0
 (Enter /home/matheus/.gaussian/g09/l401.exe)
 Harris functional with IExCor=  205 diagonalized for initial guess.
 ExpMin= 2.53D-02 ExpMax= 1.17D+07 ExpMxC= 1.33D+04 IAcc=3 IRadAn=         5 AccDes= 0.00D+00
 HarFok:  IExCor=  205 AccDes= 0.00D+00 IRadAn=         5 IDoV= 1
 ScaDFX=  1.000000  1.000000  1.000000  1.000000
 FoFCou: FMM=F IPFlag=           0 FMFlag=      100000 FMFlg1=           0
         NFxFlg=           0 DoJE=T BraDBF=F KetDBF=T FulRan=T
         Omega=  0.000000  0.000000  1.000000  0.000000  0.000000 ICntrl=     500 IOpCl=  0
         NMat0=    1 NMatS0=    1 NMatT0=    0 NMatD0=    1 NMtDS0=    0 NMtDT0=    0
         I1Cent=           4 NGrid=           0.
 Petite list used in FoFCou.
 Harris En= -2901.93280157367    
 Initial guess orbital symmetries:
       Occupied  (A) (A) (A) (A) (A) (A) (A) (A) (A) (A) (A) (A)
                 (A) (A) (A) (A) (A) (A) (A) (A) (A) (A) (A) (A)
                 (A) (A) (A)
       Virtual   (A) (A) (A) (A) (A) (A) (A) (A) (A) (A) (A) (A)
                 (A) (A) (A) (A) (A) (A) (A) (A) (A) (A) (A) (A)
                 (A) (A) (A) (A) (A) (A) (A) (A) (A) (A) (A) (A)
                 (A) (A) (A) (A) (A) (A) (A) (A) (A) (A) (A) (A)
                 (A) (A) (A) (A) (A) (A) (A) (A) (A) (A) (A) (A)
                 (A) (A) (A) (A) (A) (A) (A) (A) (A) (A) (A) (A)
                 (A) (A) (A) (A) (A) (A) (A) (A) (A) (A) (A) (A)
                 (A) (A) (A) (A) (A) (A) (A) (A) (A) (A) (A) (A)
                 (A) (A) (A) (A) (A) (A) (A) (A) (A) (A) (A) (A)
                 (A) (A) (A) (A) (A) (A) (A) (A) (A) (A) (A) (A)
                 (A) (A) (A) (A) (A) (A) (A) (A) (A) (A) (A) (A)
                 (A) (A) (A) (A) (A) (A) (A) (A) (A) (A) (A) (A)
                 (A) (A) (A) (A) (A) (A) (A) (A) (A) (A) (A) (A)
                 (A) (A) (A) (A) (A) (A) (A) (A) (A) (A) (A) (A)
                 (A) (A)
 The electronic state of the initial guess is 1-A.
 Leave Link  401 at Mon Dec  2 01:05:46 2019, MaxMem=  268435456 cpu:       1.1
 (Enter /home/matheus/.gaussian/g09/l502.exe)
 Closed shell SCF:
 Requested convergence on RMS density matrix=1.00D-08 within 128 cycles.
 Requested convergence on MAX density matrix=1.00D-06.
 Requested convergence on             energy=1.00D-06.
 No special actions if energy rises.
 Using DIIS extrapolation, IDIIS=  1040.
 Integral symmetry usage will be decided dynamically.
 IEnd=      178489 IEndB=      178489 NGot=   268435456 MDV=   268326278
 LenX=   268326278 LenY=   268273396
 Fock matrices will be formed incrementally for  20 cycles.

 Cycle   1  Pass 0  IDiag  1:
 FoFCou: FMM=F IPFlag=           0 FMFlag=      100000 FMFlg1=           0
         NFxFlg=           0 DoJE=F BraDBF=F KetDBF=F FulRan=T
         Omega=  0.000000  0.000000  1.000000  0.000000  0.000000 ICntrl=       0 IOpCl=  0
         NMat0=    1 NMatS0=    1 NMatT0=    0 NMatD0=    1 NMtDS0=    0 NMtDT0=    0
         I1Cent=           0 NGrid=           0.
 Symmetry not used in FoFCou.
 E= -2902.76036641594    
 DIIS: error= 4.19D-02 at cycle   1 NSaved=   1.
 NSaved= 1 IEnMin= 1 EnMin= -2902.76036641594     IErMin= 1 ErrMin= 4.19D-02
 ErrMax= 4.19D-02 EMaxC= 1.00D-01 BMatC= 6.91D-01 BMatP= 6.91D-01
 IDIUse=3 WtCom= 5.81D-01 WtEn= 4.19D-01
 Coeff-Com:  0.100D+01
 Coeff-En:   0.100D+01
 Coeff:      0.100D+01
 Gap=     0.716 Goal=   None    Shift=    0.000
 GapD=    0.716 DampG=2.000 DampE=0.500 DampFc=1.0000 IDamp=-1.
 RMSDP=2.25D-03 MaxDP=1.50D-01              OVMax= 5.25D-02

 Cycle   2  Pass 0  IDiag  1:
 RMSU=  1.57D-03    CP:  1.01D+00
 E= -2902.86500228382     Delta-E=       -0.104635867875 Rises=F Damp=F
 DIIS: error= 7.11D-03 at cycle   2 NSaved=   2.
 NSaved= 2 IEnMin= 2 EnMin= -2902.86500228382     IErMin= 2 ErrMin= 7.11D-03
 ErrMax= 7.11D-03 EMaxC= 1.00D-01 BMatC= 4.01D-02 BMatP= 6.91D-01
 IDIUse=3 WtCom= 9.29D-01 WtEn= 7.11D-02
 Coeff-Com:  0.151D+00 0.849D+00
 Coeff-En:   0.000D+00 0.100D+01
 Coeff:      0.140D+00 0.860D+00
 Gap=     0.547 Goal=   None    Shift=    0.000
 RMSDP=7.96D-04 MaxDP=4.21D-02 DE=-1.05D-01 OVMax= 2.38D-02

 Cycle   3  Pass 0  IDiag  1:
 RMSU=  4.34D-04    CP:  1.01D+00  7.82D-01
 E= -2902.87865031906     Delta-E=       -0.013648035242 Rises=F Damp=F
 DIIS: error= 1.92D-03 at cycle   3 NSaved=   3.
 NSaved= 3 IEnMin= 3 EnMin= -2902.87865031906     IErMin= 3 ErrMin= 1.92D-03
 ErrMax= 1.92D-03 EMaxC= 1.00D-01 BMatC= 2.29D-03 BMatP= 4.01D-02
 IDIUse=3 WtCom= 9.81D-01 WtEn= 1.92D-02
 Coeff-Com: -0.627D-02 0.169D+00 0.837D+00
 Coeff-En:   0.000D+00 0.000D+00 0.100D+01
 Coeff:     -0.615D-02 0.166D+00 0.840D+00
 Gap=     0.531 Goal=   None    Shift=    0.000
 RMSDP=1.24D-04 MaxDP=4.95D-03 DE=-1.36D-02 OVMax= 7.49D-03

 Cycle   4  Pass 0  IDiag  1:
 RMSU=  4.91D-05    CP:  1.01D+00  8.14D-01  8.85D-01
 E= -2902.87975840334     Delta-E=       -0.001108084276 Rises=F Damp=F
 DIIS: error= 3.32D-04 at cycle   4 NSaved=   4.
 NSaved= 4 IEnMin= 4 EnMin= -2902.87975840334     IErMin= 4 ErrMin= 3.32D-04
 ErrMax= 3.32D-04 EMaxC= 1.00D-01 BMatC= 4.73D-05 BMatP= 2.29D-03
 IDIUse=3 WtCom= 9.97D-01 WtEn= 3.32D-03
 Coeff-Com: -0.430D-02 0.102D-01 0.150D+00 0.844D+00
 Coeff-En:   0.000D+00 0.000D+00 0.000D+00 0.100D+01
 Coeff:     -0.429D-02 0.101D-01 0.149D+00 0.845D+00
 Gap=     0.527 Goal=   None    Shift=    0.000
 RMSDP=2.13D-05 MaxDP=7.16D-04 DE=-1.11D-03 OVMax= 1.72D-03

 Cycle   5  Pass 0  IDiag  1:
 RMSU=  1.34D-05    CP:  1.01D+00  8.15D-01  9.00D-01  9.87D-01
 E= -2902.87979921935     Delta-E=       -0.000040816017 Rises=F Damp=F
 DIIS: error= 1.01D-04 at cycle   5 NSaved=   5.
 NSaved= 5 IEnMin= 5 EnMin= -2902.87979921935     IErMin= 5 ErrMin= 1.01D-04
 ErrMax= 1.01D-04 EMaxC= 1.00D-01 BMatC= 3.83D-06 BMatP= 4.73D-05
 IDIUse=3 WtCom= 9.99D-01 WtEn= 1.01D-03
 Coeff-Com:  0.838D-03-0.153D-01-0.735D-01 0.123D-01 0.108D+01
 Coeff-En:   0.000D+00 0.000D+00 0.000D+00 0.000D+00 0.100D+01
 Coeff:      0.838D-03-0.153D-01-0.734D-01 0.123D-01 0.108D+01
 Gap=     0.527 Goal=   None    Shift=    0.000
 RMSDP=1.12D-05 MaxDP=2.88D-04 DE=-4.08D-05 OVMax= 8.10D-04

 Cycle   6  Pass 0  IDiag  1:
 RMSU=  5.18D-06    CP:  1.01D+00  8.13D-01  8.97D-01  1.07D+00  1.25D+00
 E= -2902.87980522599     Delta-E=       -0.000006006638 Rises=F Damp=F
 DIIS: error= 3.06D-05 at cycle   6 NSaved=   6.
 NSaved= 6 IEnMin= 6 EnMin= -2902.87980522599     IErMin= 6 ErrMin= 3.06D-05
 ErrMax= 3.06D-05 EMaxC= 1.00D-01 BMatC= 3.12D-07 BMatP= 3.83D-06
 IDIUse=1 WtCom= 1.00D+00 WtEn= 0.00D+00
 Coeff-Com:  0.252D-03-0.472D-03-0.107D-01-0.597D-01 0.193D-01 0.105D+01
 Coeff:      0.252D-03-0.472D-03-0.107D-01-0.597D-01 0.193D-01 0.105D+01
 Gap=     0.527 Goal=   None    Shift=    0.000
 RMSDP=3.84D-06 MaxDP=1.35D-04 DE=-6.01D-06 OVMax= 3.64D-04

 Initial convergence to 1.0D-05 achieved.  Increase integral accuracy.
 Cycle   7  Pass 1  IDiag  1:
 E= -2902.87980588140     Delta-E=       -0.000000655409 Rises=F Damp=F
 DIIS: error= 1.62D-05 at cycle   1 NSaved=   1.
 NSaved= 1 IEnMin= 1 EnMin= -2902.87980588140     IErMin= 1 ErrMin= 1.62D-05
 ErrMax= 1.62D-05 EMaxC= 1.00D-01 BMatC= 6.32D-08 BMatP= 6.32D-08
 IDIUse=1 WtCom= 1.00D+00 WtEn= 0.00D+00
 Coeff-Com:  0.100D+01
 Coeff:      0.100D+01
 Gap=     0.527 Goal=   None    Shift=    0.000
 RMSDP=3.84D-06 MaxDP=1.35D-04 DE=-6.55D-07 OVMax= 1.67D-04

 Cycle   8  Pass 1  IDiag  1:
 RMSU=  9.64D-07    CP:  1.00D+00
 E= -2902.87980598398     Delta-E=       -0.000000102584 Rises=F Damp=F
 DIIS: error= 1.06D-05 at cycle   2 NSaved=   2.
 NSaved= 2 IEnMin= 2 EnMin= -2902.87980598398     IErMin= 2 ErrMin= 1.06D-05
 ErrMax= 1.06D-05 EMaxC= 1.00D-01 BMatC= 3.18D-08 BMatP= 6.32D-08
 IDIUse=1 WtCom= 1.00D+00 WtEn= 0.00D+00
 Coeff-Com:  0.358D+00 0.642D+00
 Coeff:      0.358D+00 0.642D+00
 Gap=     0.527 Goal=   None    Shift=    0.000
 RMSDP=6.20D-07 MaxDP=2.52D-05 DE=-1.03D-07 OVMax= 6.42D-05

 Cycle   9  Pass 1  IDiag  1:
 RMSU=  4.06D-07    CP:  1.00D+00  1.17D+00
 E= -2902.87980601986     Delta-E=       -0.000000035873 Rises=F Damp=F
 DIIS: error= 4.60D-06 at cycle   3 NSaved=   3.
 NSaved= 3 IEnMin= 3 EnMin= -2902.87980601986     IErMin= 3 ErrMin= 4.60D-06
 ErrMax= 4.60D-06 EMaxC= 1.00D-01 BMatC= 6.46D-09 BMatP= 3.18D-08
 IDIUse=1 WtCom= 1.00D+00 WtEn= 0.00D+00
 Coeff-Com: -0.545D+00-0.366D+00 0.191D+01
 Coeff:     -0.545D+00-0.366D+00 0.191D+01
 Gap=     0.527 Goal=   None    Shift=    0.000
 RMSDP=1.16D-06 MaxDP=2.36D-05 DE=-3.59D-08 OVMax= 1.66D-04

 Cycle  10  Pass 1  IDiag  1:
 RMSU=  1.40D-07    CP:  1.00D+00  1.91D+00  1.95D+00
 E= -2902.87980605039     Delta-E=       -0.000000030532 Rises=F Damp=F
 DIIS: error= 1.09D-06 at cycle   4 NSaved=   4.
 NSaved= 4 IEnMin= 4 EnMin= -2902.87980605039     IErMin= 4 ErrMin= 1.09D-06
 ErrMax= 1.09D-06 EMaxC= 1.00D-01 BMatC= 3.56D-10 BMatP= 6.46D-09
 IDIUse=1 WtCom= 1.00D+00 WtEn= 0.00D+00
 Coeff-Com:  0.137D+00 0.646D-01-0.551D+00 0.135D+01
 Coeff:      0.137D+00 0.646D-01-0.551D+00 0.135D+01
 Gap=     0.527 Goal=   None    Shift=    0.000
 RMSDP=2.06D-07 MaxDP=4.92D-06 DE=-3.05D-08 OVMax= 3.28D-05

 Cycle  11  Pass 1  IDiag  1:
 RMSU=  4.18D-08    CP:  1.00D+00  2.00D+00  2.09D+00  1.65D+00
 E= -2902.87980605189     Delta-E=       -0.000000001502 Rises=F Damp=F
 DIIS: error= 4.38D-07 at cycle   5 NSaved=   5.
 NSaved= 5 IEnMin= 5 EnMin= -2902.87980605189     IErMin= 5 ErrMin= 4.38D-07
 ErrMax= 4.38D-07 EMaxC= 1.00D-01 BMatC= 7.04D-11 BMatP= 3.56D-10
 IDIUse=1 WtCom= 1.00D+00 WtEn= 0.00D+00
 Coeff-Com:  0.137D+00 0.880D-01-0.488D+00 0.176D+00 0.109D+01
 Coeff:      0.137D+00 0.880D-01-0.488D+00 0.176D+00 0.109D+01
 Gap=     0.527 Goal=   None    Shift=    0.000
 RMSDP=8.87D-08 MaxDP=2.06D-06 DE=-1.50D-09 OVMax= 1.38D-05

 Cycle  12  Pass 1  IDiag  1:
 RMSU=  1.53D-08    CP:  1.00D+00  2.04D+00  2.13D+00  1.97D+00  1.35D+00
 E= -2902.87980605210     Delta-E=       -0.000000000206 Rises=F Damp=F
 DIIS: error= 1.39D-07 at cycle   6 NSaved=   6.
 NSaved= 6 IEnMin= 6 EnMin= -2902.87980605210     IErMin= 6 ErrMin= 1.39D-07
 ErrMax= 1.39D-07 EMaxC= 1.00D-01 BMatC= 4.53D-12 BMatP= 7.04D-11
 IDIUse=1 WtCom= 1.00D+00 WtEn= 0.00D+00
 Coeff-Com: -0.909D-02-0.350D-02 0.369D-01-0.109D+00-0.221D-01 0.111D+01
 Coeff:     -0.909D-02-0.350D-02 0.369D-01-0.109D+00-0.221D-01 0.111D+01
 Gap=     0.527 Goal=   None    Shift=    0.000
 RMSDP=1.98D-08 MaxDP=4.18D-07 DE=-2.06D-10 OVMax= 2.79D-06

 Cycle  13  Pass 1  IDiag  1:
 RMSU=  4.00D-09    CP:  1.00D+00  2.04D+00  2.13D+00  2.03D+00  1.54D+00
                    CP:  1.22D+00
 E= -2902.87980605211     Delta-E=       -0.000000000010 Rises=F Damp=F
 DIIS: error= 3.03D-08 at cycle   7 NSaved=   7.
 NSaved= 7 IEnMin= 7 EnMin= -2902.87980605211     IErMin= 7 ErrMin= 3.03D-08
 ErrMax= 3.03D-08 EMaxC= 1.00D-01 BMatC= 3.55D-13 BMatP= 4.53D-12
 IDIUse=1 WtCom= 1.00D+00 WtEn= 0.00D+00
 Coeff-Com: -0.130D-01-0.796D-02 0.465D-01-0.187D-01-0.120D+00 0.777D-01
 Coeff-Com:  0.104D+01
 Coeff:     -0.130D-01-0.796D-02 0.465D-01-0.187D-01-0.120D+00 0.777D-01
 Coeff:      0.104D+01
 Gap=     0.527 Goal=   None    Shift=    0.000
 RMSDP=4.56D-09 MaxDP=9.78D-08 DE=-1.00D-11 OVMax= 5.18D-07

 SCF Done:  E(RHF) =  -2902.87980605     A.U. after   13 cycles
             Convg  =    0.4558D-08             -V/T =  2.0001
 KE= 2.902632273730D+03 PE=-7.238664691522D+03 EE= 1.284024234751D+03
 Leave Link  502 at Mon Dec  2 01:06:34 2019, MaxMem=  268435456 cpu:      96.6
 (Enter /home/matheus/.gaussian/g09/l801.exe)
 Windowed orbitals will be sorted by symmetry type.
 ExpMin= 2.53D-02 ExpMax= 1.17D+07 ExpMxC= 1.33D+04 IAcc=3 IRadAn=         5 AccDes= 0.00D+00
 HarFok:  IExCor=  205 AccDes= 0.00D+00 IRadAn=         5 IDoV=-2
 ScaDFX=  1.000000  1.000000  1.000000  1.000000
 DSYEVD returned Info=          93 IAlg= 4 N=    46 NDim=    46 NE2=     4547561 trying DSYEV.
 DSYEVD returned Info=          93 IAlg= 4 N=    46 NDim=    46 NE2=     4547561 trying DSYEV.
 DSYEVD returned Info=          89 IAlg= 4 N=    59 NDim=    59 NE2=     4547561 trying DSYEV.
 Largest valence mixing into a core orbital is  1.44D-04
 Largest core mixing into a valence orbital is  2.59D-05
 Range of M.O.s used for correlation:    12   197
 NBasis=   197 NAE=    27 NBE=    27 NFC=    11 NFV=     0
 NROrb=    186 NOA=    16 NOB=    16 NVA=   170 NVB=   170

 **** Warning!!: The largest alpha MO coefficient is  0.14806439D+02

 Leave Link  801 at Mon Dec  2 01:06:35 2019, MaxMem=  268435456 cpu:       0.3
 (Enter /home/matheus/.gaussian/g09/l804.exe)
 Closed-shell transformation, MDV=   268435456 ITran=4 ISComp=1.
 Semi-Direct transformation.
 ModeAB=           2 MOrb=            16 LenV=     267326232
 LASXX=     48528660 LTotXX=    48528660 LenRXX=    48528660
 LTotAB=    49298776 MaxLAS=    78372960 LenRXY=    78372960
 NonZer=    97057320 LenScr=   146313216 LnRSAI=           0
 LnScr1=           0 LExtra=           0 Total=    273214836
 MaxDsk=          -1 SrtSym=           F ITran=            4
 DoSDTr:  NPSUse=  2
 JobTyp=0 Pass  1:  I=   1 to  16.
 (rs|ai) integrals will be sorted in core.
 Complete sort for first half transformation.
 First half transformation complete.
 Begin second half transformation for I=  10.
 Begin second half transformation for I=  10.
 Complete sort for second half transformation.
 Second half transformation complete.
 SymMOI:  orbitals are not symmetric.
 Spin components of T(2) and E(2):
     alpha-alpha T2 =       0.2602337055D-01 E2=     -0.1000614048D+00
     alpha-beta  T2 =       0.1421251829D+00 E2=     -0.5569903052D+00
     beta-beta   T2 =       0.2602337055D-01 E2=     -0.1000614048D+00
 ANorm=    0.1092781737D+01
 E2 =    -0.7571131148D+00 EUMP2 =    -0.29036369191669D+04
 Leave Link  804 at Mon Dec  2 01:06:57 2019, MaxMem=  268435456 cpu:      44.7
 (Enter /home/matheus/.gaussian/g09/l913.exe)
 CIDS:  MDV=   268435456.
 Frozen-core window:  NFC=  11 NFV=   0.
 IFCWin=0 IBDFC=1 NFBD=     0     0 NFCmp=     0     0 NFFFC=     0     0
 Using DD3R+UMP44R for 1st iteration, S=T.
 Using DD4RQ for 2nd and later iterations.
 Would need an additional       431206676 words for in-memory AO integral storage.
 MP4(SDTQ)
 =========
 DD1Dir will call FoFDir   1 times, MxPair=       272
 NAB=   136 NAA=     0 NBB=     0 NumPrc=  2.
 Integrals replicated using symmetry in FoFDir.
 MinBra= 0 MaxBra= 3 Meth= 1.
 IRaf=       0 NMat= 272 IRICut=     340 DoRegI=T DoRafI=T ISym2E= 2 JSym2E=2.
 MP4(D)= -0.14982425D-01
 MP4(S)= -0.65057124D-02
 MP4(R+Q)=  0.15450399D-01
 T4(AAA)= -0.10492678D-02
 T4(AAB)= -0.14227654D-01
 Time for triples=     1261.73 seconds.
 MP4(T)=   -0.30553844D-01
 E3=       -0.11176845D-01        EUMP3=      -0.29036480960D+04
 E4(DQ)=    0.46797431D-03        UMP4(DQ)=   -0.29036476280D+04
 E4(SDQ)=  -0.60377381D-02        UMP4(SDQ)=  -0.29036541338D+04
 E4(SDTQ)= -0.36591582D-01        UMP4(SDTQ)= -0.29036846876D+04
 VARIATIONAL ENERGIES WITH THE FIRST-ORDER WAVEFUNCTION:
 E(VAR1)=  -0.29035231723D+04     E(CISD,4)=  -0.29035225740D+04
 Largest amplitude= 2.11D-02
 Leave Link  913 at Mon Dec  2 01:18:23 2019, MaxMem=  268435456 cpu:    1350.3
 (Enter /home/matheus/.gaussian/g09/l601.exe)
 Copying SCF densities to generalized density rwf, IOpCl= 0 IROHF=0.

 **********************************************************************

            Population analysis using the SCF density.

 **********************************************************************

 Orbital symmetries:
       Occupied  (A) (A) (A) (A) (A) (A) (A) (A) (A) (A) (A) (A)
                 (A) (A) (A) (A) (A) (A) (A) (A) (A) (A) (A) (A)
                 (A) (A) (A)
       Virtual   (A) (A) (A) (A) (A) (A) (A) (A) (A) (A) (A) (A)
                 (A) (A) (A) (A) (A) (A) (A) (A) (A) (A) (A) (A)
                 (A) (A) (A) (A) (A) (A) (A) (A) (A) (A) (A) (A)
                 (A) (A) (A) (A) (A) (A) (A) (A) (A) (A) (A) (A)
                 (A) (A) (A) (A) (A) (A) (A) (A) (A) (A) (A) (A)
                 (A) (A) (A) (A) (A) (A) (A) (A) (A) (A) (A) (A)
                 (A) (A) (A) (A) (A) (A) (A) (A) (A) (A) (A) (A)
                 (A) (A) (A) (A) (A) (A) (A) (A) (A) (A) (A) (A)
                 (A) (A) (A) (A) (A) (A) (A) (A) (A) (A) (A) (A)
                 (A) (A) (A) (A) (A) (A) (A) (A) (A) (A) (A) (A)
                 (A) (A) (A) (A) (A) (A) (A) (A) (A) (A) (A) (A)
                 (A) (A) (A) (A) (A) (A) (A) (A) (A) (A) (A) (A)
                 (A) (A) (A) (A) (A) (A) (A) (A) (A) (A) (A) (A)
                 (A) (A) (A) (A) (A) (A) (A) (A) (A) (A) (A) (A)
                 (A) (A)
 The electronic state is 1-A.
 Alpha  occ. eigenvalues -- -520.17773 -69.91528 -63.02186 -63.02184 -63.02181
 Alpha  occ. eigenvalues --  -20.63047 -20.62749 -10.86194  -8.34416  -8.34393
 Alpha  occ. eigenvalues --   -8.34375  -3.83797  -3.83792  -3.83769  -3.83745
 Alpha  occ. eigenvalues --   -3.83741  -1.46740  -1.21793  -1.16793  -0.73585
 Alpha  occ. eigenvalues --   -0.69445  -0.60558  -0.54340  -0.53729  -0.53187
 Alpha  occ. eigenvalues --   -0.49889  -0.49269
 Alpha virt. eigenvalues --    0.03454   0.04522   0.08864   0.09960   0.11648
 Alpha virt. eigenvalues --    0.12564   0.14553   0.15709   0.17689   0.18810
 Alpha virt. eigenvalues --    0.19062   0.21240   0.23048   0.25670   0.26799
 Alpha virt. eigenvalues --    0.27906   0.28368   0.31000   0.33701   0.35433
 Alpha virt. eigenvalues --    0.36063   0.37682   0.38576   0.41857   0.42089
 Alpha virt. eigenvalues --    0.44082   0.46664   0.51552   0.56793   0.59413
 Alpha virt. eigenvalues --    0.60140   0.64751   0.66522   0.69783   0.73973
 Alpha virt. eigenvalues --    0.75652   0.77762   0.78798   0.81519   0.82238
 Alpha virt. eigenvalues --    0.82434   0.83273   0.85454   0.86862   0.89255
 Alpha virt. eigenvalues --    0.90403   0.91469   0.93709   0.94376   0.96561
 Alpha virt. eigenvalues --    0.99149   0.99527   1.00755   1.02584   1.04811
 Alpha virt. eigenvalues --    1.06747   1.10046   1.13775   1.14156   1.16594
 Alpha virt. eigenvalues --    1.17180   1.23098   1.25065   1.27112   1.30320
 Alpha virt. eigenvalues --    1.32597   1.36292   1.44083   1.47224   1.50730
 Alpha virt. eigenvalues --    1.53783   1.58472   1.60248   1.62110   1.69149
 Alpha virt. eigenvalues --    1.78550   1.84798   1.95746   2.05113   2.09408
 Alpha virt. eigenvalues --    2.13626   2.17865   2.21739   2.27837   2.31717
 Alpha virt. eigenvalues --    2.33975   2.36328   2.37448   2.41406   2.43167
 Alpha virt. eigenvalues --    2.44990   2.46366   2.50135   2.52707   2.53567
 Alpha virt. eigenvalues --    2.55619   2.59329   2.61093   2.62971   2.66628
 Alpha virt. eigenvalues --    2.69396   2.69679   2.70408   2.73990   2.76679
 Alpha virt. eigenvalues --    2.77776   2.79777   2.81290   2.86016   2.88880
 Alpha virt. eigenvalues --    2.93227   2.94687   2.96831   3.03575   3.07317
 Alpha virt. eigenvalues --    3.11566   3.24853   3.31119   3.33144   3.82191
 Alpha virt. eigenvalues --    3.87267   4.08588   4.19455   4.27716   4.32722
 Alpha virt. eigenvalues --    4.38354   4.39044   4.43553   4.48649   4.49453
 Alpha virt. eigenvalues --    4.56202   4.75391   4.80634   4.84417   4.94537
 Alpha virt. eigenvalues --    5.14671   5.21226   5.25035   5.42135   5.43730
 Alpha virt. eigenvalues --    5.49371   5.80442   6.17552   6.39306   6.46322
 Alpha virt. eigenvalues --    6.50984   6.63420   6.65687   6.80500   6.85848
 Alpha virt. eigenvalues --    6.92873   7.16926   7.17447   7.19945   7.22240
 Alpha virt. eigenvalues --    7.24420   7.26680   7.29569   7.34455   7.38672
 Alpha virt. eigenvalues --    7.47596   7.53171   7.61625   7.83621   8.04372
 Alpha virt. eigenvalues --    8.20863   8.50217   8.53408  14.65915  15.32935
          Condensed to atoms (all electrons):
              1          2          3          4          5
     1  O    8.122105  -0.074706   0.247914  -0.011253  -0.023723
     2  O   -0.074706   8.147199   0.000654   0.243853  -0.012861
     3  H    0.247914   0.000654   0.486316   0.001286  -0.001439
     4  H   -0.011253   0.243853   0.001286   0.483274  -0.003667
     5  Kr  -0.023723  -0.012861  -0.001439  -0.003667  36.028992
 Mulliken atomic charges:
              1
     1  O   -0.260336
     2  O   -0.304139
     3  H    0.265270
     4  H    0.286507
     5  Kr   0.012698
 Sum of Mulliken atomic charges =   0.00000
 Mulliken charges with hydrogens summed into heavy atoms:
              1
     1  O    0.004933
     2  O   -0.017632
     5  Kr   0.012698
 Sum of Mulliken charges with hydrogens summed into heavy atoms =   0.00000
 Electronic spatial extent (au):  <R**2>=            485.5891
 Charge=              0.0000 electrons
 Dipole moment (field-independent basis, Debye):
    X=             -1.4983    Y=             -0.3932    Z=              1.5610  Tot=              2.1991
 Quadrupole moment (field-independent basis, Debye-Ang):
   XX=            -33.7586   YY=            -27.8658   ZZ=            -28.9071
   XY=             -2.7304   XZ=              3.6719   YZ=             -1.8811
 Traceless Quadrupole moment (field-independent basis, Debye-Ang):
   XX=             -3.5814   YY=              2.3114   ZZ=              1.2700
   XY=             -2.7304   XZ=              3.6719   YZ=             -1.8811
 Octapole moment (field-independent basis, Debye-Ang**2):
  XXX=            -29.3486  YYY=             -1.0804  ZZZ=              1.3223  XYY=             -4.5245
  XXY=             -9.1001  XXZ=              8.0500  XZZ=             -4.7037  YZZ=             -1.8442
  YYZ=              2.3508  XYZ=             -4.3383
 Hexadecapole moment (field-independent basis, Debye-Ang**3):
 XXXX=           -438.8486 YYYY=            -62.2259 ZZZZ=            -28.9236 XXXY=            -21.6044
 XXXZ=             19.2114 YYYX=             -4.9041 YYYZ=             -2.7366 ZZZX=              3.4575
 ZZZY=             -2.0170 XXYY=            -78.8911 XXZZ=            -70.4215 YYZZ=            -15.5599
 XXYZ=            -10.0689 YYXZ=              5.2026 ZZXY=             -3.8264
 N-N= 1.491283769891D+02 E-N=-7.238664692478D+03  KE= 2.902632273730D+03
 Leave Link  601 at Mon Dec  2 01:18:24 2019, MaxMem=  268435456 cpu:       0.2
 (Enter /home/matheus/.gaussian/g09/l108.exe)
 Variable Step   Value    
 -------- ---- -----------
     1       1    5.858151
 Leave Link  108 at Mon Dec  2 01:18:24 2019, MaxMem=  268435456 cpu:       0.0
 (Enter /home/matheus/.gaussian/g09/l202.exe)
 ---------------------------------------------------------------------------------------------------
                            Z-MATRIX (ANGSTROMS AND DEGREES)
   CD    Cent   Atom    N1       Length/X        N2       Alpha/Y        N3        Beta/Z          J
 ---------------------------------------------------------------------------------------------------
      1      1  O        0   0.000000          0.000000          0.725000
      2      2  O        0   0.000000          0.000000         -0.725000
      3      3  H        0   0.904763         -0.159534          1.023510
      4      4  H        0   0.000000          0.918721         -1.023510
      5      5  Kr       0   0.000000          3.100000          0.000000
 ---------------------------------------------------------------------------------------------------
                         Z-Matrix orientation:                         
 ---------------------------------------------------------------------
 Center     Atomic      Atomic             Coordinates (Angstroms)
 Number     Number       Type             X           Y           Z
 ---------------------------------------------------------------------
      1          8           0        0.000000    0.000000    0.725000
      2          8           0        0.000000    0.000000   -0.725000
      3          1           0        0.904763   -0.159534    1.023510
      4          1           0        0.000000    0.918721   -1.023510
      5         36           0        0.000000    3.100000    0.000000
 ---------------------------------------------------------------------
                    Distance matrix (angstroms):
                    1          2          3          4          5
     1  O    0.000000
     2  O    1.450000   0.000000
     3  H    0.966000   1.975180   0.000000
     4  H    1.975180   0.966000   2.484255   0.000000
     5  Kr   3.183650   3.183650   3.534223   2.409472   0.000000
 Stoichiometry    H2KrO2
 Framework group  C1[X(H2KrO2)]
 Deg. of freedom     9
 Full point group                 C1      NOp   1
 RotChk:  IX=0 Diff= 1.52D-03
 Largest Abelian subgroup         C1      NOp   1
 Largest concise Abelian subgroup C1      NOp   1
                         Standard orientation:                         
 ---------------------------------------------------------------------
 Center     Atomic      Atomic             Coordinates (Angstroms)
 Number     Number       Type             X           Y           Z
 ---------------------------------------------------------------------
      1          8           0        2.087872   -0.694257   -0.118839
      2          8           0        2.072039    0.749513    0.014492
      3          1           0        2.267040   -1.072492    0.751789
      4          1           0        1.150265    1.035221    0.057612
      5         36           0       -1.019350   -0.011244    0.000705
 ---------------------------------------------------------------------
 Rotational constants (GHZ):     25.6306134      2.1894635      2.0293115
 Leave Link  202 at Mon Dec  2 01:18:24 2019, MaxMem=  268435456 cpu:       0.0
 (Enter /home/matheus/.gaussian/g09/l301.exe)
 Standard basis: Aug-CC-pVTZ (5D, 7F)
 Ernie: Thresh=  0.10000D-02 Tol=  0.10000D-05 Strict=F.
 Ernie:  38 primitive shells out of 205 were deleted.
 There are   197 symmetry adapted basis functions of A   symmetry.
 Integral buffers will be    131072 words long.
 Raffenetti 1 integral format.
 Two-electron integral symmetry is turned on.
   197 basis functions,   415 primitive gaussians,   229 cartesian basis functions
    27 alpha electrons       27 beta electrons
       nuclear repulsion energy       145.6590542339 Hartrees.
 IExCor=    0 DFT=F Ex=HF Corr=None ExCW=0 ScaHFX=  1.000000
 ScaDFX=  1.000000  1.000000  1.000000  1.000000 ScalE2=  1.000000  1.000000
 IRadAn=      5 IRanWt=     -1 IRanGd=            0 ICorTp=0
 NAtoms=    5 NActive=    5 NUniq=    5 SFac= 1.00D+00 NAtFMM=   60 NAOKFM=F Big=F
 Leave Link  301 at Mon Dec  2 01:18:24 2019, MaxMem=  268435456 cpu:       0.0
 (Enter /home/matheus/.gaussian/g09/l302.exe)
 NPDir=0 NMtPBC=     1 NCelOv=     1 NCel=       1 NClECP=     1 NCelD=      1
         NCelK=      1 NCelE2=     1 NClLst=     1 CellRange=     0.0.
 One-electron integrals computed using PRISM.
 NBasis=   197 RedAO= T  NBF=   197
 NBsUse=   197 1.00D-06 NBFU=   197
 Leave Link  302 at Mon Dec  2 01:18:24 2019, MaxMem=  268435456 cpu:       0.2
 (Enter /home/matheus/.gaussian/g09/l303.exe)
 DipDrv:  MaxL=1.
 Leave Link  303 at Mon Dec  2 01:18:24 2019, MaxMem=  268435456 cpu:       0.0
 (Enter /home/matheus/.gaussian/g09/l401.exe)
 Initial guess read from the read-write file.
 B after Tr=     0.000000    0.000000    0.000000
         Rot=    1.000000    0.000000    0.000000    0.000000 Ang=   0.00 deg.
 Guess basis will be translated and rotated to current coordinates.
 Initial guess orbital symmetries:
       Occupied  (A) (A) (A) (A) (A) (A) (A) (A) (A) (A) (A) (A)
                 (A) (A) (A) (A) (A) (A) (A) (A) (A) (A) (A) (A)
                 (A) (A) (A)
       Virtual   (A) (A) (A) (A) (A) (A) (A) (A) (A) (A) (A) (A)
                 (A) (A) (A) (A) (A) (A) (A) (A) (A) (A) (A) (A)
                 (A) (A) (A) (A) (A) (A) (A) (A) (A) (A) (A) (A)
                 (A) (A) (A) (A) (A) (A) (A) (A) (A) (A) (A) (A)
                 (A) (A) (A) (A) (A) (A) (A) (A) (A) (A) (A) (A)
                 (A) (A) (A) (A) (A) (A) (A) (A) (A) (A) (A) (A)
                 (A) (A) (A) (A) (A) (A) (A) (A) (A) (A) (A) (A)
                 (A) (A) (A) (A) (A) (A) (A) (A) (A) (A) (A) (A)
                 (A) (A) (A) (A) (A) (A) (A) (A) (A) (A) (A) (A)
                 (A) (A) (A) (A) (A) (A) (A) (A) (A) (A) (A) (A)
                 (A) (A) (A) (A) (A) (A) (A) (A) (A) (A) (A) (A)
                 (A) (A) (A) (A) (A) (A) (A) (A) (A) (A) (A) (A)
                 (A) (A) (A) (A) (A) (A) (A) (A) (A) (A) (A) (A)
                 (A) (A) (A) (A) (A) (A) (A) (A) (A) (A) (A) (A)
                 (A) (A)
 The electronic state of the initial guess is 1-A.
 Generating alternative initial guess.
 Harris functional with IExCor=  205 diagonalized for initial guess.
 ExpMin= 2.53D-02 ExpMax= 1.17D+07 ExpMxC= 1.33D+04 IAcc=3 IRadAn=         5 AccDes= 0.00D+00
 HarFok:  IExCor=  205 AccDes= 0.00D+00 IRadAn=         5 IDoV= 1
 ScaDFX=  1.000000  1.000000  1.000000  1.000000
 FoFCou: FMM=F IPFlag=           0 FMFlag=      100000 FMFlg1=           0
         NFxFlg=           0 DoJE=T BraDBF=F KetDBF=T FulRan=T
         Omega=  0.000000  0.000000  1.000000  0.000000  0.000000 ICntrl=     500 IOpCl=  0
         NMat0=    1 NMatS0=    1 NMatT0=    0 NMatD0=    1 NMtDS0=    0 NMtDT0=    0
         I1Cent=           4 NGrid=           0.
 Petite list used in FoFCou.
 Harris En= -2901.93387277445    
 Leave Link  401 at Mon Dec  2 01:18:24 2019, MaxMem=  268435456 cpu:       1.2
 (Enter /home/matheus/.gaussian/g09/l502.exe)
 Closed shell SCF:
 Requested convergence on RMS density matrix=1.00D-08 within 128 cycles.
 Requested convergence on MAX density matrix=1.00D-06.
 Requested convergence on             energy=1.00D-06.
 No special actions if energy rises.
 Using DIIS extrapolation, IDIIS=  1040.
 Integral symmetry usage will be decided dynamically.
 IEnd=      178489 IEndB=      178489 NGot=   268435456 MDV=   268326278
 LenX=   268326278 LenY=   268273396
 Fock matrices will be formed incrementally for  20 cycles.

 Cycle   1  Pass 0  IDiag  1:
 FoFCou: FMM=F IPFlag=           0 FMFlag=      100000 FMFlg1=           0
         NFxFlg=           0 DoJE=F BraDBF=F KetDBF=F FulRan=T
         Omega=  0.000000  0.000000  1.000000  0.000000  0.000000 ICntrl=       0 IOpCl=  0
         NMat0=    1 NMatS0=    1 NMatT0=    0 NMatD0=    1 NMtDS0=    0 NMtDT0=    0
         I1Cent=           0 NGrid=           0.
 Symmetry not used in FoFCou.
 E= -2902.88225387417    
 DIIS: error= 4.80D-04 at cycle   1 NSaved=   1.
 NSaved= 1 IEnMin= 1 EnMin= -2902.88225387417     IErMin= 1 ErrMin= 4.80D-04
 ErrMax= 4.80D-04 EMaxC= 1.00D-01 BMatC= 6.86D-05 BMatP= 6.86D-05
 IDIUse=3 WtCom= 9.95D-01 WtEn= 4.80D-03
 Coeff-Com:  0.100D+01
 Coeff-En:   0.100D+01
 Coeff:      0.100D+01
 Gap=     0.529 Goal=   None    Shift=    0.000
 RMSDP=6.82D-05 MaxDP=2.94D-03              OVMax= 2.91D-03

 Cycle   2  Pass 0  IDiag  1:
 RMSU=  4.82D-05    CP:  1.00D+00
 E= -2902.88233477964     Delta-E=       -0.000080905471 Rises=F Damp=F
 DIIS: error= 7.28D-05 at cycle   2 NSaved=   2.
 NSaved= 2 IEnMin= 2 EnMin= -2902.88233477964     IErMin= 2 ErrMin= 7.28D-05
 ErrMax= 7.28D-05 EMaxC= 1.00D-01 BMatC= 2.39D-06 BMatP= 6.86D-05
 IDIUse=1 WtCom= 1.00D+00 WtEn= 0.00D+00
 Coeff-Com: -0.763D-01 0.108D+01
 Coeff:     -0.763D-01 0.108D+01
 Gap=     0.528 Goal=   None    Shift=    0.000
 RMSDP=1.26D-05 MaxDP=4.79D-04 DE=-8.09D-05 OVMax= 6.36D-04

 Cycle   3  Pass 0  IDiag  1:
 RMSU=  6.04D-06    CP:  1.00D+00  1.14D+00
 E= -2902.88233820404     Delta-E=       -0.000003424407 Rises=F Damp=F
 DIIS: error= 3.08D-05 at cycle   3 NSaved=   3.
 NSaved= 3 IEnMin= 3 EnMin= -2902.88233820404     IErMin= 3 ErrMin= 3.08D-05
 ErrMax= 3.08D-05 EMaxC= 1.00D-01 BMatC= 3.86D-07 BMatP= 2.39D-06
 IDIUse=1 WtCom= 1.00D+00 WtEn= 0.00D+00
 Coeff-Com: -0.439D-01 0.263D+00 0.781D+00
 Coeff:     -0.439D-01 0.263D+00 0.781D+00
 Gap=     0.528 Goal=   None    Shift=    0.000
 RMSDP=2.42D-06 MaxDP=6.94D-05 DE=-3.42D-06 OVMax= 1.58D-04

 Initial convergence to 1.0D-05 achieved.  Increase integral accuracy.
 Cycle   4  Pass 1  IDiag  1:
 E= -2902.88233856296     Delta-E=       -0.000000358918 Rises=F Damp=F
 DIIS: error= 9.47D-06 at cycle   1 NSaved=   1.
 NSaved= 1 IEnMin= 1 EnMin= -2902.88233856296     IErMin= 1 ErrMin= 9.47D-06
 ErrMax= 9.47D-06 EMaxC= 1.00D-01 BMatC= 3.74D-08 BMatP= 3.74D-08
 IDIUse=1 WtCom= 1.00D+00 WtEn= 0.00D+00
 Coeff-Com:  0.100D+01
 Coeff:      0.100D+01
 Gap=     0.528 Goal=   None    Shift=    0.000
 RMSDP=2.42D-06 MaxDP=6.94D-05 DE=-3.59D-07 OVMax= 6.47D-05

 Cycle   5  Pass 1  IDiag  1:
 RMSU=  8.25D-07    CP:  1.00D+00
 E= -2902.88233861295     Delta-E=       -0.000000049986 Rises=F Damp=F
 DIIS: error= 6.05D-06 at cycle   2 NSaved=   2.
 NSaved= 2 IEnMin= 2 EnMin= -2902.88233861295     IErMin= 2 ErrMin= 6.05D-06
 ErrMax= 6.05D-06 EMaxC= 1.00D-01 BMatC= 1.39D-08 BMatP= 3.74D-08
 IDIUse=1 WtCom= 1.00D+00 WtEn= 0.00D+00
 Coeff-Com:  0.316D+00 0.684D+00
 Coeff:      0.316D+00 0.684D+00
 Gap=     0.528 Goal=   None    Shift=    0.000
 RMSDP=3.59D-07 MaxDP=1.32D-05 DE=-5.00D-08 OVMax= 3.43D-05

 Cycle   6  Pass 1  IDiag  1:
 RMSU=  2.46D-07    CP:  1.00D+00  1.08D+00
 E= -2902.88233862669     Delta-E=       -0.000000013741 Rises=F Damp=F
 DIIS: error= 2.56D-06 at cycle   3 NSaved=   3.
 NSaved= 3 IEnMin= 3 EnMin= -2902.88233862669     IErMin= 3 ErrMin= 2.56D-06
 ErrMax= 2.56D-06 EMaxC= 1.00D-01 BMatC= 2.30D-09 BMatP= 1.39D-08
 IDIUse=1 WtCom= 1.00D+00 WtEn= 0.00D+00
 Coeff-Com: -0.331D+00-0.927D-01 0.142D+01
 Coeff:     -0.331D+00-0.927D-01 0.142D+01
 Gap=     0.528 Goal=   None    Shift=    0.000
 RMSDP=4.44D-07 MaxDP=1.21D-05 DE=-1.37D-08 OVMax= 2.99D-05

 Cycle   7  Pass 1  IDiag  1:
 RMSU=  1.04D-07    CP:  1.00D+00  1.42D+00  1.39D+00
 E= -2902.88233863234     Delta-E=       -0.000000005656 Rises=F Damp=F
 DIIS: error= 6.30D-07 at cycle   4 NSaved=   4.
 NSaved= 4 IEnMin= 4 EnMin= -2902.88233863234     IErMin= 4 ErrMin= 6.30D-07
 ErrMax= 6.30D-07 EMaxC= 1.00D-01 BMatC= 1.03D-10 BMatP= 2.30D-09
 IDIUse=1 WtCom= 1.00D+00 WtEn= 0.00D+00
 Coeff-Com: -0.876D-01-0.423D-01 0.296D+00 0.834D+00
 Coeff:     -0.876D-01-0.423D-01 0.296D+00 0.834D+00
 Gap=     0.528 Goal=   None    Shift=    0.000
 RMSDP=5.81D-08 MaxDP=2.06D-06 DE=-5.66D-09 OVMax= 4.68D-06

 Cycle   8  Pass 1  IDiag  1:
 RMSU=  2.69D-08    CP:  1.00D+00  1.43D+00  1.43D+00  1.25D+00
 E= -2902.88233863251     Delta-E=       -0.000000000165 Rises=F Damp=F
 DIIS: error= 2.59D-07 at cycle   5 NSaved=   5.
 NSaved= 5 IEnMin= 5 EnMin= -2902.88233863251     IErMin= 5 ErrMin= 2.59D-07
 ErrMax= 2.59D-07 EMaxC= 1.00D-01 BMatC= 1.67D-11 BMatP= 1.03D-10
 IDIUse=1 WtCom= 1.00D+00 WtEn= 0.00D+00
 Coeff-Com:  0.677D-01 0.303D-01-0.298D+00-0.885D-01 0.129D+01
 Coeff:      0.677D-01 0.303D-01-0.298D+00-0.885D-01 0.129D+01
 Gap=     0.528 Goal=   None    Shift=    0.000
 RMSDP=4.06D-08 MaxDP=1.02D-06 DE=-1.65D-10 OVMax= 3.46D-06

 Cycle   9  Pass 1  IDiag  1:
 RMSU=  1.07D-08    CP:  1.00D+00  1.43D+00  1.43D+00  1.49D+00  1.35D+00
 E= -2902.88233863255     Delta-E=       -0.000000000040 Rises=F Damp=F
 DIIS: error= 6.15D-08 at cycle   6 NSaved=   6.
 NSaved= 6 IEnMin= 6 EnMin= -2902.88233863255     IErMin= 6 ErrMin= 6.15D-08
 ErrMax= 6.15D-08 EMaxC= 1.00D-01 BMatC= 1.16D-12 BMatP= 1.67D-11
 IDIUse=1 WtCom= 1.00D+00 WtEn= 0.00D+00
 Coeff-Com: -0.735D-02-0.514D-03 0.331D-01-0.287D-01-0.232D+00 0.124D+01
 Coeff:     -0.735D-02-0.514D-03 0.331D-01-0.287D-01-0.232D+00 0.124D+01
 Gap=     0.528 Goal=   None    Shift=    0.000
 RMSDP=9.51D-09 MaxDP=1.86D-07 DE=-4.00D-11 OVMax= 1.29D-06

 SCF Done:  E(RHF) =  -2902.88233863     A.U. after    9 cycles
             Convg  =    0.9513D-08             -V/T =  2.0001
 KE= 2.902613644339D+03 PE=-7.231715085142D+03 EE= 1.280560047936D+03
 Leave Link  502 at Mon Dec  2 01:18:57 2019, MaxMem=  268435456 cpu:      64.7
 (Enter /home/matheus/.gaussian/g09/l801.exe)
 Windowed orbitals will be sorted by symmetry type.
 ExpMin= 2.53D-02 ExpMax= 1.17D+07 ExpMxC= 1.33D+04 IAcc=3 IRadAn=         5 AccDes= 0.00D+00
 HarFok:  IExCor=  205 AccDes= 0.00D+00 IRadAn=         5 IDoV=-2
 ScaDFX=  1.000000  1.000000  1.000000  1.000000
 DSYEVD returned Info=          93 IAlg= 4 N=    46 NDim=    46 NE2=     4547561 trying DSYEV.
 DSYEVD returned Info=          93 IAlg= 4 N=    46 NDim=    46 NE2=     4547561 trying DSYEV.
 Largest valence mixing into a core orbital is  1.44D-04
 Largest core mixing into a valence orbital is  2.60D-05
 Range of M.O.s used for correlation:    12   197
 NBasis=   197 NAE=    27 NBE=    27 NFC=    11 NFV=     0
 NROrb=    186 NOA=    16 NOB=    16 NVA=   170 NVB=   170

 **** Warning!!: The largest alpha MO coefficient is  0.16056670D+02

 Leave Link  801 at Mon Dec  2 01:18:57 2019, MaxMem=  268435456 cpu:       0.2
 (Enter /home/matheus/.gaussian/g09/l804.exe)
 Closed-shell transformation, MDV=   268435456 ITran=4 ISComp=1.
 Semi-Direct transformation.
 ModeAB=           2 MOrb=            16 LenV=     267327426
 LASXX=     48528660 LTotXX=    48528660 LenRXX=    48528660
 LTotAB=    49298776 MaxLAS=    78372960 LenRXY=    78372960
 NonZer=    97057320 LenScr=   146313216 LnRSAI=           0
 LnScr1=           0 LExtra=           0 Total=    273214836
 MaxDsk=          -1 SrtSym=           F ITran=            4
 DoSDTr:  NPSUse=  2
 JobTyp=0 Pass  1:  I=   1 to  16.
 (rs|ai) integrals will be sorted in core.
 Complete sort for first half transformation.
 First half transformation complete.
 Begin second half transformation for I=  10.
 Begin second half transformation for I=  10.
 Complete sort for second half transformation.
 Second half transformation complete.
 SymMOI:  orbitals are not symmetric.
 Spin components of T(2) and E(2):
     alpha-alpha T2 =       0.2594930150D-01 E2=     -0.9980264248D-01
     alpha-beta  T2 =       0.1420331638D+00 E2=     -0.5564035852D+00
     beta-beta   T2 =       0.2594930150D-01 E2=     -0.9980264248D-01
 ANorm=    0.1092671848D+01
 E2 =    -0.7560088702D+00 EUMP2 =    -0.29036383475027D+04
 Leave Link  804 at Mon Dec  2 01:19:21 2019, MaxMem=  268435456 cpu:      45.9
 (Enter /home/matheus/.gaussian/g09/l913.exe)
 CIDS:  MDV=   268435456.
 Frozen-core window:  NFC=  11 NFV=   0.
 IFCWin=0 IBDFC=1 NFBD=     0     0 NFCmp=     0     0 NFFFC=     0     0
 Using DD3R+UMP44R for 1st iteration, S=T.
 Using DD4RQ for 2nd and later iterations.
 Would need an additional       431206676 words for in-memory AO integral storage.
 MP4(SDTQ)
 =========
 DD1Dir will call FoFDir   1 times, MxPair=       272
 NAB=   136 NAA=     0 NBB=     0 NumPrc=  2.
 Integrals replicated using symmetry in FoFDir.
 MinBra= 0 MaxBra= 3 Meth= 1.
 IRaf=       0 NMat= 272 IRICut=     340 DoRegI=T DoRafI=T ISym2E= 2 JSym2E=2.
 MP4(D)= -0.14982010D-01
 MP4(S)= -0.64769197D-02
 MP4(R+Q)=  0.15377832D-01
 T4(AAA)= -0.10392851D-02
 T4(AAB)= -0.14164142D-01
 Time for triples=     1269.18 seconds.
 MP4(T)=   -0.30406855D-01
 E3=       -0.11324327D-01        EUMP3=      -0.29036496718D+04
 E4(DQ)=    0.39582209D-03        UMP4(DQ)=   -0.29036492760D+04
 E4(SDQ)=  -0.60810976D-02        UMP4(SDQ)=  -0.29036557529D+04
 E4(SDTQ)= -0.36487953D-01        UMP4(SDTQ)= -0.29036861598D+04
 VARIATIONAL ENERGIES WITH THE FIRST-ORDER WAVEFUNCTION:
 E(VAR1)=  -0.29035250330D+04     E(CISD,4)=  -0.29035245166D+04
 Largest amplitude= 2.62D-02
 Leave Link  913 at Mon Dec  2 01:30:51 2019, MaxMem=  268435456 cpu:    1357.3
 (Enter /home/matheus/.gaussian/g09/l108.exe)
 Variable Step   Value    
 -------- ---- -----------
     1       2    6.047124
 Leave Link  108 at Mon Dec  2 01:30:51 2019, MaxMem=  268435456 cpu:       0.2
 (Enter /home/matheus/.gaussian/g09/l202.exe)
 ---------------------------------------------------------------------------------------------------
                            Z-MATRIX (ANGSTROMS AND DEGREES)
   CD    Cent   Atom    N1       Length/X        N2       Alpha/Y        N3        Beta/Z          J
 ---------------------------------------------------------------------------------------------------
      1      1  O        0   0.000000          0.000000          0.725000
      2      2  O        0   0.000000          0.000000         -0.725000
      3      3  H        0   0.904763         -0.159534          1.023510
      4      4  H        0   0.000000          0.918721         -1.023510
      5      5  Kr       0   0.000000          3.200000          0.000000
 ---------------------------------------------------------------------------------------------------
                         Z-Matrix orientation:                         
 ---------------------------------------------------------------------
 Center     Atomic      Atomic             Coordinates (Angstroms)
 Number     Number       Type             X           Y           Z
 ---------------------------------------------------------------------
      1          8           0        0.000000    0.000000    0.725000
      2          8           0        0.000000    0.000000   -0.725000
      3          1           0        0.904763   -0.159534    1.023510
      4          1           0        0.000000    0.918721   -1.023510
      5         36           0        0.000000    3.200000    0.000000
 ---------------------------------------------------------------------
                    Distance matrix (angstroms):
                    1          2          3          4          5
     1  O    0.000000
     2  O    1.450000   0.000000
     3  H    0.966000   1.975180   0.000000
     4  H    1.975180   0.966000   2.484255   0.000000
     5  Kr   3.281101   3.281101   3.626657   2.500362   0.000000
 Stoichiometry    H2KrO2
 Framework group  C1[X(H2KrO2)]
 Deg. of freedom     9
 Full point group                 C1      NOp   1
 RotChk:  IX=0 Diff= 1.39D-03
 Largest Abelian subgroup         C1      NOp   1
 Largest concise Abelian subgroup C1      NOp   1
                         Standard orientation:                         
 ---------------------------------------------------------------------
 Center     Atomic      Atomic             Coordinates (Angstroms)
 Number     Number       Type             X           Y           Z
 ---------------------------------------------------------------------
      1          8           0        2.154035   -0.695137   -0.118818
      2          8           0        2.139283    0.748636    0.014606
      3          1           0        2.332412   -1.073576    0.751884
      4          1           0        1.217713    1.035079    0.057230
      5         36           0       -1.052685   -0.010819    0.000683
 ---------------------------------------------------------------------
 Rotational constants (GHZ):     25.6299646      2.0547275      1.9130396
 Leave Link  202 at Mon Dec  2 01:30:51 2019, MaxMem=  268435456 cpu:       0.0
 (Enter /home/matheus/.gaussian/g09/l301.exe)
 Standard basis: Aug-CC-pVTZ (5D, 7F)
 Ernie: Thresh=  0.10000D-02 Tol=  0.10000D-05 Strict=F.
 Ernie:  38 primitive shells out of 205 were deleted.
 There are   197 symmetry adapted basis functions of A   symmetry.
 Integral buffers will be    131072 words long.
 Raffenetti 1 integral format.
 Two-electron integral symmetry is turned on.
   197 basis functions,   415 primitive gaussians,   229 cartesian basis functions
    27 alpha electrons       27 beta electrons
       nuclear repulsion energy       142.3906715005 Hartrees.
 IExCor=    0 DFT=F Ex=HF Corr=None ExCW=0 ScaHFX=  1.000000
 ScaDFX=  1.000000  1.000000  1.000000  1.000000 ScalE2=  1.000000  1.000000
 IRadAn=      5 IRanWt=     -1 IRanGd=            0 ICorTp=0
 NAtoms=    5 NActive=    5 NUniq=    5 SFac= 1.00D+00 NAtFMM=   60 NAOKFM=F Big=F
 Leave Link  301 at Mon Dec  2 01:30:51 2019, MaxMem=  268435456 cpu:       0.1
 (Enter /home/matheus/.gaussian/g09/l302.exe)
 NPDir=0 NMtPBC=     1 NCelOv=     1 NCel=       1 NClECP=     1 NCelD=      1
         NCelK=      1 NCelE2=     1 NClLst=     1 CellRange=     0.0.
 One-electron integrals computed using PRISM.
 NBasis=   197 RedAO= T  NBF=   197
 NBsUse=   197 1.00D-06 NBFU=   197
 Leave Link  302 at Mon Dec  2 01:30:52 2019, MaxMem=  268435456 cpu:       0.3
 (Enter /home/matheus/.gaussian/g09/l303.exe)
 DipDrv:  MaxL=1.
 Leave Link  303 at Mon Dec  2 01:30:52 2019, MaxMem=  268435456 cpu:       0.1
 (Enter /home/matheus/.gaussian/g09/l401.exe)
 Initial guess read from the read-write file.
 B after Tr=     0.000000    0.000000    0.000000
         Rot=    1.000000    0.000000    0.000000    0.000000 Ang=   0.00 deg.
 Guess basis will be translated and rotated to current coordinates.
 Initial guess orbital symmetries:
       Occupied  (A) (A) (A) (A) (A) (A) (A) (A) (A) (A) (A) (A)
                 (A) (A) (A) (A) (A) (A) (A) (A) (A) (A) (A) (A)
                 (A) (A) (A)
       Virtual   (A) (A) (A) (A) (A) (A) (A) (A) (A) (A) (A) (A)
                 (A) (A) (A) (A) (A) (A) (A) (A) (A) (A) (A) (A)
                 (A) (A) (A) (A) (A) (A) (A) (A) (A) (A) (A) (A)
                 (A) (A) (A) (A) (A) (A) (A) (A) (A) (A) (A) (A)
                 (A) (A) (A) (A) (A) (A) (A) (A) (A) (A) (A) (A)
                 (A) (A) (A) (A) (A) (A) (A) (A) (A) (A) (A) (A)
                 (A) (A) (A) (A) (A) (A) (A) (A) (A) (A) (A) (A)
                 (A) (A) (A) (A) (A) (A) (A) (A) (A) (A) (A) (A)
                 (A) (A) (A) (A) (A) (A) (A) (A) (A) (A) (A) (A)
                 (A) (A) (A) (A) (A) (A) (A) (A) (A) (A) (A) (A)
                 (A) (A) (A) (A) (A) (A) (A) (A) (A) (A) (A) (A)
                 (A) (A) (A) (A) (A) (A) (A) (A) (A) (A) (A) (A)
                 (A) (A) (A) (A) (A) (A) (A) (A) (A) (A) (A) (A)
                 (A) (A) (A) (A) (A) (A) (A) (A) (A) (A) (A) (A)
                 (A) (A)
 The electronic state of the initial guess is 1-A.
 Generating alternative initial guess.
 Harris functional with IExCor=  205 diagonalized for initial guess.
 ExpMin= 2.53D-02 ExpMax= 1.17D+07 ExpMxC= 1.33D+04 IAcc=3 IRadAn=         5 AccDes= 0.00D+00
 HarFok:  IExCor=  205 AccDes= 0.00D+00 IRadAn=         5 IDoV= 1
 ScaDFX=  1.000000  1.000000  1.000000  1.000000
 FoFCou: FMM=F IPFlag=           0 FMFlag=      100000 FMFlg1=           0
         NFxFlg=           0 DoJE=T BraDBF=F KetDBF=T FulRan=T
         Omega=  0.000000  0.000000  1.000000  0.000000  0.000000 ICntrl=     500 IOpCl=  0
         NMat0=    1 NMatS0=    1 NMatT0=    0 NMatD0=    1 NMtDS0=    0 NMtDT0=    0
         I1Cent=           4 NGrid=           0.
 Petite list used in FoFCou.
 Harris En= -2901.93450054898    
 Leave Link  401 at Mon Dec  2 01:30:53 2019, MaxMem=  268435456 cpu:       1.5
 (Enter /home/matheus/.gaussian/g09/l502.exe)
 Closed shell SCF:
 Requested convergence on RMS density matrix=1.00D-08 within 128 cycles.
 Requested convergence on MAX density matrix=1.00D-06.
 Requested convergence on             energy=1.00D-06.
 No special actions if energy rises.
 Using DIIS extrapolation, IDIIS=  1040.
 Integral symmetry usage will be decided dynamically.
 IEnd=      178489 IEndB=      178489 NGot=   268435456 MDV=   268326278
 LenX=   268326278 LenY=   268273396
 Fock matrices will be formed incrementally for  20 cycles.

 Cycle   1  Pass 0  IDiag  1:
 FoFCou: FMM=F IPFlag=           0 FMFlag=      100000 FMFlg1=           0
         NFxFlg=           0 DoJE=F BraDBF=F KetDBF=F FulRan=T
         Omega=  0.000000  0.000000  1.000000  0.000000  0.000000 ICntrl=       0 IOpCl=  0
         NMat0=    1 NMatS0=    1 NMatT0=    0 NMatD0=    1 NMtDS0=    0 NMtDT0=    0
         I1Cent=           0 NGrid=           0.
 Symmetry not used in FoFCou.
 E= -2902.88407520711    
 DIIS: error= 3.76D-04 at cycle   1 NSaved=   1.
 NSaved= 1 IEnMin= 1 EnMin= -2902.88407520711     IErMin= 1 ErrMin= 3.76D-04
 ErrMax= 3.76D-04 EMaxC= 1.00D-01 BMatC= 5.14D-05 BMatP= 5.14D-05
 IDIUse=3 WtCom= 9.96D-01 WtEn= 3.76D-03
 Coeff-Com:  0.100D+01
 Coeff-En:   0.100D+01
 Coeff:      0.100D+01
 Gap=     0.530 Goal=   None    Shift=    0.000
 RMSDP=6.02D-05 MaxDP=2.07D-03              OVMax= 2.65D-03

 Cycle   2  Pass 0  IDiag  1:
 RMSU=  4.26D-05    CP:  1.00D+00
 E= -2902.88413615988     Delta-E=       -0.000060952767 Rises=F Damp=F
 DIIS: error= 7.16D-05 at cycle   2 NSaved=   2.
 NSaved= 2 IEnMin= 2 EnMin= -2902.88413615988     IErMin= 2 ErrMin= 7.16D-05
 ErrMax= 7.16D-05 EMaxC= 1.00D-01 BMatC= 1.63D-06 BMatP= 5.14D-05
 IDIUse=1 WtCom= 1.00D+00 WtEn= 0.00D+00
 Coeff-Com: -0.827D-01 0.108D+01
 Coeff:     -0.827D-01 0.108D+01
 Gap=     0.529 Goal=   None    Shift=    0.000
 RMSDP=1.08D-05 MaxDP=3.94D-04 DE=-6.10D-05 OVMax= 5.84D-04

 Cycle   3  Pass 0  IDiag  1:
 RMSU=  5.11D-06    CP:  1.00D+00  1.13D+00
 E= -2902.88413864144     Delta-E=       -0.000002481563 Rises=F Damp=F
 DIIS: error= 2.51D-05 at cycle   3 NSaved=   3.
 NSaved= 3 IEnMin= 3 EnMin= -2902.88413864144     IErMin= 3 ErrMin= 2.51D-05
 ErrMax= 2.51D-05 EMaxC= 1.00D-01 BMatC= 2.36D-07 BMatP= 1.63D-06
 IDIUse=1 WtCom= 1.00D+00 WtEn= 0.00D+00
 Coeff-Com: -0.405D-01 0.247D+00 0.794D+00
 Coeff:     -0.405D-01 0.247D+00 0.794D+00
 Gap=     0.529 Goal=   None    Shift=    0.000
 RMSDP=2.05D-06 MaxDP=6.65D-05 DE=-2.48D-06 OVMax= 1.38D-04

 Initial convergence to 1.0D-05 achieved.  Increase integral accuracy.
 Cycle   4  Pass 1  IDiag  1:
 E= -2902.88413887328     Delta-E=       -0.000000231834 Rises=F Damp=F
 DIIS: error= 7.65D-06 at cycle   1 NSaved=   1.
 NSaved= 1 IEnMin= 1 EnMin= -2902.88413887328     IErMin= 1 ErrMin= 7.65D-06
 ErrMax= 7.65D-06 EMaxC= 1.00D-01 BMatC= 2.63D-08 BMatP= 2.63D-08
 IDIUse=1 WtCom= 1.00D+00 WtEn= 0.00D+00
 Coeff-Com:  0.100D+01
 Coeff:      0.100D+01
 Gap=     0.529 Goal=   None    Shift=    0.000
 RMSDP=2.05D-06 MaxDP=6.65D-05 DE=-2.32D-07 OVMax= 5.57D-05

 Cycle   5  Pass 1  IDiag  1:
 RMSU=  7.15D-07    CP:  1.00D+00
 E= -2902.88413890849     Delta-E=       -0.000000035211 Rises=F Damp=F
 DIIS: error= 4.90D-06 at cycle   2 NSaved=   2.
 NSaved= 2 IEnMin= 2 EnMin= -2902.88413890849     IErMin= 2 ErrMin= 4.90D-06
 ErrMax= 4.90D-06 EMaxC= 1.00D-01 BMatC= 9.85D-09 BMatP= 2.63D-08
 IDIUse=1 WtCom= 1.00D+00 WtEn= 0.00D+00
 Coeff-Com:  0.318D+00 0.682D+00
 Coeff:      0.318D+00 0.682D+00
 Gap=     0.529 Goal=   None    Shift=    0.000
 RMSDP=3.03D-07 MaxDP=1.10D-05 DE=-3.52D-08 OVMax= 2.80D-05

 Cycle   6  Pass 1  IDiag  1:
 RMSU=  2.06D-07    CP:  1.00D+00  1.08D+00
 E= -2902.88413891818     Delta-E=       -0.000000009697 Rises=F Damp=F
 DIIS: error= 2.21D-06 at cycle   3 NSaved=   3.
 NSaved= 3 IEnMin= 3 EnMin= -2902.88413891818     IErMin= 3 ErrMin= 2.21D-06
 ErrMax= 2.21D-06 EMaxC= 1.00D-01 BMatC= 1.59D-09 BMatP= 9.85D-09
 IDIUse=1 WtCom= 1.00D+00 WtEn= 0.00D+00
 Coeff-Com: -0.329D+00-0.991D-01 0.143D+01
 Coeff:     -0.329D+00-0.991D-01 0.143D+01
 Gap=     0.529 Goal=   None    Shift=    0.000
 RMSDP=3.75D-07 MaxDP=1.12D-05 DE=-9.70D-09 OVMax= 2.62D-05

 Cycle   7  Pass 1  IDiag  1:
 RMSU=  8.96D-08    CP:  1.00D+00  1.41D+00  1.38D+00
 E= -2902.88413892216     Delta-E=       -0.000000003974 Rises=F Damp=F
 DIIS: error= 5.70D-07 at cycle   4 NSaved=   4.
 NSaved= 4 IEnMin= 4 EnMin= -2902.88413892216     IErMin= 4 ErrMin= 5.70D-07
 ErrMax= 5.70D-07 EMaxC= 1.00D-01 BMatC= 7.73D-11 BMatP= 1.59D-09
 IDIUse=1 WtCom= 1.00D+00 WtEn= 0.00D+00
 Coeff-Com: -0.917D-01-0.466D-01 0.315D+00 0.824D+00
 Coeff:     -0.917D-01-0.466D-01 0.315D+00 0.824D+00
 Gap=     0.529 Goal=   None    Shift=    0.000
 RMSDP=4.93D-08 MaxDP=1.77D-06 DE=-3.97D-09 OVMax= 4.23D-06

 Cycle   8  Pass 1  IDiag  1:
 RMSU=  2.32D-08    CP:  1.00D+00  1.43D+00  1.42D+00  1.25D+00
 E= -2902.88413892228     Delta-E=       -0.000000000116 Rises=F Damp=F
 DIIS: error= 2.32D-07 at cycle   5 NSaved=   5.
 NSaved= 5 IEnMin= 5 EnMin= -2902.88413892228     IErMin= 5 ErrMin= 2.32D-07
 ErrMax= 2.32D-07 EMaxC= 1.00D-01 BMatC= 1.22D-11 BMatP= 7.73D-11
 IDIUse=1 WtCom= 1.00D+00 WtEn= 0.00D+00
 Coeff-Com:  0.727D-01 0.342D-01-0.318D+00-0.111D+00 0.132D+01
 Coeff:      0.727D-01 0.342D-01-0.318D+00-0.111D+00 0.132D+01
 Gap=     0.529 Goal=   None    Shift=    0.000
 RMSDP=3.64D-08 MaxDP=9.65D-07 DE=-1.16D-10 OVMax= 3.18D-06

 Cycle   9  Pass 1  IDiag  1:
 RMSU=  9.34D-09    CP:  1.00D+00  1.42D+00  1.43D+00  1.50D+00  1.37D+00
 E= -2902.88413892232     Delta-E=       -0.000000000042 Rises=F Damp=F
 DIIS: error= 4.78D-08 at cycle   6 NSaved=   6.
 NSaved= 6 IEnMin= 6 EnMin= -2902.88413892232     IErMin= 6 ErrMin= 4.78D-08
 ErrMax= 4.78D-08 EMaxC= 1.00D-01 BMatC= 8.38D-13 BMatP= 1.22D-11
 IDIUse=1 WtCom= 1.00D+00 WtEn= 0.00D+00
 Coeff-Com: -0.193D-01-0.619D-02 0.849D-01-0.297D-02-0.445D+00 0.139D+01
 Coeff:     -0.193D-01-0.619D-02 0.849D-01-0.297D-02-0.445D+00 0.139D+01
 Gap=     0.529 Goal=   None    Shift=    0.000
 RMSDP=9.31D-09 MaxDP=1.94D-07 DE=-4.23D-11 OVMax= 1.25D-06

 SCF Done:  E(RHF) =  -2902.88413892     A.U. after    9 cycles
             Convg  =    0.9309D-08             -V/T =  2.0001
 KE= 2.902599886039D+03 PE=-7.225173778555D+03 EE= 1.277299082093D+03
 Leave Link  502 at Mon Dec  2 01:31:27 2019, MaxMem=  268435456 cpu:      67.6
 (Enter /home/matheus/.gaussian/g09/l801.exe)
 Windowed orbitals will be sorted by symmetry type.
 ExpMin= 2.53D-02 ExpMax= 1.17D+07 ExpMxC= 1.33D+04 IAcc=3 IRadAn=         5 AccDes= 0.00D+00
 HarFok:  IExCor=  205 AccDes= 0.00D+00 IRadAn=         5 IDoV=-2
 ScaDFX=  1.000000  1.000000  1.000000  1.000000
 DSYEVD returned Info=          93 IAlg= 4 N=    46 NDim=    46 NE2=     4547561 trying DSYEV.
 Largest valence mixing into a core orbital is  1.44D-04
 Largest core mixing into a valence orbital is  2.60D-05
 Range of M.O.s used for correlation:    12   197
 NBasis=   197 NAE=    27 NBE=    27 NFC=    11 NFV=     0
 NROrb=    186 NOA=    16 NOB=    16 NVA=   170 NVB=   170

 **** Warning!!: The largest alpha MO coefficient is  0.16563370D+02

 Leave Link  801 at Mon Dec  2 01:31:27 2019, MaxMem=  268435456 cpu:       0.3
 (Enter /home/matheus/.gaussian/g09/l804.exe)
 Closed-shell transformation, MDV=   268435456 ITran=4 ISComp=1.
 Semi-Direct transformation.
 ModeAB=           2 MOrb=            16 LenV=     267328522
 LASXX=     48528660 LTotXX=    48528660 LenRXX=    48528660
 LTotAB=    49298776 MaxLAS=    78372960 LenRXY=    78372960
 NonZer=    97057320 LenScr=   146313216 LnRSAI=           0
 LnScr1=           0 LExtra=           0 Total=    273214836
 MaxDsk=          -1 SrtSym=           F ITran=            4
 DoSDTr:  NPSUse=  2
 JobTyp=0 Pass  1:  I=   1 to  16.
 (rs|ai) integrals will be sorted in core.
 Complete sort for first half transformation.
 First half transformation complete.
 Begin second half transformation for I=  10.
 Begin second half transformation for I=  10.
 Complete sort for second half transformation.
 Second half transformation complete.
 SymMOI:  orbitals are not symmetric.
 Spin components of T(2) and E(2):
     alpha-alpha T2 =       0.2588580705D-01 E2=     -0.9958427375D-01
     alpha-beta  T2 =       0.1419499146D+00 E2=     -0.5559007960D+00
     beta-beta   T2 =       0.2588580705D-01 E2=     -0.9958427375D-01
 ANorm=    0.1092575640D+01
 E2 =    -0.7550693435D+00 EUMP2 =    -0.29036392082658D+04
 Leave Link  804 at Mon Dec  2 01:31:51 2019, MaxMem=  268435456 cpu:      45.8
 (Enter /home/matheus/.gaussian/g09/l913.exe)
 CIDS:  MDV=   268435456.
 Frozen-core window:  NFC=  11 NFV=   0.
 IFCWin=0 IBDFC=1 NFBD=     0     0 NFCmp=     0     0 NFFFC=     0     0
 Using DD3R+UMP44R for 1st iteration, S=T.
 Using DD4RQ for 2nd and later iterations.
 Would need an additional       431206676 words for in-memory AO integral storage.
 MP4(SDTQ)
 =========
 DD1Dir will call FoFDir   1 times, MxPair=       272
 NAB=   136 NAA=     0 NBB=     0 NumPrc=  2.
 Integrals replicated using symmetry in FoFDir.
 MinBra= 0 MaxBra= 3 Meth= 1.
 IRaf=       0 NMat= 272 IRICut=     340 DoRegI=T DoRafI=T ISym2E= 2 JSym2E=2.
 MP4(D)= -0.14982138D-01
 MP4(S)= -0.64520218D-02
 MP4(R+Q)=  0.15315422D-01
 T4(AAA)= -0.10307984D-02
 T4(AAB)= -0.14109852D-01
 Time for triples=     1333.36 seconds.
 MP4(T)=   -0.30281301D-01
 E3=       -0.11440733D-01        EUMP3=      -0.29036506490D+04
 E4(DQ)=    0.33328404D-03        UMP4(DQ)=   -0.29036503157D+04
 E4(SDQ)=  -0.61187377D-02        UMP4(SDQ)=  -0.29036567677D+04
 E4(SDTQ)= -0.36400038D-01        UMP4(SDTQ)= -0.29036870490D+04
 VARIATIONAL ENERGIES WITH THE FIRST-ORDER WAVEFUNCTION:
 E(VAR1)=  -0.29035262569D+04     E(CISD,4)=  -0.29035258100D+04
 Largest amplitude= 3.05D-02
 Leave Link  913 at Mon Dec  2 01:43:59 2019, MaxMem=  268435456 cpu:    1426.0
 (Enter /home/matheus/.gaussian/g09/l108.exe)
 Variable Step   Value    
 -------- ---- -----------
     1       3    6.236096
 Leave Link  108 at Mon Dec  2 01:43:59 2019, MaxMem=  268435456 cpu:       0.1
 (Enter /home/matheus/.gaussian/g09/l202.exe)
 ---------------------------------------------------------------------------------------------------
                            Z-MATRIX (ANGSTROMS AND DEGREES)
   CD    Cent   Atom    N1       Length/X        N2       Alpha/Y        N3        Beta/Z          J
 ---------------------------------------------------------------------------------------------------
      1      1  O        0   0.000000          0.000000          0.725000
      2      2  O        0   0.000000          0.000000         -0.725000
      3      3  H        0   0.904763         -0.159534          1.023510
      4      4  H        0   0.000000          0.918721         -1.023510
      5      5  Kr       0   0.000000          3.300000          0.000000
 ---------------------------------------------------------------------------------------------------
                         Z-Matrix orientation:                         
 ---------------------------------------------------------------------
 Center     Atomic      Atomic             Coordinates (Angstroms)
 Number     Number       Type             X           Y           Z
 ---------------------------------------------------------------------
      1          8           0        0.000000    0.000000    0.725000
      2          8           0        0.000000    0.000000   -0.725000
      3          1           0        0.904763   -0.159534    1.023510
      4          1           0        0.000000    0.918721   -1.023510
      5         36           0        0.000000    3.300000    0.000000
 ---------------------------------------------------------------------
                    Distance matrix (angstroms):
                    1          2          3          4          5
     1  O    0.000000
     2  O    1.450000   0.000000
     3  H    0.966000   1.975180   0.000000
     4  H    1.975180   0.966000   2.484255   0.000000
     5  Kr   3.378702   3.378702   3.719482   2.591923   0.000000
 Stoichiometry    H2KrO2
 Framework group  C1[X(H2KrO2)]
 Deg. of freedom     9
 Full point group                 C1      NOp   1
 RotChk:  IX=0 Diff= 1.26D-03
 Largest Abelian subgroup         C1      NOp   1
 Largest concise Abelian subgroup C1      NOp   1
                         Standard orientation:                         
 ---------------------------------------------------------------------
 Center     Atomic      Atomic             Coordinates (Angstroms)
 Number     Number       Type             X           Y           Z
 ---------------------------------------------------------------------
      1          8           0        2.220249   -0.695947   -0.118797
      2          8           0        2.206468    0.747827    0.014713
      3          1           0        2.397897   -1.074572    0.751973
      4          1           0        1.285083    1.034931    0.056872
      5         36           0       -1.086020   -0.010428    0.000662
 ---------------------------------------------------------------------
 Rotational constants (GHZ):     25.6293759      1.9320315      1.8062397
 Leave Link  202 at Mon Dec  2 01:43:59 2019, MaxMem=  268435456 cpu:       0.0
 (Enter /home/matheus/.gaussian/g09/l301.exe)
 Standard basis: Aug-CC-pVTZ (5D, 7F)
 Ernie: Thresh=  0.10000D-02 Tol=  0.10000D-05 Strict=F.
 Ernie:  38 primitive shells out of 205 were deleted.
 There are   197 symmetry adapted basis functions of A   symmetry.
 Integral buffers will be    131072 words long.
 Raffenetti 1 integral format.
 Two-electron integral symmetry is turned on.
   197 basis functions,   415 primitive gaussians,   229 cartesian basis functions
    27 alpha electrons       27 beta electrons
       nuclear repulsion energy       139.3069027277 Hartrees.
 IExCor=    0 DFT=F Ex=HF Corr=None ExCW=0 ScaHFX=  1.000000
 ScaDFX=  1.000000  1.000000  1.000000  1.000000 ScalE2=  1.000000  1.000000
 IRadAn=      5 IRanWt=     -1 IRanGd=            0 ICorTp=0
 NAtoms=    5 NActive=    5 NUniq=    5 SFac= 1.00D+00 NAtFMM=   60 NAOKFM=F Big=F
 Leave Link  301 at Mon Dec  2 01:43:59 2019, MaxMem=  268435456 cpu:       0.0
 (Enter /home/matheus/.gaussian/g09/l302.exe)
 NPDir=0 NMtPBC=     1 NCelOv=     1 NCel=       1 NClECP=     1 NCelD=      1
         NCelK=      1 NCelE2=     1 NClLst=     1 CellRange=     0.0.
 One-electron integrals computed using PRISM.
 NBasis=   197 RedAO= T  NBF=   197
 NBsUse=   197 1.00D-06 NBFU=   197
 Leave Link  302 at Mon Dec  2 01:43:59 2019, MaxMem=  268435456 cpu:       0.2
 (Enter /home/matheus/.gaussian/g09/l303.exe)
 DipDrv:  MaxL=1.
 Leave Link  303 at Mon Dec  2 01:43:59 2019, MaxMem=  268435456 cpu:       0.0
 (Enter /home/matheus/.gaussian/g09/l401.exe)
 Initial guess read from the read-write file.
 B after Tr=     0.000000    0.000000    0.000000
         Rot=    1.000000    0.000000    0.000000    0.000000 Ang=   0.00 deg.
 Guess basis will be translated and rotated to current coordinates.
 Initial guess orbital symmetries:
       Occupied  (A) (A) (A) (A) (A) (A) (A) (A) (A) (A) (A) (A)
                 (A) (A) (A) (A) (A) (A) (A) (A) (A) (A) (A) (A)
                 (A) (A) (A)
       Virtual   (A) (A) (A) (A) (A) (A) (A) (A) (A) (A) (A) (A)
                 (A) (A) (A) (A) (A) (A) (A) (A) (A) (A) (A) (A)
                 (A) (A) (A) (A) (A) (A) (A) (A) (A) (A) (A) (A)
                 (A) (A) (A) (A) (A) (A) (A) (A) (A) (A) (A) (A)
                 (A) (A) (A) (A) (A) (A) (A) (A) (A) (A) (A) (A)
                 (A) (A) (A) (A) (A) (A) (A) (A) (A) (A) (A) (A)
                 (A) (A) (A) (A) (A) (A) (A) (A) (A) (A) (A) (A)
                 (A) (A) (A) (A) (A) (A) (A) (A) (A) (A) (A) (A)
                 (A) (A) (A) (A) (A) (A) (A) (A) (A) (A) (A) (A)
                 (A) (A) (A) (A) (A) (A) (A) (A) (A) (A) (A) (A)
                 (A) (A) (A) (A) (A) (A) (A) (A) (A) (A) (A) (A)
                 (A) (A) (A) (A) (A) (A) (A) (A) (A) (A) (A) (A)
                 (A) (A) (A) (A) (A) (A) (A) (A) (A) (A) (A) (A)
                 (A) (A) (A) (A) (A) (A) (A) (A) (A) (A) (A) (A)
                 (A) (A)
 The electronic state of the initial guess is 1-A.
 Generating alternative initial guess.
 Harris functional with IExCor=  205 diagonalized for initial guess.
 ExpMin= 2.53D-02 ExpMax= 1.17D+07 ExpMxC= 1.33D+04 IAcc=3 IRadAn=         5 AccDes= 0.00D+00
 HarFok:  IExCor=  205 AccDes= 0.00D+00 IRadAn=         5 IDoV= 1
 ScaDFX=  1.000000  1.000000  1.000000  1.000000
 FoFCou: FMM=F IPFlag=           0 FMFlag=      100000 FMFlg1=           0
         NFxFlg=           0 DoJE=T BraDBF=F KetDBF=T FulRan=T
         Omega=  0.000000  0.000000  1.000000  0.000000  0.000000 ICntrl=     500 IOpCl=  0
         NMat0=    1 NMatS0=    1 NMatT0=    0 NMatD0=    1 NMtDS0=    0 NMtDT0=    0
         I1Cent=           4 NGrid=           0.
 Petite list used in FoFCou.
 Harris En= -2901.93484735204    
 Leave Link  401 at Mon Dec  2 01:44:00 2019, MaxMem=  268435456 cpu:       1.3
 (Enter /home/matheus/.gaussian/g09/l502.exe)
 Closed shell SCF:
 Requested convergence on RMS density matrix=1.00D-08 within 128 cycles.
 Requested convergence on MAX density matrix=1.00D-06.
 Requested convergence on             energy=1.00D-06.
 No special actions if energy rises.
 Using DIIS extrapolation, IDIIS=  1040.
 Integral symmetry usage will be decided dynamically.
 IEnd=      178489 IEndB=      178489 NGot=   268435456 MDV=   268326278
 LenX=   268326278 LenY=   268273396
 Fock matrices will be formed incrementally for  20 cycles.

 Cycle   1  Pass 0  IDiag  1:
 FoFCou: FMM=F IPFlag=           0 FMFlag=      100000 FMFlg1=           0
         NFxFlg=           0 DoJE=F BraDBF=F KetDBF=F FulRan=T
         Omega=  0.000000  0.000000  1.000000  0.000000  0.000000 ICntrl=       0 IOpCl=  0
         NMat0=    1 NMatS0=    1 NMatT0=    0 NMatD0=    1 NMtDS0=    0 NMtDT0=    0
         I1Cent=           0 NGrid=           0.
 Symmetry not used in FoFCou.
 E= -2902.88536405876    
 DIIS: error= 3.04D-04 at cycle   1 NSaved=   1.
 NSaved= 1 IEnMin= 1 EnMin= -2902.88536405876     IErMin= 1 ErrMin= 3.04D-04
 ErrMax= 3.04D-04 EMaxC= 1.00D-01 BMatC= 3.87D-05 BMatP= 3.87D-05
 IDIUse=3 WtCom= 9.97D-01 WtEn= 3.04D-03
 Coeff-Com:  0.100D+01
 Coeff-En:   0.100D+01
 Coeff:      0.100D+01
 Gap=     0.530 Goal=   None    Shift=    0.000
 RMSDP=5.42D-05 MaxDP=1.51D-03              OVMax= 2.42D-03

 Cycle   2  Pass 0  IDiag  1:
 RMSU=  3.83D-05    CP:  1.00D+00
 E= -2902.88541012651     Delta-E=       -0.000046067746 Rises=F Damp=F
 DIIS: error= 5.32D-05 at cycle   2 NSaved=   2.
 NSaved= 2 IEnMin= 2 EnMin= -2902.88541012651     IErMin= 2 ErrMin= 5.32D-05
 ErrMax= 5.32D-05 EMaxC= 1.00D-01 BMatC= 1.13D-06 BMatP= 3.87D-05
 IDIUse=1 WtCom= 1.00D+00 WtEn= 0.00D+00
 Coeff-Com: -0.875D-01 0.109D+01
 Coeff:     -0.875D-01 0.109D+01
 Gap=     0.529 Goal=   None    Shift=    0.000
 RMSDP=9.52D-06 MaxDP=3.19D-04 DE=-4.61D-05 OVMax= 5.35D-04

 Initial convergence to 1.0D-05 achieved.  Increase integral accuracy.
 Cycle   3  Pass 1  IDiag  1:
 E= -2902.88541193836     Delta-E=       -0.000001811850 Rises=F Damp=F
 DIIS: error= 1.96D-05 at cycle   1 NSaved=   1.
 NSaved= 1 IEnMin= 1 EnMin= -2902.88541193836     IErMin= 1 ErrMin= 1.96D-05
 ErrMax= 1.96D-05 EMaxC= 1.00D-01 BMatC= 1.43D-07 BMatP= 1.43D-07
 IDIUse=1 WtCom= 1.00D+00 WtEn= 0.00D+00
 Coeff-Com:  0.100D+01
 Coeff:      0.100D+01
 Gap=     0.529 Goal=   None    Shift=    0.000
 RMSDP=9.52D-06 MaxDP=3.19D-04 DE=-1.81D-06 OVMax= 1.42D-04

 Cycle   4  Pass 1  IDiag  1:
 RMSU=  1.48D-06    CP:  1.00D+00
 E= -2902.88541207674     Delta-E=       -0.000000138384 Rises=F Damp=F
 DIIS: error= 9.49D-06 at cycle   2 NSaved=   2.
 NSaved= 2 IEnMin= 2 EnMin= -2902.88541207674     IErMin= 2 ErrMin= 9.49D-06
 ErrMax= 9.49D-06 EMaxC= 1.00D-01 BMatC= 4.94D-08 BMatP= 1.43D-07
 IDIUse=1 WtCom= 1.00D+00 WtEn= 0.00D+00
 Coeff-Com:  0.340D+00 0.660D+00
 Coeff:      0.340D+00 0.660D+00
 Gap=     0.529 Goal=   None    Shift=    0.000
 RMSDP=7.03D-07 MaxDP=3.60D-05 DE=-1.38D-07 OVMax= 4.30D-05

 Cycle   5  Pass 1  IDiag  1:
 RMSU=  4.97D-07    CP:  1.00D+00  1.00D+00
 E= -2902.88541211422     Delta-E=       -0.000000037472 Rises=F Damp=F
 DIIS: error= 3.16D-06 at cycle   3 NSaved=   3.
 NSaved= 3 IEnMin= 3 EnMin= -2902.88541211422     IErMin= 3 ErrMin= 3.16D-06
 ErrMax= 3.16D-06 EMaxC= 1.00D-01 BMatC= 3.51D-09 BMatP= 4.94D-08
 IDIUse=1 WtCom= 1.00D+00 WtEn= 0.00D+00
 Coeff-Com: -0.111D+00-0.381D-01 0.115D+01
 Coeff:     -0.111D+00-0.381D-01 0.115D+01
 Gap=     0.529 Goal=   None    Shift=    0.000
 RMSDP=4.58D-07 MaxDP=1.62D-05 DE=-3.75D-08 OVMax= 2.85D-05

 Cycle   6  Pass 1  IDiag  1:
 RMSU=  1.50D-07    CP:  1.00D+00  1.15D+00  1.36D+00
 E= -2902.88541212240     Delta-E=       -0.000000008184 Rises=F Damp=F
 DIIS: error= 1.52D-06 at cycle   4 NSaved=   4.
 NSaved= 4 IEnMin= 4 EnMin= -2902.88541212240     IErMin= 4 ErrMin= 1.52D-06
 ErrMax= 1.52D-06 EMaxC= 1.00D-01 BMatC= 8.20D-10 BMatP= 3.51D-09
 IDIUse=1 WtCom= 1.00D+00 WtEn= 0.00D+00
 Coeff-Com: -0.907D-01-0.137D+00 0.318D+00 0.910D+00
 Coeff:     -0.907D-01-0.137D+00 0.318D+00 0.910D+00
 Gap=     0.529 Goal=   None    Shift=    0.000
 RMSDP=1.84D-07 MaxDP=4.95D-06 DE=-8.18D-09 OVMax= 1.36D-05

 Cycle   7  Pass 1  IDiag  1:
 RMSU=  6.53D-08    CP:  1.00D+00  1.20D+00  1.54D+00  1.17D+00
 E= -2902.88541212379     Delta-E=       -0.000000001395 Rises=F Damp=F
 DIIS: error= 4.70D-07 at cycle   5 NSaved=   5.
 NSaved= 5 IEnMin= 5 EnMin= -2902.88541212379     IErMin= 5 ErrMin= 4.70D-07
 ErrMax= 4.70D-07 EMaxC= 1.00D-01 BMatC= 4.40D-11 BMatP= 8.20D-10
 IDIUse=1 WtCom= 1.00D+00 WtEn= 0.00D+00
 Coeff-Com:  0.104D-01 0.290D-02-0.811D-01-0.493D-01 0.112D+01
 Coeff:      0.104D-01 0.290D-02-0.811D-01-0.493D-01 0.112D+01
 Gap=     0.529 Goal=   None    Shift=    0.000
 RMSDP=5.60D-08 MaxDP=1.57D-06 DE=-1.39D-09 OVMax= 4.71D-06

 Cycle   8  Pass 1  IDiag  1:
 RMSU=  1.83D-08    CP:  1.00D+00  1.19D+00  1.55D+00  1.33D+00  1.37D+00
 E= -2902.88541212389     Delta-E=       -0.000000000096 Rises=F Damp=F
 DIIS: error= 1.89D-07 at cycle   6 NSaved=   6.
 NSaved= 6 IEnMin= 6 EnMin= -2902.88541212389     IErMin= 6 ErrMin= 1.89D-07
 ErrMax= 1.89D-07 EMaxC= 1.00D-01 BMatC= 7.79D-12 BMatP= 4.40D-11
 IDIUse=1 WtCom= 1.00D+00 WtEn= 0.00D+00
 Coeff-Com:  0.145D-01 0.196D-01-0.497D-01-0.157D+00 0.126D+00 0.105D+01
 Coeff:      0.145D-01 0.196D-01-0.497D-01-0.157D+00 0.126D+00 0.105D+01
 Gap=     0.529 Goal=   None    Shift=    0.000
 RMSDP=2.36D-08 MaxDP=5.48D-07 DE=-9.60D-11 OVMax= 2.27D-06

 Cycle   9  Pass 1  IDiag  1:
 RMSU=  7.20D-09    CP:  1.00D+00  1.19D+00  1.55D+00  1.37D+00  1.54D+00
                    CP:  1.29D+00
 E= -2902.88541212389     Delta-E=        0.000000000001 Rises=F Damp=F
 DIIS: error= 4.43D-08 at cycle   7 NSaved=   7.
 NSaved= 7 IEnMin= 6 EnMin= -2902.88541212389     IErMin= 7 ErrMin= 4.43D-08
 ErrMax= 4.43D-08 EMaxC= 1.00D-01 BMatC= 7.78D-13 BMatP= 7.79D-12
 IDIUse=1 WtCom= 1.00D+00 WtEn= 0.00D+00
[...]
                    Distance matrix (angstroms):
                    1          2          3          4          5
     1  O    0.000000
     2  O    1.450000   0.000000
     3  H    0.966000   1.975180   0.000000
     4  H    1.975180   0.966000   2.484255   0.000000
     5  Kr   5.052289   5.052289   5.337318   4.207661   0.000000
 Stoichiometry    H2KrO2
 Framework group  C1[X(H2KrO2)]
 Deg. of freedom     9
 Full point group                 C1      NOp   1
 RotChk:  IX=0 Diff= 4.11D-04
 Largest Abelian subgroup         C1      NOp   1
 Largest concise Abelian subgroup C1      NOp   1
                         Standard orientation:                         
 ---------------------------------------------------------------------
 Center     Atomic      Atomic             Coordinates (Angstroms)
 Number     Number       Type             X           Y           Z
 ---------------------------------------------------------------------
      1          8           0        3.349822   -0.703971   -0.118573
      2          8           0        3.344163    0.739772    0.015865
      3          1           0        3.520251   -1.084259    0.752914
      4          1           0        2.424338    1.032507    0.053058
      5         36           0       -1.652680   -0.006518    0.000436
 ---------------------------------------------------------------------
 Rotational constants (GHZ):     25.6241432      0.8406595      0.8159307
 Leave Link  202 at Mon Dec  2 05:21:49 2019, MaxMem=  268435456 cpu:       0.0
 (Enter /home/matheus/.gaussian/g09/l301.exe)
 Standard basis: Aug-CC-pVTZ (5D, 7F)
 Ernie: Thresh=  0.10000D-02 Tol=  0.10000D-05 Strict=F.
 Ernie:  38 primitive shells out of 205 were deleted.
 There are   197 symmetry adapted basis functions of A   symmetry.
 Integral buffers will be    131072 words long.
 Raffenetti 1 integral format.
 Two-electron integral symmetry is turned on.
   197 basis functions,   415 primitive gaussians,   229 cartesian basis functions
    27 alpha electrons       27 beta electrons
       nuclear repulsion energy       105.0483703624 Hartrees.
 IExCor=    0 DFT=F Ex=HF Corr=None ExCW=0 ScaHFX=  1.000000
 ScaDFX=  1.000000  1.000000  1.000000  1.000000 ScalE2=  1.000000  1.000000
 IRadAn=      5 IRanWt=     -1 IRanGd=            0 ICorTp=0
 NAtoms=    5 NActive=    5 NUniq=    5 SFac= 1.00D+00 NAtFMM=   60 NAOKFM=F Big=F
 Leave Link  301 at Mon Dec  2 05:21:49 2019, MaxMem=  268435456 cpu:       0.0
 (Enter /home/matheus/.gaussian/g09/l302.exe)
 NPDir=0 NMtPBC=     1 NCelOv=     1 NCel=       1 NClECP=     1 NCelD=      1
         NCelK=      1 NCelE2=     1 NClLst=     1 CellRange=     0.0.
 One-electron integrals computed using PRISM.
 NBasis=   197 RedAO= T  NBF=   197
 NBsUse=   197 1.00D-06 NBFU=   197
 Leave Link  302 at Mon Dec  2 05:21:49 2019, MaxMem=  268435456 cpu:       0.2
 (Enter /home/matheus/.gaussian/g09/l303.exe)
 DipDrv:  MaxL=1.
 Leave Link  303 at Mon Dec  2 05:21:49 2019, MaxMem=  268435456 cpu:       0.0
 (Enter /home/matheus/.gaussian/g09/l401.exe)
 Initial guess read from the read-write file.
 B after Tr=     0.000000    0.000000    0.000000
         Rot=    1.000000    0.000000    0.000000    0.000000 Ang=   0.00 deg.
 Guess basis will be translated and rotated to current coordinates.
 Initial guess orbital symmetries:
       Occupied  (A) (A) (A) (A) (A) (A) (A) (A) (A) (A) (A) (A)
                 (A) (A) (A) (A) (A) (A) (A) (A) (A) (A) (A) (A)
                 (A) (A) (A)
       Virtual   (A) (A) (A) (A) (A) (A) (A) (A) (A) (A) (A) (A)
                 (A) (A) (A) (A) (A) (A) (A) (A) (A) (A) (A) (A)
                 (A) (A) (A) (A) (A) (A) (A) (A) (A) (A) (A) (A)
                 (A) (A) (A) (A) (A) (A) (A) (A) (A) (A) (A) (A)
                 (A) (A) (A) (A) (A) (A) (A) (A) (A) (A) (A) (A)
                 (A) (A) (A) (A) (A) (A) (A) (A) (A) (A) (A) (A)
                 (A) (A) (A) (A) (A) (A) (A) (A) (A) (A) (A) (A)
                 (A) (A) (A) (A) (A) (A) (A) (A) (A) (A) (A) (A)
                 (A) (A) (A) (A) (A) (A) (A) (A) (A) (A) (A) (A)
                 (A) (A) (A) (A) (A) (A) (A) (A) (A) (A) (A) (A)
                 (A) (A) (A) (A) (A) (A) (A) (A) (A) (A) (A) (A)
                 (A) (A) (A) (A) (A) (A) (A) (A) (A) (A) (A) (A)
                 (A) (A) (A) (A) (A) (A) (A) (A) (A) (A) (A) (A)
                 (A) (A) (A) (A) (A) (A) (A) (A) (A) (A) (A) (A)
                 (A) (A)
 The electronic state of the initial guess is 1-A.
 Generating alternative initial guess.
 Harris functional with IExCor=  205 diagonalized for initial guess.
 ExpMin= 2.53D-02 ExpMax= 1.17D+07 ExpMxC= 1.33D+04 IAcc=3 IRadAn=         5 AccDes= 0.00D+00
 HarFok:  IExCor=  205 AccDes= 0.00D+00 IRadAn=         5 IDoV= 1
 ScaDFX=  1.000000  1.000000  1.000000  1.000000
 FoFCou: FMM=F IPFlag=           0 FMFlag=      100000 FMFlg1=           0
         NFxFlg=           0 DoJE=T BraDBF=F KetDBF=T FulRan=T
         Omega=  0.000000  0.000000  1.000000  0.000000  0.000000 ICntrl=     500 IOpCl=  0
         NMat0=    1 NMatS0=    1 NMatT0=    0 NMatD0=    1 NMtDS0=    0 NMtDT0=    0
         I1Cent=           4 NGrid=           0.
 Petite list used in FoFCou.
 Harris En= -2901.93443658900    
 Leave Link  401 at Mon Dec  2 05:21:49 2019, MaxMem=  268435456 cpu:       1.1
 (Enter /home/matheus/.gaussian/g09/l502.exe)
 Closed shell SCF:
 Requested convergence on RMS density matrix=1.00D-08 within 128 cycles.
 Requested convergence on MAX density matrix=1.00D-06.
 Requested convergence on             energy=1.00D-06.
 No special actions if energy rises.
 Using DIIS extrapolation, IDIIS=  1040.
 Integral symmetry usage will be decided dynamically.
 IEnd=      178489 IEndB=      178489 NGot=   268435456 MDV=   268326278
 LenX=   268326278 LenY=   268273396
 Fock matrices will be formed incrementally for  20 cycles.

 Cycle   1  Pass 0  IDiag  1:
 FoFCou: FMM=F IPFlag=           0 FMFlag=      100000 FMFlg1=           0
         NFxFlg=           0 DoJE=F BraDBF=F KetDBF=F FulRan=T
         Omega=  0.000000  0.000000  1.000000  0.000000  0.000000 ICntrl=       0 IOpCl=  0
         NMat0=    1 NMatS0=    1 NMatT0=    0 NMatD0=    1 NMtDS0=    0 NMtDT0=    0
         I1Cent=           0 NGrid=           0.
 Symmetry not used in FoFCou.
 E= -2902.88824175988    
 DIIS: error= 3.23D-05 at cycle   1 NSaved=   1.
 NSaved= 1 IEnMin= 1 EnMin= -2902.88824175988     IErMin= 1 ErrMin= 3.23D-05
 ErrMax= 3.23D-05 EMaxC= 1.00D-01 BMatC= 5.83D-07 BMatP= 5.83D-07
 IDIUse=1 WtCom= 1.00D+00 WtEn= 0.00D+00
 Coeff-Com:  0.100D+01
 Coeff:      0.100D+01
 Gap=     0.531 Goal=   None    Shift=    0.000
 RMSDP=1.73D-05 MaxDP=7.57D-04              OVMax= 3.11D-04

 Cycle   2  Pass 0  IDiag  1:
 RMSU=  1.22D-05    CP:  1.00D+00
 E= -2902.88824239833     Delta-E=       -0.000000638451 Rises=F Damp=F
 DIIS: error= 7.25D-06 at cycle   2 NSaved=   2.
 NSaved= 2 IEnMin= 2 EnMin= -2902.88824239833     IErMin= 2 ErrMin= 7.25D-06
 ErrMax= 7.25D-06 EMaxC= 1.00D-01 BMatC= 1.38D-08 BMatP= 5.83D-07
 IDIUse=1 WtCom= 1.00D+00 WtEn= 0.00D+00
 Coeff-Com: -0.450D-01 0.104D+01
 Coeff:     -0.450D-01 0.104D+01
 Gap=     0.531 Goal=   None    Shift=    0.000
 RMSDP=2.22D-06 MaxDP=9.14D-05 DE=-6.38D-07 OVMax= 5.23D-05

 Initial convergence to 1.0D-05 achieved.  Increase integral accuracy.
 Cycle   3  Pass 1  IDiag  1:
 E= -2902.88824241889     Delta-E=       -0.000000020551 Rises=F Damp=F
 DIIS: error= 3.02D-06 at cycle   1 NSaved=   1.
 NSaved= 1 IEnMin= 1 EnMin= -2902.88824241889     IErMin= 1 ErrMin= 3.02D-06
 ErrMax= 3.02D-06 EMaxC= 1.00D-01 BMatC= 1.19D-09 BMatP= 1.19D-09
 IDIUse=1 WtCom= 1.00D+00 WtEn= 0.00D+00
 Coeff-Com:  0.100D+01
 Coeff:      0.100D+01
 Gap=     0.531 Goal=   None    Shift=    0.000
 RMSDP=2.22D-06 MaxDP=9.14D-05 DE=-2.06D-08 OVMax= 2.00D-05

 Cycle   4  Pass 1  IDiag  1:
 RMSU=  1.94D-07    CP:  1.00D+00
 E= -2902.88824242078     Delta-E=       -0.000000001894 Rises=F Damp=F
 DIIS: error= 8.53D-07 at cycle   2 NSaved=   2.
 NSaved= 2 IEnMin= 2 EnMin= -2902.88824242078     IErMin= 2 ErrMin= 8.53D-07
 ErrMax= 8.53D-07 EMaxC= 1.00D-01 BMatC= 2.28D-10 BMatP= 1.19D-09
 IDIUse=1 WtCom= 1.00D+00 WtEn= 0.00D+00
 Coeff-Com:  0.173D+00 0.827D+00
 Coeff:      0.173D+00 0.827D+00
 Gap=     0.531 Goal=   None    Shift=    0.000
 RMSDP=7.05D-08 MaxDP=1.84D-06 DE=-1.89D-09 OVMax= 4.50D-06

 Cycle   5  Pass 1  IDiag  1:
 RMSU=  4.09D-08    CP:  1.00D+00  1.15D+00
 E= -2902.88824242112     Delta-E=       -0.000000000343 Rises=F Damp=F
 DIIS: error= 4.73D-07 at cycle   3 NSaved=   3.
 NSaved= 3 IEnMin= 3 EnMin= -2902.88824242112     IErMin= 3 ErrMin= 4.73D-07
 ErrMax= 4.73D-07 EMaxC= 1.00D-01 BMatC= 5.33D-11 BMatP= 2.28D-10
 IDIUse=1 WtCom= 1.00D+00 WtEn= 0.00D+00
 Coeff-Com: -0.135D+00 0.673D-01 0.107D+01
 Coeff:     -0.135D+00 0.673D-01 0.107D+01
 Gap=     0.531 Goal=   None    Shift=    0.000
 RMSDP=4.78D-08 MaxDP=1.27D-06 DE=-3.43D-10 OVMax= 4.15D-06

 Cycle   6  Pass 1  IDiag  1:
 RMSU=  2.03D-08    CP:  1.00D+00  1.28D+00  1.26D+00
 E= -2902.88824242123     Delta-E=       -0.000000000111 Rises=F Damp=F
 DIIS: error= 1.91D-07 at cycle   4 NSaved=   4.
 NSaved= 4 IEnMin= 4 EnMin= -2902.88824242123     IErMin= 4 ErrMin= 1.91D-07
 ErrMax= 1.91D-07 EMaxC= 1.00D-01 BMatC= 1.07D-11 BMatP= 5.33D-11
 IDIUse=1 WtCom= 1.00D+00 WtEn= 0.00D+00
 Coeff-Com: -0.745D-01-0.145D+00 0.304D+00 0.916D+00
 Coeff:     -0.745D-01-0.145D+00 0.304D+00 0.916D+00
 Gap=     0.531 Goal=   None    Shift=    0.000
 RMSDP=2.01D-08 MaxDP=6.07D-07 DE=-1.11D-10 OVMax= 2.15D-06

 Cycle   7  Pass 1  IDiag  1:
 RMSU=  7.67D-09    CP:  1.00D+00  1.31D+00  1.46D+00  1.29D+00
 E= -2902.88824242126     Delta-E=       -0.000000000027 Rises=F Damp=F
 DIIS: error= 6.35D-08 at cycle   5 NSaved=   5.
 NSaved= 5 IEnMin= 5 EnMin= -2902.88824242126     IErMin= 5 ErrMin= 6.35D-08
 ErrMax= 6.35D-08 EMaxC= 1.00D-01 BMatC= 8.16D-13 BMatP= 1.07D-11
 IDIUse=1 WtCom= 1.00D+00 WtEn= 0.00D+00
 Coeff-Com:  0.534D-01 0.781D-01-0.272D+00-0.508D+00 0.165D+01
 Coeff:      0.534D-01 0.781D-01-0.272D+00-0.508D+00 0.165D+01
 Gap=     0.531 Goal=   None    Shift=    0.000
 RMSDP=1.19D-08 MaxDP=3.67D-07 DE=-2.73D-11 OVMax= 1.33D-06

 Cycle   8  Pass 1  IDiag  1:
 RMSU=  3.37D-09    CP:  1.00D+00  1.29D+00  1.49D+00  1.54D+00  1.60D+00
 E= -2902.88824242126     Delta-E=        0.000000000005 Rises=F Damp=F
 DIIS: error= 2.08D-08 at cycle   6 NSaved=   6.
 NSaved= 6 IEnMin= 5 EnMin= -2902.88824242126     IErMin= 6 ErrMin= 2.08D-08
 ErrMax= 2.08D-08 EMaxC= 1.00D-01 BMatC= 8.03D-14 BMatP= 8.16D-13
 IDIUse=1 WtCom= 1.00D+00 WtEn= 0.00D+00
 Coeff-Com: -0.429D-03 0.429D-03 0.105D-01-0.402D-02-0.198D+00 0.119D+01
 Coeff:     -0.429D-03 0.429D-03 0.105D-01-0.402D-02-0.198D+00 0.119D+01
 Gap=     0.531 Goal=   None    Shift=    0.000
 RMSDP=2.67D-09 MaxDP=8.03D-08 DE= 5.46D-12 OVMax= 3.66D-07

 SCF Done:  E(RHF) =  -2902.88824242     A.U. after    8 cycles
             Convg  =    0.2667D-08             -V/T =  2.0001
 KE= 2.902567655271D+03 PE=-7.150660426020D+03 EE= 1.240156157966D+03
 Leave Link  502 at Mon Dec  2 05:22:10 2019, MaxMem=  268435456 cpu:      41.5
 (Enter /home/matheus/.gaussian/g09/l801.exe)
 Windowed orbitals will be sorted by symmetry type.
 ExpMin= 2.53D-02 ExpMax= 1.17D+07 ExpMxC= 1.33D+04 IAcc=3 IRadAn=         5 AccDes= 0.00D+00
 HarFok:  IExCor=  205 AccDes= 0.00D+00 IRadAn=         5 IDoV=-2
 ScaDFX=  1.000000  1.000000  1.000000  1.000000
 DSYEVD returned Info=         119 IAlg= 4 N=    59 NDim=    59 NE2=     4547561 trying DSYEV.
 Largest valence mixing into a core orbital is  1.47D-04
 Largest core mixing into a valence orbital is  2.61D-05
 Range of M.O.s used for correlation:    12   197
 NBasis=   197 NAE=    27 NBE=    27 NFC=    11 NFV=     0
 NROrb=    186 NOA=    16 NOB=    16 NVA=   170 NVB=   170

 **** Warning!!: The largest alpha MO coefficient is  0.14630639D+02

 Leave Link  801 at Mon Dec  2 05:22:10 2019, MaxMem=  268435456 cpu:       0.2
 (Enter /home/matheus/.gaussian/g09/l804.exe)
 Closed-shell transformation, MDV=   268435456 ITran=4 ISComp=1.
 Semi-Direct transformation.
 ModeAB=           4 MOrb=            16 LenV=     267350140
 LASXX=     48528660 LTotXX=    48528660 LenRXX=    97827436
 LTotAB=    49298776 MaxLAS=    72284064 LenRXY=           0
 NonZer=   146356096 LenScr=   220395520 LnRSAI=    72284064
 LnScr1=   109171712 LExtra=           0 Total=    499678732
 MaxDsk=          -1 SrtSym=           T ITran=            4
 DoSDTr:  NPSUse=  2
 JobTyp=0 Pass  1:  I=   1 to  16.
 (rs|ai) integrals will be sorted in core.
 Complete sort for first half transformation.
 First half transformation complete.
 Begin second half transformation for I=  10.
 Complete sort for second half transformation.
 Second half transformation complete.
 SymMOI:  orbitals are not symmetric.
 Spin components of T(2) and E(2):
     alpha-alpha T2 =       0.2552631485D-01 E2=     -0.9844571978D-01
     alpha-beta  T2 =       0.1413305736D+00 E2=     -0.5530406338D+00
     beta-beta   T2 =       0.2552631485D-01 E2=     -0.9844571978D-01
 ANorm=    0.1091963005D+01
 E2 =    -0.7499320734D+00 EUMP2 =    -0.29036381744947D+04
 Leave Link  804 at Mon Dec  2 05:22:31 2019, MaxMem=  268435456 cpu:      40.5
 (Enter /home/matheus/.gaussian/g09/l913.exe)
 CIDS:  MDV=   268435456.
 Frozen-core window:  NFC=  11 NFV=   0.
 IFCWin=0 IBDFC=1 NFBD=     0     0 NFCmp=     0     0 NFFFC=     0     0
 Using DD3R+UMP44R for 1st iteration, S=T.
 Using DD4RQ for 2nd and later iterations.
 Would need an additional       431206676 words for in-memory AO integral storage.
 MP4(SDTQ)
 =========
 DD1Dir will call FoFDir   1 times, MxPair=       272
 NAB=   136 NAA=     0 NBB=     0 NumPrc=  2.
 Integrals replicated using symmetry in FoFDir.
 MinBra= 0 MaxBra= 3 Meth= 1.
 IRaf=       0 NMat= 272 IRICut=     340 DoRegI=T DoRafI=T ISym2E= 2 JSym2E=2.
 MP4(D)= -0.14974717D-01
 MP4(S)= -0.62996332D-02
 MP4(R+Q)=  0.14987816D-01
 T4(AAA)= -0.98580148D-03
 T4(AAB)= -0.13811232D-01
 Time for triples=     1344.51 seconds.
 MP4(T)=   -0.29594066D-01
 E3=       -0.11956837D-01        EUMP3=      -0.29036501313D+04
 E4(DQ)=    0.13098983D-04        UMP4(DQ)=   -0.29036501182D+04
 E4(SDQ)=  -0.62865342D-02        UMP4(SDQ)=  -0.29036564179D+04
 E4(SDTQ)= -0.35880601D-01        UMP4(SDTQ)= -0.29036860119D+04
 VARIATIONAL ENERGIES WITH THE FIRST-ORDER WAVEFUNCTION:
 E(VAR1)=  -0.29035272056D+04     E(CISD,4)=  -0.29035271313D+04
 Largest amplitude= 2.57D-02
 Leave Link  913 at Mon Dec  2 05:34:35 2019, MaxMem=  268435456 cpu:    1428.1
 (Enter /home/matheus/.gaussian/g09/l108.exe)
 Scan completed.

 Summary of the potential surface scan:
   N      R1          SCF          MP2          MP3         MP4DQ       MP4SDQ       MP4SDTQ  
 ----  ---------  -----------  -----------  -----------  -----------  -----------  -----------
    1     3.0000  -2902.87981  -2903.63692  -2903.64810  -2903.64763  -2903.65413  -2903.68469
    2     3.1000  -2902.88234  -2903.63835  -2903.64967  -2903.64928  -2903.65575  -2903.68616
    3     3.2000  -2902.88414  -2903.63921  -2903.65065  -2903.65032  -2903.65677  -2903.68705
    4     3.3000  -2902.88541  -2903.63968  -2903.65121  -2903.65093  -2903.65736  -2903.68754
    5     3.4000  -2902.88631  -2903.63989  -2903.65149  -2903.65126  -2903.65767  -2903.68775
    6     3.5000  -2902.88693  -2903.63992  -2903.65159  -2903.65140  -2903.65779  -2903.68779
    7     3.6000  -2902.88737  -2903.63985  -2903.65157  -2903.65141  -2903.65779  -2903.68772
    8     3.7000  -2902.88767  -2903.63972  -2903.65148  -2903.65134  -2903.65771  -2903.68759
    9     3.8000  -2902.88787  -2903.63956  -2903.65135  -2903.65124  -2903.65760  -2903.68743
   10     3.9000  -2902.88801  -2903.63939  -2903.65121  -2903.65111  -2903.65746  -2903.68725
   11     4.0000  -2902.88810  -2903.63922  -2903.65106  -2903.65098  -2903.65732  -2903.68708
   12     4.1000  -2902.88816  -2903.63906  -2903.65092  -2903.65086  -2903.65719  -2903.68691
   13     4.2000  -2902.88820  -2903.63891  -2903.65079  -2903.65074  -2903.65706  -2903.68676
   14     4.3000  -2902.88822  -2903.63878  -2903.65067  -2903.65063  -2903.65695  -2903.68663
   15     4.4000  -2902.88824  -2903.63866  -2903.65057  -2903.65053  -2903.65685  -2903.68650
   16     4.5000  -2902.88824  -2903.63855  -2903.65047  -2903.65044  -2903.65675  -2903.68640
   17     4.6000  -2902.88825  -2903.63846  -2903.65039  -2903.65036  -2903.65667  -2903.68630
   18     4.7000  -2902.88825  -2903.63837  -2903.65031  -2903.65029  -2903.65660  -2903.68621
   19     4.8000  -2902.88825  -2903.63830  -2903.65024  -2903.65023  -2903.65653  -2903.68614
   20     4.9000  -2902.88824  -2903.63823  -2903.65018  -2903.65017  -2903.65647  -2903.68607
   21     5.0000  -2902.88824  -2903.63817  -2903.65013  -2903.65012  -2903.65642  -2903.68601
 ----  ---------  -----------  -----------  -----------  -----------  -----------  -----------
  
 Leave Link  108 at Mon Dec  2 05:34:35 2019, MaxMem=  268435456 cpu:       0.0
 (Enter /home/matheus/.gaussian/g09/l9999.exe)
 1\1\GINC-REDGIANT\Scan\RMP4SDTQ-FC\Aug-CC-pVTZ\H2Kr1O2\MATHEUS\02-Dec-
 2019\1\\#p mp4/aug-cc-PVTz int=ultrafine Scan\\PTCC\\0,1\O,0,0.,0.,0.7
 25\O,0,0.,0.,-0.725\H,0,0.9047631646,-0.1595341571,1.0235104166\H,0,0.
 ,0.9187205947,-1.0235104166\Kr,0,0.,R1,0.\\R1=3.,s,20,0.1\\Version=EM6
 4L-G09RevC.01\State=1-A\HF=-2902.8798061,-2902.8823386,-2902.8841389,-
 2902.8854121,-2902.8863078,-2902.8869341,-2902.8873691,-2902.8876687,-
 2902.8878728,-2902.8880102,-2902.8881013,-2902.8881607,-2902.8881985,-
 2902.888222,-2902.8882359,-2902.8882435,-2902.8882469,-2902.8882477,-2
 902.8882467,-2902.8882448,-2902.8882424\MP2=-2903.6369192,-2903.638347
 5,-2903.6392083,-2903.6396788,-2903.6398867,-2903.6399234,-2903.639853
 5,-2903.6397224,-2903.6395607,-2903.6393885,-2903.6392185,-2903.639057
 9,-2903.6389102,-2903.6387768,-2903.6386575,-2903.6385512,-2903.638456
 8,-2903.638373,-2903.6382987,-2903.6382328,-2903.6381745\MP3=-2903.648
 096,-2903.6496718,-2903.650649,-2903.651212,-2903.651494,-2903.6515907
 ,-2903.65157,-2903.6514796,-2903.6513519,-2903.6512084,-2903.6510625,-
 2903.6509224,-2903.6507922,-2903.6506736,-2903.650567,-2903.6504716,-2
 903.6503866,-2903.650311,-2903.6502438,-2903.6501842,-2903.6501313\MP4
 D=-2903.6630784,-2903.6646538,-2903.6656311,-2903.6661943,-2903.666476
 3,-2903.6665727,-2903.6665516,-2903.6664606,-2903.6663323,-2903.666188
 1,-2903.6660417,-2903.6659011,-2903.6657703,-2903.6656513,-2903.665544
 2,-2903.6654484,-2903.6653629,-2903.6652869,-2903.6652192,-2903.665159
 2,-2903.665106\MP4DQ=-2903.647628,-2903.649276,-2903.6503157,-2903.650
 9324,-2903.6512601,-2903.6513954,-2903.6514073,-2903.6513442,-2903.651
 2394,-2903.6511149,-2903.6509849,-2903.6508579,-2903.6507386,-2903.650
 6291,-2903.6505299,-2903.6504406,-2903.6503607,-2903.6502892,-2903.650
 2254,-2903.6501687,-2903.6501182\MP4SDQ=-2903.6541338,-2903.6557529,-2
 903.6567677,-2903.6573628,-2903.6576715,-2903.6577903,-2903.6577877,-2
 903.657712,-2903.6575962,-2903.6574622,-2903.657324,-2903.6571899,-290
 3.6570645,-2903.6569497,-2903.6568459,-2903.6567528,-2903.6566696,-290
 3.6565952,-2903.656529,-2903.6564701,-2903.6564179\MP4SDTQ=-2903.68468
 76,-2903.6861598,-2903.687049,-2903.6875366,-2903.6877534,-2903.687793
 3,-2903.6877232,-2903.6875899,-2903.6874251,-2903.6872495,-2903.687076
 ,-2903.6869121,-2903.6867615,-2903.6866254,-2903.6865036,-2903.6863953
 ,-2903.686299,-2903.6862137,-2903.6861381,-2903.6860711,-2903.6860119\
 RMSD=4.558e-09,9.513e-09,9.309e-09,2.929e-09,9.372e-09,8.618e-09,7.887
 e-09,7.798e-09,5.963e-09,7.715e-09,7.279e-09,5.721e-09,5.085e-09,4.773
 e-09,4.630e-09,4.658e-09,4.717e-09,4.372e-09,3.679e-09,3.077e-09,2.667
 e-09\PG=C01 [X(H2Kr1O2)]\\@


 HE WHO LAUGHS LAST PROBABLY DIDN'T GET THE JOKE.
 Job cpu time:  0 days  8 hours 49 minutes 43.6 seconds.
 File lengths (MBytes):  RWF=   3950 Int=      0 D2E=      0 Chk=      4 Scr=      1
 Normal termination of Gaussian 09 at Mon Dec  2 05:34:36 2019.
