 Entering Gaussian System, Link 0=g09
 Input=/home/matheus/.ptcc/Inputs/H2O2-Kr_34.com
 Output=/home/matheus/.ptcc/Logs-MP4/H2O2-Kr_34.log
 Initial command:
 /home/matheus/.gaussian/g09/l1.exe /home/matheus/.gaussian/g09/scratch/Gau-8891.inp -scrdir=/home/matheus/.gaussian/g09/scratch/
 Entering Link 1 = /home/matheus/.gaussian/g09/l1.exe PID=      8893.
  
 Copyright (c) 1988,1990,1992,1993,1995,1998,2003,2009,2011,
            Gaussian, Inc.  All Rights Reserved.
  
 This is part of the Gaussian(R) 09 program.  It is based on
 the Gaussian(R) 03 system (copyright 2003, Gaussian, Inc.),
 the Gaussian(R) 98 system (copyright 1998, Gaussian, Inc.),
 the Gaussian(R) 94 system (copyright 1995, Gaussian, Inc.),
 the Gaussian 92(TM) system (copyright 1992, Gaussian, Inc.),
 the Gaussian 90(TM) system (copyright 1990, Gaussian, Inc.),
 the Gaussian 88(TM) system (copyright 1988, Gaussian, Inc.),
 the Gaussian 86(TM) system (copyright 1986, Carnegie Mellon
 University), and the Gaussian 82(TM) system (copyright 1983,
 Carnegie Mellon University). Gaussian is a federally registered
 trademark of Gaussian, Inc.
  
 This software contains proprietary and confidential information,
 including trade secrets, belonging to Gaussian, Inc.
  
 This software is provided under written license and may be
 used, copied, transmitted, or stored only in accord with that
 written license.
  
 The following legend is applicable only to US Government
 contracts under FAR:
  
                    RESTRICTED RIGHTS LEGEND
  
 Use, reproduction and disclosure by the US Government is
 subject to restrictions as set forth in subparagraphs (a)
 and (c) of the Commercial Computer Software - Restricted
 Rights clause in FAR 52.227-19.
  
 Gaussian, Inc.
 340 Quinnipiac St., Bldg. 40, Wallingford CT 06492
  
  
 ---------------------------------------------------------------
 Warning -- This program may not be used in any manner that
 competes with the business of Gaussian, Inc. or will provide
 assistance to any competitor of Gaussian, Inc.  The licensee
 of this program is prohibited from giving any competitor of
 Gaussian, Inc. access to this program.  By using this program,
 the user acknowledges that Gaussian, Inc. is engaged in the
 business of creating and licensing software in the field of
 computational chemistry and represents and warrants to the
 licensee that it is not a competitor of Gaussian, Inc. and that
 it will not use this program in any manner prohibited above.
 ---------------------------------------------------------------
  

 Cite this work as:
 Gaussian 09, Revision C.01,
 M. J. Frisch, G. W. Trucks, H. B. Schlegel, G. E. Scuseria, 
 M. A. Robb, J. R. Cheeseman, G. Scalmani, V. Barone, B. Mennucci, 
 G. A. Petersson, H. Nakatsuji, M. Caricato, X. Li, H. P. Hratchian, 
 A. F. Izmaylov, J. Bloino, G. Zheng, J. L. Sonnenberg, M. Hada, 
 M. Ehara, K. Toyota, R. Fukuda, J. Hasegawa, M. Ishida, T. Nakajima, 
 Y. Honda, O. Kitao, H. Nakai, T. Vreven, J. A. Montgomery, Jr., 
 J. E. Peralta, F. Ogliaro, M. Bearpark, J. J. Heyd, E. Brothers, 
 K. N. Kudin, V. N. Staroverov, T. Keith, R. Kobayashi, J. Normand, 
 K. Raghavachari, A. Rendell, J. C. Burant, S. S. Iyengar, J. Tomasi, 
 M. Cossi, N. Rega, J. M. Millam, M. Klene, J. E. Knox, J. B. Cross, 
 V. Bakken, C. Adamo, J. Jaramillo, R. Gomperts, R. E. Stratmann, 
 O. Yazyev, A. J. Austin, R. Cammi, C. Pomelli, J. W. Ochterski, 
 R. L. Martin, K. Morokuma, V. G. Zakrzewski, G. A. Voth, 
 P. Salvador, J. J. Dannenberg, S. Dapprich, A. D. Daniels, 
 O. Farkas, J. B. Foresman, J. V. Ortiz, J. Cioslowski, 
 and D. J. Fox, Gaussian, Inc., Wallingford CT, 2010.
 
 ******************************************
 Gaussian 09:  EM64L-G09RevC.01 23-Sep-2011
                18-Dec-2019 
 ******************************************
 %mem=2GB
 %nproc=2
 Will use up to    2 processors via shared memory.
 -------------------------------------
 #p mp4/aug-cc-PVTz int=ultrafine Scan
 -------------------------------------
 1/38=1,60=1/1,8;
 2/12=2,17=6,18=5,29=3,40=1/2;
 3/5=16,6=1,7=10,11=9,16=1,25=1,30=1,75=-5/1,2,3;
 4//1;
 5/5=2,38=5/2;
 8/6=4,9=120000,10=1/1,4;
 9/5=5/13;
 6/7=2,8=2,9=2,10=2,18=1/1;
 1/60=1/8(1);
 99/9=1/99;
 2/29=3/2;
 3/5=16,6=1,7=10,11=9,16=1,25=1,30=1,75=-5/1,2,3;
 4/5=5,16=3/1;
 5/5=2,38=5/2;
 8/6=4,9=120000,10=1/1,4;
 9/5=5/13;
 1/60=1/8(-6);
 99/9=1/99;
 Leave Link    1 at Wed Dec 18 20:22:39 2019, MaxMem=  268435456 cpu:       0.0
 (Enter /home/matheus/.gaussian/g09/l101.exe)
 ----
 PTCC
 ----
 Charge =  0 Multiplicity = 1
 Symbolic Z-Matrix:
 O                     0.        0.        0.725 
 O                     0.        0.       -0.725 
 H                    -0.31422   0.86331   1.02351 
 H                     0.        0.91872  -1.02351 
 Kr                    0.       R1        0. 
       Variables:
  R1                    3.     Scan 20    0.1    
 
 NAtoms=      5 NQM=        0 NQMF=       0 NMMI=      5 NMMIF=      0
                NMic=       0 NMicF=      0.
                    Isotopes and Nuclear Properties:
 (Nuclear quadrupole moments (NQMom) in fm**2, nuclear magnetic moments (NMagM)
  in nuclear magnetons)

  Atom         1           2           3           4           5
 IAtWgt=          16          16           1           1          84
 AtmWgt=  15.9949146  15.9949146   1.0078250   1.0078250  83.9115064
 NucSpn=           0           0           1           1           0
 AtZEff=   0.0000000   0.0000000   0.0000000   0.0000000   0.0000000
 NQMom=    0.0000000   0.0000000   0.0000000   0.0000000   0.0000000
 NMagM=    0.0000000   0.0000000   2.7928460   2.7928460   0.0000000
 Leave Link  101 at Wed Dec 18 20:22:40 2019, MaxMem=  268435456 cpu:       0.1
 (Enter /home/matheus/.gaussian/g09/l108.exe)
 Scan the potential surface.
 Variable   Value     No. Steps Step-Size
 -------- ----------- --------- ---------
     1       3.000000      20      0.1000
 A total of     21 points will be computed.
 Leave Link  108 at Wed Dec 18 20:22:40 2019, MaxMem=  268435456 cpu:       0.0
 (Enter /home/matheus/.gaussian/g09/l202.exe)
 ---------------------------------------------------------------------------------------------------
                            Z-MATRIX (ANGSTROMS AND DEGREES)
   CD    Cent   Atom    N1       Length/X        N2       Alpha/Y        N3        Beta/Z          J
 ---------------------------------------------------------------------------------------------------
      1      1  O        0   0.000000          0.000000          0.725000
      2      2  O        0   0.000000          0.000000         -0.725000
      3      3  H        0  -0.314221          0.863315          1.023510
      4      4  H        0   0.000000          0.918721         -1.023510
      5      5  Kr       0   0.000000          3.000000          0.000000
 ---------------------------------------------------------------------------------------------------
                         Z-Matrix orientation:                         
 ---------------------------------------------------------------------
 Center     Atomic      Atomic             Coordinates (Angstroms)
 Number     Number       Type             X           Y           Z
 ---------------------------------------------------------------------
      1          8           0        0.000000    0.000000    0.725000
      2          8           0        0.000000    0.000000   -0.725000
      3          1           0       -0.314221    0.863315    1.023510
      4          1           0        0.000000    0.918721   -1.023510
      5         36           0        0.000000    3.000000    0.000000
 ---------------------------------------------------------------------
                    Distance matrix (angstroms):
                    1          2          3          4          5
     1  O    0.000000
     2  O    1.450000   0.000000
     3  H    0.966000   1.975180   0.000000
     4  H    1.975180   0.966000   2.071738   0.000000
     5  Kr   3.086361   3.086361   2.389923   2.319331   0.000000
 Stoichiometry    H2KrO2
 Framework group  C1[X(H2KrO2)]
 Deg. of freedom     9
 Full point group                 C1      NOp   1
 Largest Abelian subgroup         C1      NOp   1
 Largest concise Abelian subgroup C1      NOp   1
                         Standard orientation:                         
 ---------------------------------------------------------------------
 Center     Atomic      Atomic             Coordinates (Angstroms)
 Number     Number       Type             X           Y           Z
 ---------------------------------------------------------------------
      1          8           0       -2.033423   -0.722971   -0.035434
      2          8           0       -2.032510    0.726339    0.009272
      3          1           0       -1.171431   -1.031666    0.272517
      4          1           0       -1.113607    1.024028    0.021759
      5         36           0        0.967014   -0.000536   -0.002361
 ---------------------------------------------------------------------
 Rotational constants (GHZ):     26.5652681      2.3862430      2.1913165
 Leave Link  202 at Wed Dec 18 20:22:40 2019, MaxMem=  268435456 cpu:       0.0
 (Enter /home/matheus/.gaussian/g09/l301.exe)
 Standard basis: Aug-CC-pVTZ (5D, 7F)
 Ernie: Thresh=  0.10000D-02 Tol=  0.10000D-05 Strict=F.
 Ernie:  38 primitive shells out of 205 were deleted.
 There are   197 symmetry adapted basis functions of A   symmetry.
 Integral buffers will be    131072 words long.
 Raffenetti 1 integral format.
 Two-electron integral symmetry is turned on.
   197 basis functions,   415 primitive gaussians,   229 cartesian basis functions
    27 alpha electrons       27 beta electrons
       nuclear repulsion energy       151.6075768884 Hartrees.
 IExCor=    0 DFT=F Ex=HF Corr=None ExCW=0 ScaHFX=  1.000000
 ScaDFX=  1.000000  1.000000  1.000000  1.000000 ScalE2=  1.000000  1.000000
 IRadAn=      5 IRanWt=     -1 IRanGd=            0 ICorTp=0
 NAtoms=    5 NActive=    5 NUniq=    5 SFac= 1.00D+00 NAtFMM=   60 NAOKFM=F Big=F
 Leave Link  301 at Wed Dec 18 20:22:40 2019, MaxMem=  268435456 cpu:       0.1
 (Enter /home/matheus/.gaussian/g09/l302.exe)
 NPDir=0 NMtPBC=     1 NCelOv=     1 NCel=       1 NClECP=     1 NCelD=      1
         NCelK=      1 NCelE2=     1 NClLst=     1 CellRange=     0.0.
 One-electron integrals computed using PRISM.
 NBasis=   197 RedAO= T  NBF=   197
 NBsUse=   197 1.00D-06 NBFU=   197
 Leave Link  302 at Wed Dec 18 20:22:40 2019, MaxMem=  268435456 cpu:       0.2
 (Enter /home/matheus/.gaussian/g09/l303.exe)
 DipDrv:  MaxL=1.
 Leave Link  303 at Wed Dec 18 20:22:40 2019, MaxMem=  268435456 cpu:       0.0
 (Enter /home/matheus/.gaussian/g09/l401.exe)
 Harris functional with IExCor=  205 diagonalized for initial guess.
 ExpMin= 2.53D-02 ExpMax= 1.17D+07 ExpMxC= 1.33D+04 IAcc=3 IRadAn=         5 AccDes= 0.00D+00
 HarFok:  IExCor=  205 AccDes= 0.00D+00 IRadAn=         5 IDoV= 1
 ScaDFX=  1.000000  1.000000  1.000000  1.000000
 FoFCou: FMM=F IPFlag=           0 FMFlag=      100000 FMFlg1=           0
         NFxFlg=           0 DoJE=T BraDBF=F KetDBF=T FulRan=T
         Omega=  0.000000  0.000000  1.000000  0.000000  0.000000 ICntrl=     500 IOpCl=  0
         NMat0=    1 NMatS0=    1 NMatT0=    0 NMatD0=    1 NMtDS0=    0 NMtDT0=    0
         I1Cent=           4 NGrid=           0.
 Petite list used in FoFCou.
 Harris En= -2901.92451223675    
 Initial guess orbital symmetries:
       Occupied  (A) (A) (A) (A) (A) (A) (A) (A) (A) (A) (A) (A)
                 (A) (A) (A) (A) (A) (A) (A) (A) (A) (A) (A) (A)
                 (A) (A) (A)
       Virtual   (A) (A) (A) (A) (A) (A) (A) (A) (A) (A) (A) (A)
                 (A) (A) (A) (A) (A) (A) (A) (A) (A) (A) (A) (A)
                 (A) (A) (A) (A) (A) (A) (A) (A) (A) (A) (A) (A)
                 (A) (A) (A) (A) (A) (A) (A) (A) (A) (A) (A) (A)
                 (A) (A) (A) (A) (A) (A) (A) (A) (A) (A) (A) (A)
                 (A) (A) (A) (A) (A) (A) (A) (A) (A) (A) (A) (A)
                 (A) (A) (A) (A) (A) (A) (A) (A) (A) (A) (A) (A)
                 (A) (A) (A) (A) (A) (A) (A) (A) (A) (A) (A) (A)
                 (A) (A) (A) (A) (A) (A) (A) (A) (A) (A) (A) (A)
                 (A) (A) (A) (A) (A) (A) (A) (A) (A) (A) (A) (A)
                 (A) (A) (A) (A) (A) (A) (A) (A) (A) (A) (A) (A)
                 (A) (A) (A) (A) (A) (A) (A) (A) (A) (A) (A) (A)
                 (A) (A) (A) (A) (A) (A) (A) (A) (A) (A) (A) (A)
                 (A) (A) (A) (A) (A) (A) (A) (A) (A) (A) (A) (A)
                 (A) (A)
 The electronic state of the initial guess is 1-A.
 Leave Link  401 at Wed Dec 18 20:22:40 2019, MaxMem=  268435456 cpu:       1.3
 (Enter /home/matheus/.gaussian/g09/l502.exe)
 Closed shell SCF:
 Requested convergence on RMS density matrix=1.00D-08 within 128 cycles.
 Requested convergence on MAX density matrix=1.00D-06.
 Requested convergence on             energy=1.00D-06.
 No special actions if energy rises.
 Using DIIS extrapolation, IDIIS=  1040.
 Integral symmetry usage will be decided dynamically.
 IEnd=      178489 IEndB=      178489 NGot=   268435456 MDV=   268326278
 LenX=   268326278 LenY=   268273396
 Fock matrices will be formed incrementally for  20 cycles.

 Cycle   1  Pass 0  IDiag  1:
 FoFCou: FMM=F IPFlag=           0 FMFlag=      100000 FMFlg1=           0
         NFxFlg=           0 DoJE=F BraDBF=F KetDBF=F FulRan=T
         Omega=  0.000000  0.000000  1.000000  0.000000  0.000000 ICntrl=       0 IOpCl=  0
         NMat0=    1 NMatS0=    1 NMatT0=    0 NMatD0=    1 NMtDS0=    0 NMtDT0=    0
         I1Cent=           0 NGrid=           0.
 Symmetry not used in FoFCou.
 E= -2902.74576780239    
 DIIS: error= 6.01D-02 at cycle   1 NSaved=   1.
 NSaved= 1 IEnMin= 1 EnMin= -2902.74576780239     IErMin= 1 ErrMin= 6.01D-02
 ErrMax= 6.01D-02 EMaxC= 1.00D-01 BMatC= 7.06D-01 BMatP= 7.06D-01
 IDIUse=3 WtCom= 3.99D-01 WtEn= 6.01D-01
 Coeff-Com:  0.100D+01
 Coeff-En:   0.100D+01
 Coeff:      0.100D+01
 Gap=     0.682 Goal=   None    Shift=    0.000
 GapD=    0.682 DampG=2.000 DampE=0.500 DampFc=1.0000 IDamp=-1.
 RMSDP=2.32D-03 MaxDP=1.55D-01              OVMax= 5.53D-02

 Cycle   2  Pass 0  IDiag  1:
 RMSU=  1.62D-03    CP:  1.01D+00
 E= -2902.85281431428     Delta-E=       -0.107046511885 Rises=F Damp=F
 DIIS: error= 9.10D-03 at cycle   2 NSaved=   2.
 NSaved= 2 IEnMin= 2 EnMin= -2902.85281431428     IErMin= 2 ErrMin= 9.10D-03
 ErrMax= 9.10D-03 EMaxC= 1.00D-01 BMatC= 4.42D-02 BMatP= 7.06D-01
 IDIUse=3 WtCom= 9.09D-01 WtEn= 9.10D-02
 Coeff-Com:  0.157D+00 0.843D+00
 Coeff-En:   0.000D+00 0.100D+01
 Coeff:      0.143D+00 0.857D+00
 Gap=     0.514 Goal=   None    Shift=    0.000
 RMSDP=8.73D-04 MaxDP=4.44D-02 DE=-1.07D-01 OVMax= 2.47D-02

 Cycle   3  Pass 0  IDiag  1:
 RMSU=  4.79D-04    CP:  1.01D+00  7.71D-01
 E= -2902.86824772279     Delta-E=       -0.015433408511 Rises=F Damp=F
 DIIS: error= 2.29D-03 at cycle   3 NSaved=   3.
 NSaved= 3 IEnMin= 3 EnMin= -2902.86824772279     IErMin= 3 ErrMin= 2.29D-03
 ErrMax= 2.29D-03 EMaxC= 1.00D-01 BMatC= 2.66D-03 BMatP= 4.42D-02
 IDIUse=3 WtCom= 9.77D-01 WtEn= 2.29D-02
 Coeff-Com: -0.559D-02 0.176D+00 0.830D+00
 Coeff-En:   0.000D+00 0.000D+00 0.100D+01
 Coeff:     -0.546D-02 0.172D+00 0.834D+00
 Gap=     0.489 Goal=   None    Shift=    0.000
 RMSDP=1.37D-04 MaxDP=5.22D-03 DE=-1.54D-02 OVMax= 7.89D-03

 Cycle   4  Pass 0  IDiag  1:
 RMSU=  5.12D-05    CP:  1.01D+00  8.03D-01  8.73D-01
 E= -2902.86956559406     Delta-E=       -0.001317871276 Rises=F Damp=F
 DIIS: error= 4.57D-04 at cycle   4 NSaved=   4.
 NSaved= 4 IEnMin= 4 EnMin= -2902.86956559406     IErMin= 4 ErrMin= 4.57D-04
 ErrMax= 4.57D-04 EMaxC= 1.00D-01 BMatC= 5.54D-05 BMatP= 2.66D-03
 IDIUse=3 WtCom= 9.95D-01 WtEn= 4.57D-03
 Coeff-Com: -0.464D-02 0.136D-01 0.162D+00 0.829D+00
 Coeff-En:   0.000D+00 0.000D+00 0.000D+00 0.100D+01
 Coeff:     -0.462D-02 0.135D-01 0.162D+00 0.829D+00
 Gap=     0.494 Goal=   None    Shift=    0.000
 RMSDP=2.46D-05 MaxDP=7.06D-04 DE=-1.32D-03 OVMax= 1.73D-03

 Cycle   5  Pass 0  IDiag  1:
 RMSU=  1.43D-05    CP:  1.01D+00  8.05D-01  8.92D-01  9.49D-01
 E= -2902.86961038286     Delta-E=       -0.000044788793 Rises=F Damp=F
 DIIS: error= 1.59D-04 at cycle   5 NSaved=   5.
 NSaved= 5 IEnMin= 5 EnMin= -2902.86961038286     IErMin= 5 ErrMin= 1.59D-04
 ErrMax= 1.59D-04 EMaxC= 1.00D-01 BMatC= 3.63D-06 BMatP= 5.54D-05
 IDIUse=3 WtCom= 9.98D-01 WtEn= 1.59D-03
 Coeff-Com:  0.857D-03-0.152D-01-0.724D-01 0.292D-03 0.109D+01
 Coeff-En:   0.000D+00 0.000D+00 0.000D+00 0.000D+00 0.100D+01
 Coeff:      0.856D-03-0.152D-01-0.723D-01 0.292D-03 0.109D+01
 Gap=     0.493 Goal=   None    Shift=    0.000
 RMSDP=1.12D-05 MaxDP=3.22D-04 DE=-4.48D-05 OVMax= 7.21D-04

 Cycle   6  Pass 0  IDiag  1:
 RMSU=  4.91D-06    CP:  1.01D+00  8.03D-01  8.89D-01  1.03D+00  1.25D+00
 E= -2902.86961555889     Delta-E=       -0.000005176033 Rises=F Damp=F
 DIIS: error= 2.86D-05 at cycle   6 NSaved=   6.
 NSaved= 6 IEnMin= 6 EnMin= -2902.86961555889     IErMin= 6 ErrMin= 2.86D-05
 ErrMax= 2.86D-05 EMaxC= 1.00D-01 BMatC= 1.84D-07 BMatP= 3.63D-06
 IDIUse=1 WtCom= 1.00D+00 WtEn= 0.00D+00
 Coeff-Com:  0.158D-03 0.522D-03-0.451D-02-0.462D-01-0.616D-01 0.111D+01
 Coeff:      0.158D-03 0.522D-03-0.451D-02-0.462D-01-0.616D-01 0.111D+01
 Gap=     0.493 Goal=   None    Shift=    0.000
 RMSDP=3.14D-06 MaxDP=1.00D-04 DE=-5.18D-06 OVMax= 2.01D-04

 Initial convergence to 1.0D-05 achieved.  Increase integral accuracy.
 Cycle   7  Pass 1  IDiag  1:
 E= -2902.86961595013     Delta-E=       -0.000000391236 Rises=F Damp=F
 DIIS: error= 8.77D-06 at cycle   1 NSaved=   1.
 NSaved= 1 IEnMin= 1 EnMin= -2902.86961595013     IErMin= 1 ErrMin= 8.77D-06
 ErrMax= 8.77D-06 EMaxC= 1.00D-01 BMatC= 1.48D-08 BMatP= 1.48D-08
 IDIUse=1 WtCom= 1.00D+00 WtEn= 0.00D+00
 Coeff-Com:  0.100D+01
 Coeff:      0.100D+01
 Gap=     0.494 Goal=   None    Shift=    0.000
 RMSDP=3.14D-06 MaxDP=1.00D-04 DE=-3.91D-07 OVMax= 5.78D-05

 Cycle   8  Pass 1  IDiag  1:
 RMSU=  6.08D-07    CP:  1.00D+00
 E= -2902.86961598300     Delta-E=       -0.000000032875 Rises=F Damp=F
 DIIS: error= 5.25D-06 at cycle   2 NSaved=   2.
 NSaved= 2 IEnMin= 2 EnMin= -2902.86961598300     IErMin= 2 ErrMin= 5.25D-06
 ErrMax= 5.25D-06 EMaxC= 1.00D-01 BMatC= 4.54D-09 BMatP= 1.48D-08
 IDIUse=1 WtCom= 1.00D+00 WtEn= 0.00D+00
 Coeff-Com:  0.498D-01 0.950D+00
 Coeff:      0.498D-01 0.950D+00
 Gap=     0.494 Goal=   None    Shift=    0.000
 RMSDP=4.00D-07 MaxDP=1.51D-05 DE=-3.29D-08 OVMax= 2.90D-05

 Cycle   9  Pass 1  IDiag  1:
 RMSU=  1.65D-07    CP:  1.00D+00  1.38D+00
 E= -2902.86961599137     Delta-E=       -0.000000008375 Rises=F Damp=F
 DIIS: error= 3.15D-06 at cycle   3 NSaved=   3.
 NSaved= 3 IEnMin= 3 EnMin= -2902.86961599137     IErMin= 3 ErrMin= 3.15D-06
 ErrMax= 3.15D-06 EMaxC= 1.00D-01 BMatC= 1.63D-09 BMatP= 4.54D-09
 IDIUse=1 WtCom= 1.00D+00 WtEn= 0.00D+00
 Coeff-Com: -0.380D+00 0.260D+00 0.112D+01
 Coeff:     -0.380D+00 0.260D+00 0.112D+01
 Gap=     0.494 Goal=   None    Shift=    0.000
 RMSDP=3.85D-07 MaxDP=1.24D-05 DE=-8.37D-09 OVMax= 3.06D-05

 Cycle  10  Pass 1  IDiag  1:
 RMSU=  5.75D-08    CP:  1.00D+00  1.81D+00  1.19D+00
 E= -2902.86961599519     Delta-E=       -0.000000003819 Rises=F Damp=F
 DIIS: error= 6.78D-07 at cycle   4 NSaved=   4.
 NSaved= 4 IEnMin= 4 EnMin= -2902.86961599519     IErMin= 4 ErrMin= 6.78D-07
 ErrMax= 6.78D-07 EMaxC= 1.00D-01 BMatC= 6.04D-11 BMatP= 1.63D-09
 IDIUse=1 WtCom= 1.00D+00 WtEn= 0.00D+00
 Coeff-Com:  0.754D-02-0.601D-01-0.170D-01 0.107D+01
 Coeff:      0.754D-02-0.601D-01-0.170D-01 0.107D+01
 Gap=     0.494 Goal=   None    Shift=    0.000
 RMSDP=6.34D-08 MaxDP=1.71D-06 DE=-3.82D-09 OVMax= 5.91D-06

 Cycle  11  Pass 1  IDiag  1:
 RMSU=  1.74D-08    CP:  1.00D+00  1.86D+00  1.29D+00  1.37D+00
 E= -2902.86961599536     Delta-E=       -0.000000000171 Rises=F Damp=F
 DIIS: error= 3.22D-07 at cycle   5 NSaved=   5.
 NSaved= 5 IEnMin= 5 EnMin= -2902.86961599536     IErMin= 5 ErrMin= 3.22D-07
 ErrMax= 3.22D-07 EMaxC= 1.00D-01 BMatC= 1.05D-11 BMatP= 6.04D-11
 IDIUse=1 WtCom= 1.00D+00 WtEn= 0.00D+00
 Coeff-Com:  0.561D-01-0.307D-01-0.169D+00-0.192D+00 0.134D+01
 Coeff:      0.561D-01-0.307D-01-0.169D+00-0.192D+00 0.134D+01
 Gap=     0.494 Goal=   None    Shift=    0.000
 RMSDP=3.27D-08 MaxDP=7.63D-07 DE=-1.71D-10 OVMax= 3.34D-06

 Cycle  12  Pass 1  IDiag  1:
 RMSU=  7.10D-09    CP:  1.00D+00  1.87D+00  1.33D+00  1.66D+00  1.52D+00
 E= -2902.86961599541     Delta-E=       -0.000000000045 Rises=F Damp=F
 DIIS: error= 7.89D-08 at cycle   6 NSaved=   6.
 NSaved= 6 IEnMin= 6 EnMin= -2902.86961599541     IErMin= 6 ErrMin= 7.89D-08
 ErrMax= 7.89D-08 EMaxC= 1.00D-01 BMatC= 9.08D-13 BMatP= 1.05D-11
 IDIUse=1 WtCom= 1.00D+00 WtEn= 0.00D+00
 Coeff-Com: -0.315D-02 0.485D-02 0.929D-02-0.563D-01-0.114D+00 0.116D+01
 Coeff:     -0.315D-02 0.485D-02 0.929D-02-0.563D-01-0.114D+00 0.116D+01
 Gap=     0.494 Goal=   None    Shift=    0.000
 RMSDP=8.05D-09 MaxDP=2.25D-07 DE=-4.55D-11 OVMax= 7.97D-07

 SCF Done:  E(RHF) =  -2902.86961600     A.U. after   12 cycles
             Convg  =    0.8048D-08             -V/T =  2.0001
 KE= 2.902670054748D+03 PE=-7.242757398912D+03 EE= 1.285610151280D+03
 Leave Link  502 at Wed Dec 18 20:23:34 2019, MaxMem=  268435456 cpu:     106.8
 (Enter /home/matheus/.gaussian/g09/l801.exe)
 Windowed orbitals will be sorted by symmetry type.
 ExpMin= 2.53D-02 ExpMax= 1.17D+07 ExpMxC= 1.33D+04 IAcc=3 IRadAn=         5 AccDes= 0.00D+00
 HarFok:  IExCor=  205 AccDes= 0.00D+00 IRadAn=         5 IDoV=-2
 ScaDFX=  1.000000  1.000000  1.000000  1.000000
 DSYEVD returned Info=          93 IAlg= 4 N=    46 NDim=    46 NE2=     4547561 trying DSYEV.
 DSYEVD returned Info=          93 IAlg= 4 N=    46 NDim=    46 NE2=     4547561 trying DSYEV.
 DSYEVD returned Info=          89 IAlg= 4 N=    59 NDim=    59 NE2=     4547561 trying DSYEV.
 Largest valence mixing into a core orbital is  1.45D-04
 Largest core mixing into a valence orbital is  2.63D-05
 Range of M.O.s used for correlation:    12   197
 NBasis=   197 NAE=    27 NBE=    27 NFC=    11 NFV=     0
 NROrb=    186 NOA=    16 NOB=    16 NVA=   170 NVB=   170

 **** Warning!!: The largest alpha MO coefficient is  0.17471288D+02

 Leave Link  801 at Wed Dec 18 20:23:34 2019, MaxMem=  268435456 cpu:       0.3
 (Enter /home/matheus/.gaussian/g09/l804.exe)
 Closed-shell transformation, MDV=   268435456 ITran=4 ISComp=1.
 Semi-Direct transformation.
 ModeAB=           2 MOrb=            16 LenV=     267323282
 LASXX=     48528660 LTotXX=    48528660 LenRXX=    48528660
 LTotAB=    49298776 MaxLAS=    78372960 LenRXY=    78372960
 NonZer=    97057320 LenScr=   146313216 LnRSAI=           0
 LnScr1=           0 LExtra=           0 Total=    273214836
 MaxDsk=          -1 SrtSym=           F ITran=            4
 DoSDTr:  NPSUse=  2
 JobTyp=0 Pass  1:  I=   1 to  16.
 (rs|ai) integrals will be sorted in core.
 Complete sort for first half transformation.
 First half transformation complete.
 Begin second half transformation for I=  10.
 Begin second half transformation for I=  10.
 Complete sort for second half transformation.
 Second half transformation complete.
 SymMOI:  orbitals are not symmetric.
 Spin components of T(2) and E(2):
     alpha-alpha T2 =       0.2622087859D-01 E2=     -0.1005696231D+00
     alpha-beta  T2 =       0.1424739887D+00 E2=     -0.5581863230D+00
     beta-beta   T2 =       0.2622087859D-01 E2=     -0.1005696231D+00
 ANorm=    0.1093122018D+01
 E2 =    -0.7593255692D+00 EUMP2 =    -0.29036289415647D+04
 Leave Link  804 at Wed Dec 18 20:24:01 2019, MaxMem=  268435456 cpu:      51.8
 (Enter /home/matheus/.gaussian/g09/l913.exe)
 CIDS:  MDV=   268435456.
 Frozen-core window:  NFC=  11 NFV=   0.
 IFCWin=0 IBDFC=1 NFBD=     0     0 NFCmp=     0     0 NFFFC=     0     0
 Using DD3R+UMP44R for 1st iteration, S=T.
 Using DD4RQ for 2nd and later iterations.
 Would need an additional       431206676 words for in-memory AO integral storage.
 MP4(SDTQ)
 =========
 DD1Dir will call FoFDir   1 times, MxPair=       272
 NAB=   136 NAA=     0 NBB=     0 NumPrc=  2.
 Integrals replicated using symmetry in FoFDir.
 MinBra= 0 MaxBra= 3 Meth= 1.
 IRaf=       0 NMat= 272 IRICut=     340 DoRegI=T DoRafI=T ISym2E= 2 JSym2E=2.
 MP4(D)= -0.14918941D-01
 MP4(S)= -0.65829121D-02
 MP4(R+Q)=  0.15673018D-01
 T4(AAA)= -0.10732148D-02
 T4(AAB)= -0.14411802D-01
 Time for triples=     1406.29 seconds.
 MP4(T)=   -0.30970034D-01
 E3=       -0.10953879D-01        EUMP3=      -0.29036398954D+04
 E4(DQ)=    0.75407663D-03        UMP4(DQ)=   -0.29036391414D+04
 E4(SDQ)=  -0.58288355D-02        UMP4(SDQ)=  -0.29036457243D+04
 E4(SDTQ)= -0.36798869D-01        UMP4(SDTQ)= -0.29036766943D+04
 VARIATIONAL ENERGIES WITH THE FIRST-ORDER WAVEFUNCTION:
 E(VAR1)=  -0.29035142468D+04     E(CISD,4)=  -0.29035133928D+04
 Largest amplitude= 4.28D-02
 Leave Link  913 at Wed Dec 18 20:36:48 2019, MaxMem=  268435456 cpu:    1528.7
 (Enter /home/matheus/.gaussian/g09/l601.exe)
 Copying SCF densities to generalized density rwf, IOpCl= 0 IROHF=0.

 **********************************************************************

            Population analysis using the SCF density.

 **********************************************************************

 Orbital symmetries:
       Occupied  (A) (A) (A) (A) (A) (A) (A) (A) (A) (A) (A) (A)
                 (A) (A) (A) (A) (A) (A) (A) (A) (A) (A) (A) (A)
                 (A) (A) (A)
       Virtual   (A) (A) (A) (A) (A) (A) (A) (A) (A) (A) (A) (A)
                 (A) (A) (A) (A) (A) (A) (A) (A) (A) (A) (A) (A)
                 (A) (A) (A) (A) (A) (A) (A) (A) (A) (A) (A) (A)
                 (A) (A) (A) (A) (A) (A) (A) (A) (A) (A) (A) (A)
                 (A) (A) (A) (A) (A) (A) (A) (A) (A) (A) (A) (A)
                 (A) (A) (A) (A) (A) (A) (A) (A) (A) (A) (A) (A)
                 (A) (A) (A) (A) (A) (A) (A) (A) (A) (A) (A) (A)
                 (A) (A) (A) (A) (A) (A) (A) (A) (A) (A) (A) (A)
                 (A) (A) (A) (A) (A) (A) (A) (A) (A) (A) (A) (A)
                 (A) (A) (A) (A) (A) (A) (A) (A) (A) (A) (A) (A)
                 (A) (A) (A) (A) (A) (A) (A) (A) (A) (A) (A) (A)
                 (A) (A) (A) (A) (A) (A) (A) (A) (A) (A) (A) (A)
                 (A) (A) (A) (A) (A) (A) (A) (A) (A) (A) (A) (A)
                 (A) (A) (A) (A) (A) (A) (A) (A) (A) (A) (A) (A)
                 (A) (A)
 The electronic state is 1-A.
 Alpha  occ. eigenvalues -- -520.20332 -69.94090 -63.04746 -63.04746 -63.04743
 Alpha  occ. eigenvalues --  -20.62625 -20.62554 -10.88755  -8.36971  -8.36958
 Alpha  occ. eigenvalues --   -8.36940  -3.86347  -3.86346  -3.86325  -3.86318
 Alpha  occ. eigenvalues --   -3.86313  -1.46719  -1.21457  -1.19472  -0.76900
 Alpha  occ. eigenvalues --   -0.63246  -0.59878  -0.58460  -0.56107  -0.55577
 Alpha  occ. eigenvalues --   -0.54704  -0.45723
 Alpha virt. eigenvalues --    0.03630   0.04615   0.08504   0.09296   0.11337
 Alpha virt. eigenvalues --    0.13587   0.14623   0.16806   0.18198   0.18928
 Alpha virt. eigenvalues --    0.19541   0.20236   0.23350   0.25610   0.25826
 Alpha virt. eigenvalues --    0.26616   0.28576   0.29500   0.34155   0.35722
 Alpha virt. eigenvalues --    0.36295   0.38980   0.40600   0.41163   0.42174
 Alpha virt. eigenvalues --    0.46219   0.49419   0.51933   0.56368   0.57624
 Alpha virt. eigenvalues --    0.63957   0.65405   0.66570   0.68962   0.70447
 Alpha virt. eigenvalues --    0.74202   0.75124   0.77816   0.79007   0.81696
 Alpha virt. eigenvalues --    0.82237   0.82838   0.87037   0.88227   0.91103
 Alpha virt. eigenvalues --    0.91610   0.92971   0.94382   0.97419   0.98512
 Alpha virt. eigenvalues --    0.99899   1.02327   1.03413   1.05319   1.06498
 Alpha virt. eigenvalues --    1.11313   1.11518   1.13139   1.16309   1.18115
 Alpha virt. eigenvalues --    1.20623   1.25419   1.30041   1.33387   1.34822
 Alpha virt. eigenvalues --    1.39157   1.43065   1.47422   1.49071   1.53448
 Alpha virt. eigenvalues --    1.58201   1.61565   1.63656   1.66236   1.68732
 Alpha virt. eigenvalues --    1.72308   1.79059   1.96630   2.03930   2.08252
 Alpha virt. eigenvalues --    2.13466   2.19233   2.25778   2.28546   2.32377
 Alpha virt. eigenvalues --    2.34518   2.37302   2.38521   2.41749   2.46568
 Alpha virt. eigenvalues --    2.47719   2.48138   2.51220   2.52154   2.53690
 Alpha virt. eigenvalues --    2.56504   2.58779   2.60915   2.64661   2.66481
 Alpha virt. eigenvalues --    2.68597   2.69670   2.75606   2.77185   2.78599
 Alpha virt. eigenvalues --    2.81598   2.83014   2.86102   2.86612   2.90420
 Alpha virt. eigenvalues --    2.93135   2.97158   3.00369   3.05798   3.11281
 Alpha virt. eigenvalues --    3.12755   3.29438   3.31325   3.32187   3.77463
 Alpha virt. eigenvalues --    3.94078   4.13389   4.21385   4.25481   4.32375
 Alpha virt. eigenvalues --    4.35081   4.37701   4.40129   4.41997   4.50491
 Alpha virt. eigenvalues --    4.64645   4.75198   4.79185   4.99979   5.03088
 Alpha virt. eigenvalues --    5.22383   5.25914   5.31780   5.35181   5.37637
 Alpha virt. eigenvalues --    5.43273   5.86180   6.15613   6.35307   6.39400
 Alpha virt. eigenvalues --    6.45977   6.69746   6.71447   6.82522   6.92298
 Alpha virt. eigenvalues --    7.03868   7.11749   7.15492   7.19337   7.19606
 Alpha virt. eigenvalues --    7.24932   7.26757   7.28257   7.30793   7.46485
 Alpha virt. eigenvalues --    7.53761   7.57646   7.66203   7.74038   7.97285
 Alpha virt. eigenvalues --    8.38991   8.42884   8.58632  14.46462  15.38725
          Condensed to atoms (all electrons):
              1          2          3          4          5
     1  O    8.148548  -0.111188   0.226991   0.016812  -0.016581
     2  O   -0.111188   8.141170   0.021777   0.237555  -0.013246
     3  H    0.226991   0.021777   0.511692  -0.014534  -0.005859
     4  H    0.016812   0.237555  -0.014534   0.505222  -0.011908
     5  Kr  -0.016581  -0.013246  -0.005859  -0.011908  36.033732
 Mulliken atomic charges:
              1
     1  O   -0.264581
     2  O   -0.276067
     3  H    0.259933
     4  H    0.266854
     5  Kr   0.013863
 Sum of Mulliken atomic charges =   0.00000
 Mulliken charges with hydrogens summed into heavy atoms:
              1
     1  O   -0.004649
     2  O   -0.009214
     5  Kr   0.013863
 Sum of Mulliken charges with hydrogens summed into heavy atoms =   0.00000
 Electronic spatial extent (au):  <R**2>=            475.9802
 Charge=              0.0000 electrons
 Dipole moment (field-independent basis, Debye):
    X=              3.6767    Y=             -0.0432    Z=              0.4748  Tot=              3.7075
 Quadrupole moment (field-independent basis, Debye-Ang):
   XX=            -39.1582   YY=            -28.0719   ZZ=            -30.1961
   XY=              0.1372   XZ=             -0.5532   YZ=             -0.6258
 Traceless Quadrupole moment (field-independent basis, Debye-Ang):
   XX=             -6.6828   YY=              4.4035   ZZ=              2.2793
   XY=              0.1372   XZ=             -0.5532   YZ=             -0.6258
 Octapole moment (field-independent basis, Debye-Ang**2):
  XXX=             44.8032  YYY=             -0.1064  ZZZ=              0.0403  XYY=              7.8008
  XXY=             -0.3201  XXZ=              0.0644  XZZ=              8.2169  YZZ=             -0.2176
  YYZ=              0.7204  XYZ=              0.7152
 Hexadecapole moment (field-independent basis, Debye-Ang**3):
 XXXX=           -456.4268 YYYY=            -62.5058 ZZZZ=            -28.4050 XXXY=              0.3324
 XXXZ=              0.7213 YYYX=              0.2545 YYYZ=             -0.8558 ZZZX=             -0.2707
 ZZZY=             -0.3618 XXYY=            -86.2373 XXZZ=            -75.4486 YYZZ=            -16.8437
 XXYZ=             -0.8040 YYXZ=             -0.8542 ZZXY=              0.2806
 N-N= 1.516075768884D+02 E-N=-7.242757389142D+03  KE= 2.902670054748D+03
 Leave Link  601 at Wed Dec 18 20:36:49 2019, MaxMem=  268435456 cpu:       0.1
 (Enter /home/matheus/.gaussian/g09/l108.exe)
 Variable Step   Value    
 -------- ---- -----------
     1       1    5.858151
 Leave Link  108 at Wed Dec 18 20:36:49 2019, MaxMem=  268435456 cpu:       0.0
 (Enter /home/matheus/.gaussian/g09/l202.exe)
 ---------------------------------------------------------------------------------------------------
                            Z-MATRIX (ANGSTROMS AND DEGREES)
   CD    Cent   Atom    N1       Length/X        N2       Alpha/Y        N3        Beta/Z          J
 ---------------------------------------------------------------------------------------------------
      1      1  O        0   0.000000          0.000000          0.725000
      2      2  O        0   0.000000          0.000000         -0.725000
      3      3  H        0  -0.314221          0.863315          1.023510
      4      4  H        0   0.000000          0.918721         -1.023510
      5      5  Kr       0   0.000000          3.100000          0.000000
 ---------------------------------------------------------------------------------------------------
                         Z-Matrix orientation:                         
 ---------------------------------------------------------------------
 Center     Atomic      Atomic             Coordinates (Angstroms)
 Number     Number       Type             X           Y           Z
 ---------------------------------------------------------------------
      1          8           0        0.000000    0.000000    0.725000
      2          8           0        0.000000    0.000000   -0.725000
      3          1           0       -0.314221    0.863315    1.023510
      4          1           0        0.000000    0.918721   -1.023510
      5         36           0        0.000000    3.100000    0.000000
 ---------------------------------------------------------------------
                    Distance matrix (angstroms):
                    1          2          3          4          5
     1  O    0.000000
     2  O    1.450000   0.000000
     3  H    0.966000   1.975180   0.000000
     4  H    1.975180   0.966000   2.071738   0.000000
     5  Kr   3.183650   3.183650   2.479732   2.409472   0.000000
 Stoichiometry    H2KrO2
 Framework group  C1[X(H2KrO2)]
 Deg. of freedom     9
 Full point group                 C1      NOp   1
 RotChk:  IX=0 Diff= 8.66D-05
 Largest Abelian subgroup         C1      NOp   1
 Largest concise Abelian subgroup C1      NOp   1
                         Standard orientation:                         
 ---------------------------------------------------------------------
 Center     Atomic      Atomic             Coordinates (Angstroms)
 Number     Number       Type             X           Y           Z
 ---------------------------------------------------------------------
      1          8           0       -2.100057   -0.723019   -0.035588
      2          8           0       -2.099209    0.726291    0.009118
      3          1           0       -1.238038   -1.031674    0.272328
      4          1           0       -1.180320    1.024022    0.021568
      5         36           0        1.000347   -0.000515   -0.002282
 ---------------------------------------------------------------------
 Rotational constants (GHZ):     26.5653126      2.2332827      2.0616461
 Leave Link  202 at Wed Dec 18 20:36:49 2019, MaxMem=  268435456 cpu:       0.0
 (Enter /home/matheus/.gaussian/g09/l301.exe)
 Standard basis: Aug-CC-pVTZ (5D, 7F)
 Ernie: Thresh=  0.10000D-02 Tol=  0.10000D-05 Strict=F.
 Ernie:  38 primitive shells out of 205 were deleted.
 There are   197 symmetry adapted basis functions of A   symmetry.
 Integral buffers will be    131072 words long.
 Raffenetti 1 integral format.
 Two-electron integral symmetry is turned on.
   197 basis functions,   415 primitive gaussians,   229 cartesian basis functions
    27 alpha electrons       27 beta electrons
       nuclear repulsion energy       147.9936454092 Hartrees.
 IExCor=    0 DFT=F Ex=HF Corr=None ExCW=0 ScaHFX=  1.000000
 ScaDFX=  1.000000  1.000000  1.000000  1.000000 ScalE2=  1.000000  1.000000
 IRadAn=      5 IRanWt=     -1 IRanGd=            0 ICorTp=0
 NAtoms=    5 NActive=    5 NUniq=    5 SFac= 1.00D+00 NAtFMM=   60 NAOKFM=F Big=F
 Leave Link  301 at Wed Dec 18 20:36:49 2019, MaxMem=  268435456 cpu:       0.0
 (Enter /home/matheus/.gaussian/g09/l302.exe)
 NPDir=0 NMtPBC=     1 NCelOv=     1 NCel=       1 NClECP=     1 NCelD=      1
         NCelK=      1 NCelE2=     1 NClLst=     1 CellRange=     0.0.
 One-electron integrals computed using PRISM.
 NBasis=   197 RedAO= T  NBF=   197
 NBsUse=   197 1.00D-06 NBFU=   197
 Leave Link  302 at Wed Dec 18 20:36:49 2019, MaxMem=  268435456 cpu:       0.2
 (Enter /home/matheus/.gaussian/g09/l303.exe)
 DipDrv:  MaxL=1.
 Leave Link  303 at Wed Dec 18 20:36:49 2019, MaxMem=  268435456 cpu:       0.1
 (Enter /home/matheus/.gaussian/g09/l401.exe)
 Initial guess read from the read-write file.
 B after Tr=     0.000000    0.000000    0.000000
         Rot=    1.000000    0.000000    0.000000    0.000000 Ang=   0.00 deg.
 Guess basis will be translated and rotated to current coordinates.
 Initial guess orbital symmetries:
       Occupied  (A) (A) (A) (A) (A) (A) (A) (A) (A) (A) (A) (A)
                 (A) (A) (A) (A) (A) (A) (A) (A) (A) (A) (A) (A)
                 (A) (A) (A)
       Virtual   (A) (A) (A) (A) (A) (A) (A) (A) (A) (A) (A) (A)
                 (A) (A) (A) (A) (A) (A) (A) (A) (A) (A) (A) (A)
                 (A) (A) (A) (A) (A) (A) (A) (A) (A) (A) (A) (A)
                 (A) (A) (A) (A) (A) (A) (A) (A) (A) (A) (A) (A)
                 (A) (A) (A) (A) (A) (A) (A) (A) (A) (A) (A) (A)
                 (A) (A) (A) (A) (A) (A) (A) (A) (A) (A) (A) (A)
                 (A) (A) (A) (A) (A) (A) (A) (A) (A) (A) (A) (A)
                 (A) (A) (A) (A) (A) (A) (A) (A) (A) (A) (A) (A)
                 (A) (A) (A) (A) (A) (A) (A) (A) (A) (A) (A) (A)
                 (A) (A) (A) (A) (A) (A) (A) (A) (A) (A) (A) (A)
                 (A) (A) (A) (A) (A) (A) (A) (A) (A) (A) (A) (A)
                 (A) (A) (A) (A) (A) (A) (A) (A) (A) (A) (A) (A)
                 (A) (A) (A) (A) (A) (A) (A) (A) (A) (A) (A) (A)
                 (A) (A) (A) (A) (A) (A) (A) (A) (A) (A) (A) (A)
                 (A) (A)
 The electronic state of the initial guess is 1-A.
 Generating alternative initial guess.
 Harris functional with IExCor=  205 diagonalized for initial guess.
 ExpMin= 2.53D-02 ExpMax= 1.17D+07 ExpMxC= 1.33D+04 IAcc=3 IRadAn=         5 AccDes= 0.00D+00
 HarFok:  IExCor=  205 AccDes= 0.00D+00 IRadAn=         5 IDoV= 1
 ScaDFX=  1.000000  1.000000  1.000000  1.000000
 FoFCou: FMM=F IPFlag=           0 FMFlag=      100000 FMFlg1=           0
         NFxFlg=           0 DoJE=T BraDBF=F KetDBF=T FulRan=T
         Omega=  0.000000  0.000000  1.000000  0.000000  0.000000 ICntrl=     500 IOpCl=  0
         NMat0=    1 NMatS0=    1 NMatT0=    0 NMatD0=    1 NMtDS0=    0 NMtDT0=    0
         I1Cent=           4 NGrid=           0.
 Petite list used in FoFCou.
 Harris En= -2901.92657549002    
 Leave Link  401 at Wed Dec 18 20:36:49 2019, MaxMem=  268435456 cpu:       1.3
 (Enter /home/matheus/.gaussian/g09/l502.exe)
 Closed shell SCF:
 Requested convergence on RMS density matrix=1.00D-08 within 128 cycles.
 Requested convergence on MAX density matrix=1.00D-06.
 Requested convergence on             energy=1.00D-06.
 No special actions if energy rises.
 Using DIIS extrapolation, IDIIS=  1040.
 Integral symmetry usage will be decided dynamically.
 IEnd=      178489 IEndB=      178489 NGot=   268435456 MDV=   268326278
 LenX=   268326278 LenY=   268273396
 Fock matrices will be formed incrementally for  20 cycles.

 Cycle   1  Pass 0  IDiag  1:
 FoFCou: FMM=F IPFlag=           0 FMFlag=      100000 FMFlg1=           0
         NFxFlg=           0 DoJE=F BraDBF=F KetDBF=F FulRan=T
         Omega=  0.000000  0.000000  1.000000  0.000000  0.000000 ICntrl=       0 IOpCl=  0
         NMat0=    1 NMatS0=    1 NMatT0=    0 NMatD0=    1 NMtDS0=    0 NMtDT0=    0
         I1Cent=           0 NGrid=           0.
 Symmetry not used in FoFCou.
 E= -2902.87293828556    
 DIIS: error= 8.32D-04 at cycle   1 NSaved=   1.
 NSaved= 1 IEnMin= 1 EnMin= -2902.87293828556     IErMin= 1 ErrMin= 8.32D-04
 ErrMax= 8.32D-04 EMaxC= 1.00D-01 BMatC= 9.72D-05 BMatP= 9.72D-05
 IDIUse=3 WtCom= 9.92D-01 WtEn= 8.32D-03
 Coeff-Com:  0.100D+01
 Coeff-En:   0.100D+01
 Coeff:      0.100D+01
 Gap=     0.496 Goal=   None    Shift=    0.000
 RMSDP=7.36D-05 MaxDP=2.69D-03              OVMax= 3.23D-03

 Cycle   2  Pass 0  IDiag  1:
 RMSU=  5.21D-05    CP:  1.00D+00
 E= -2902.87305033697     Delta-E=       -0.000112051414 Rises=F Damp=F
 DIIS: error= 1.31D-04 at cycle   2 NSaved=   2.
 NSaved= 2 IEnMin= 2 EnMin= -2902.87305033697     IErMin= 2 ErrMin= 1.31D-04
 ErrMax= 1.31D-04 EMaxC= 1.00D-01 BMatC= 3.17D-06 BMatP= 9.72D-05
 IDIUse=3 WtCom= 9.99D-01 WtEn= 1.31D-03
 Coeff-Com: -0.789D-01 0.108D+01
 Coeff-En:   0.000D+00 0.100D+01
 Coeff:     -0.788D-01 0.108D+01
 Gap=     0.494 Goal=   None    Shift=    0.000
 RMSDP=1.35D-05 MaxDP=4.86D-04 DE=-1.12D-04 OVMax= 7.79D-04

 Cycle   3  Pass 0  IDiag  1:
 RMSU=  6.48D-06    CP:  1.00D+00  1.14D+00
 E= -2902.87305480776     Delta-E=       -0.000004470792 Rises=F Damp=F
 DIIS: error= 4.72D-05 at cycle   3 NSaved=   3.
 NSaved= 3 IEnMin= 3 EnMin= -2902.87305480776     IErMin= 3 ErrMin= 4.72D-05
 ErrMax= 4.72D-05 EMaxC= 1.00D-01 BMatC= 4.47D-07 BMatP= 3.17D-06
 IDIUse=1 WtCom= 1.00D+00 WtEn= 0.00D+00
 Coeff-Com: -0.419D-01 0.255D+00 0.786D+00
 Coeff:     -0.419D-01 0.255D+00 0.786D+00
 Gap=     0.495 Goal=   None    Shift=    0.000
 RMSDP=3.00D-06 MaxDP=6.42D-05 DE=-4.47D-06 OVMax= 1.72D-04

 Initial convergence to 1.0D-05 achieved.  Increase integral accuracy.
 Cycle   4  Pass 1  IDiag  1:
 E= -2902.87305522571     Delta-E=       -0.000000417943 Rises=F Damp=F
 DIIS: error= 1.36D-05 at cycle   1 NSaved=   1.
 NSaved= 1 IEnMin= 1 EnMin= -2902.87305522571     IErMin= 1 ErrMin= 1.36D-05
 ErrMax= 1.36D-05 EMaxC= 1.00D-01 BMatC= 2.56D-08 BMatP= 2.56D-08
 IDIUse=1 WtCom= 1.00D+00 WtEn= 0.00D+00
 Coeff-Com:  0.100D+01
 Coeff:      0.100D+01
 Gap=     0.494 Goal=   None    Shift=    0.000
 RMSDP=3.00D-06 MaxDP=6.42D-05 DE=-4.18D-07 OVMax= 6.92D-05

 Cycle   5  Pass 1  IDiag  1:
 RMSU=  7.59D-07    CP:  1.00D+00
 E= -2902.87305526937     Delta-E=       -0.000000043660 Rises=F Damp=F
 DIIS: error= 4.68D-06 at cycle   2 NSaved=   2.
 NSaved= 2 IEnMin= 2 EnMin= -2902.87305526937     IErMin= 2 ErrMin= 4.68D-06
 ErrMax= 4.68D-06 EMaxC= 1.00D-01 BMatC= 6.74D-09 BMatP= 2.56D-08
 IDIUse=1 WtCom= 1.00D+00 WtEn= 0.00D+00
 Coeff-Com:  0.210D+00 0.790D+00
 Coeff:      0.210D+00 0.790D+00
 Gap=     0.495 Goal=   None    Shift=    0.000
 RMSDP=3.34D-07 MaxDP=8.65D-06 DE=-4.37D-08 OVMax= 2.66D-05

 Cycle   6  Pass 1  IDiag  1:
 RMSU=  1.93D-07    CP:  1.00D+00  1.18D+00
 E= -2902.87305527793     Delta-E=       -0.000000008562 Rises=F Damp=F
 DIIS: error= 2.67D-06 at cycle   3 NSaved=   3.
 NSaved= 3 IEnMin= 3 EnMin= -2902.87305527793     IErMin= 3 ErrMin= 2.67D-06
 ErrMax= 2.67D-06 EMaxC= 1.00D-01 BMatC= 1.29D-09 BMatP= 6.74D-09
 IDIUse=1 WtCom= 1.00D+00 WtEn= 0.00D+00
 Coeff-Com: -0.254D+00-0.497D-01 0.130D+01
 Coeff:     -0.254D+00-0.497D-01 0.130D+01
 Gap=     0.495 Goal=   None    Shift=    0.000
 RMSDP=3.42D-07 MaxDP=1.01D-05 DE=-8.56D-09 OVMax= 2.47D-05

 Cycle   7  Pass 1  IDiag  1:
 RMSU=  1.05D-07    CP:  1.00D+00  1.46D+00  1.27D+00
 E= -2902.87305528133     Delta-E=       -0.000000003407 Rises=F Damp=F
 DIIS: error= 6.09D-07 at cycle   4 NSaved=   4.
 NSaved= 4 IEnMin= 4 EnMin= -2902.87305528133     IErMin= 4 ErrMin= 6.09D-07
 ErrMax= 6.09D-07 EMaxC= 1.00D-01 BMatC= 1.15D-10 BMatP= 1.29D-09
 IDIUse=1 WtCom= 1.00D+00 WtEn= 0.00D+00
 Coeff-Com: -0.834D-01-0.542D-01 0.377D+00 0.761D+00
 Coeff:     -0.834D-01-0.542D-01 0.377D+00 0.761D+00
 Gap=     0.495 Goal=   None    Shift=    0.000
 RMSDP=5.75D-08 MaxDP=2.09D-06 DE=-3.41D-09 OVMax= 4.18D-06

 Cycle   8  Pass 1  IDiag  1:
 RMSU=  2.70D-08    CP:  1.00D+00  1.47D+00  1.30D+00  1.27D+00
 E= -2902.87305528148     Delta-E=       -0.000000000150 Rises=F Damp=F
 DIIS: error= 3.14D-07 at cycle   5 NSaved=   5.
 NSaved= 5 IEnMin= 5 EnMin= -2902.87305528148     IErMin= 5 ErrMin= 3.14D-07
 ErrMax= 3.14D-07 EMaxC= 1.00D-01 BMatC= 1.73D-11 BMatP= 1.15D-10
 IDIUse=1 WtCom= 1.00D+00 WtEn= 0.00D+00
 Coeff-Com:  0.670D-01 0.170D-01-0.341D+00-0.415D-01 0.130D+01
 Coeff:      0.670D-01 0.170D-01-0.341D+00-0.415D-01 0.130D+01
 Gap=     0.495 Goal=   None    Shift=    0.000
 RMSDP=5.26D-08 MaxDP=1.22D-06 DE=-1.50D-10 OVMax= 4.11D-06

 Cycle   9  Pass 1  IDiag  1:
 RMSU=  9.99D-09    CP:  1.00D+00  1.47D+00  1.31D+00  1.60D+00  1.34D+00
 E= -2902.87305528155     Delta-E=       -0.000000000068 Rises=F Damp=F
 DIIS: error= 9.20D-08 at cycle   6 NSaved=   6.
 NSaved= 6 IEnMin= 6 EnMin= -2902.87305528155     IErMin= 6 ErrMin= 9.20D-08
 ErrMax= 9.20D-08 EMaxC= 1.00D-01 BMatC= 1.11D-12 BMatP= 1.73D-11
 IDIUse=1 WtCom= 1.00D+00 WtEn= 0.00D+00
 Coeff-Com: -0.178D-01-0.145D-02 0.891D-01-0.310D-01-0.413D+00 0.137D+01
 Coeff:     -0.178D-01-0.145D-02 0.891D-01-0.310D-01-0.413D+00 0.137D+01
 Gap=     0.495 Goal=   None    Shift=    0.000
 RMSDP=1.18D-08 MaxDP=2.26D-07 DE=-6.82D-11 OVMax= 1.36D-06

 Cycle  10  Pass 1  IDiag  1:
 RMSU=  3.17D-09    CP:  1.00D+00  1.47D+00  1.31D+00  1.63D+00  1.41D+00
                    CP:  1.58D+00
 E= -2902.87305528155     Delta-E=        0.000000000004 Rises=F Damp=F
 DIIS: error= 4.31D-08 at cycle   7 NSaved=   7.
 NSaved= 7 IEnMin= 6 EnMin= -2902.87305528155     IErMin= 7 ErrMin= 4.31D-08
 ErrMax= 4.31D-08 EMaxC= 1.00D-01 BMatC= 2.00D-13 BMatP= 1.11D-12
 IDIUse=1 WtCom= 1.00D+00 WtEn= 0.00D+00
 Coeff-Com: -0.100D-01-0.209D-02 0.512D-01 0.604D-02-0.192D+00-0.756D-01
 Coeff-Com:  0.122D+01
 Coeff:     -0.100D-01-0.209D-02 0.512D-01 0.604D-02-0.192D+00-0.756D-01
 Coeff:      0.122D+01
 Gap=     0.495 Goal=   None    Shift=    0.000
 RMSDP=5.30D-09 MaxDP=1.07D-07 DE= 3.64D-12 OVMax= 7.33D-07

 SCF Done:  E(RHF) =  -2902.87305528     A.U. after   10 cycles
             Convg  =    0.5302D-08             -V/T =  2.0001
 KE= 2.902647375650D+03 PE=-7.235556445300D+03 EE= 1.282042368960D+03
 Leave Link  502 at Wed Dec 18 20:37:29 2019, MaxMem=  268435456 cpu:      79.7
 (Enter /home/matheus/.gaussian/g09/l801.exe)
 Windowed orbitals will be sorted by symmetry type.
 ExpMin= 2.53D-02 ExpMax= 1.17D+07 ExpMxC= 1.33D+04 IAcc=3 IRadAn=         5 AccDes= 0.00D+00
 HarFok:  IExCor=  205 AccDes= 0.00D+00 IRadAn=         5 IDoV=-2
 ScaDFX=  1.000000  1.000000  1.000000  1.000000
 DSYEVD returned Info=          93 IAlg= 4 N=    46 NDim=    46 NE2=     4547561 trying DSYEV.
 Largest valence mixing into a core orbital is  1.46D-04
 Largest core mixing into a valence orbital is  2.63D-05
 Range of M.O.s used for correlation:    12   197
 NBasis=   197 NAE=    27 NBE=    27 NFC=    11 NFV=     0
 NROrb=    186 NOA=    16 NOB=    16 NVA=   170 NVB=   170

 **** Warning!!: The largest alpha MO coefficient is  0.17460362D+02

 Leave Link  801 at Wed Dec 18 20:37:29 2019, MaxMem=  268435456 cpu:       0.3
 (Enter /home/matheus/.gaussian/g09/l804.exe)
 Closed-shell transformation, MDV=   268435456 ITran=4 ISComp=1.
 Semi-Direct transformation.
 ModeAB=           2 MOrb=            16 LenV=     267324478
 LASXX=     48528660 LTotXX=    48528660 LenRXX=    48528660
 LTotAB=    49298776 MaxLAS=    78372960 LenRXY=    78372960
 NonZer=    97057320 LenScr=   146313216 LnRSAI=           0
 LnScr1=           0 LExtra=           0 Total=    273214836
 MaxDsk=          -1 SrtSym=           F ITran=            4
 DoSDTr:  NPSUse=  2
 JobTyp=0 Pass  1:  I=   1 to  16.
 (rs|ai) integrals will be sorted in core.
 Complete sort for first half transformation.
 First half transformation complete.
 Begin second half transformation for I=  10.
 Begin second half transformation for I=  10.
 Complete sort for second half transformation.
 Second half transformation complete.
 SymMOI:  orbitals are not symmetric.
 Spin components of T(2) and E(2):
     alpha-alpha T2 =       0.2612477312D-01 E2=     -0.1002380152D+00
     alpha-beta  T2 =       0.1423537898D+00 E2=     -0.5574309013D+00
     beta-beta   T2 =       0.2612477312D-01 E2=     -0.1002380152D+00
 ANorm=    0.1092979111D+01
 E2 =    -0.7579069317D+00 EUMP2 =    -0.29036309622133D+04
 Leave Link  804 at Wed Dec 18 20:37:53 2019, MaxMem=  268435456 cpu:      47.6
 (Enter /home/matheus/.gaussian/g09/l913.exe)
 CIDS:  MDV=   268435456.
 Frozen-core window:  NFC=  11 NFV=   0.
 IFCWin=0 IBDFC=1 NFBD=     0     0 NFCmp=     0     0 NFFFC=     0     0
 Using DD3R+UMP44R for 1st iteration, S=T.
 Using DD4RQ for 2nd and later iterations.
 Would need an additional       431206676 words for in-memory AO integral storage.
 MP4(SDTQ)
 =========
 DD1Dir will call FoFDir   1 times, MxPair=       272
 NAB=   136 NAA=     0 NBB=     0 NumPrc=  2.
 Integrals replicated using symmetry in FoFDir.
 MinBra= 0 MaxBra= 3 Meth= 1.
 IRaf=       0 NMat= 272 IRICut=     340 DoRegI=T DoRafI=T ISym2E= 2 JSym2E=2.
 MP4(D)= -0.14919144D-01
 MP4(S)= -0.65420788D-02
 MP4(R+Q)=  0.15574060D-01
 T4(AAA)= -0.10603410D-02
 T4(AAB)= -0.14328013D-01
 Time for triples=     1304.52 seconds.
 MP4(T)=   -0.30776708D-01
 E3=       -0.11143965D-01        EUMP3=      -0.29036421062D+04
 E4(DQ)=    0.65491635D-03        UMP4(DQ)=   -0.29036414513D+04
 E4(SDQ)=  -0.58871624D-02        UMP4(SDQ)=  -0.29036479933D+04
 E4(SDTQ)= -0.36663870D-01        UMP4(SDTQ)= -0.29036787700D+04
 VARIATIONAL ENERGIES WITH THE FIRST-ORDER WAVEFUNCTION:
 E(VAR1)=  -0.29035168262D+04     E(CISD,4)=  -0.29035160762D+04
 Largest amplitude= 4.67D-02
 Leave Link  913 at Wed Dec 18 20:49:39 2019, MaxMem=  268435456 cpu:    1403.1
 (Enter /home/matheus/.gaussian/g09/l108.exe)
 Variable Step   Value    
 -------- ---- -----------
     1       2    6.047124
 Leave Link  108 at Wed Dec 18 20:49:39 2019, MaxMem=  268435456 cpu:       0.0
 (Enter /home/matheus/.gaussian/g09/l202.exe)
 ---------------------------------------------------------------------------------------------------
                            Z-MATRIX (ANGSTROMS AND DEGREES)
   CD    Cent   Atom    N1       Length/X        N2       Alpha/Y        N3        Beta/Z          J
 ---------------------------------------------------------------------------------------------------
      1      1  O        0   0.000000          0.000000          0.725000
      2      2  O        0   0.000000          0.000000         -0.725000
      3      3  H        0  -0.314221          0.863315          1.023510
      4      4  H        0   0.000000          0.918721         -1.023510
      5      5  Kr       0   0.000000          3.200000          0.000000
 ---------------------------------------------------------------------------------------------------
                         Z-Matrix orientation:                         
 ---------------------------------------------------------------------
 Center     Atomic      Atomic             Coordinates (Angstroms)
 Number     Number       Type             X           Y           Z
 ---------------------------------------------------------------------
      1          8           0        0.000000    0.000000    0.725000
      2          8           0        0.000000    0.000000   -0.725000
      3          1           0       -0.314221    0.863315    1.023510
      4          1           0        0.000000    0.918721   -1.023510
      5         36           0        0.000000    3.200000    0.000000
 ---------------------------------------------------------------------
                    Distance matrix (angstroms):
                    1          2          3          4          5
     1  O    0.000000
     2  O    1.450000   0.000000
     3  H    0.966000   1.975180   0.000000
     4  H    1.975180   0.966000   2.071738   0.000000
     5  Kr   3.281101   3.281101   2.570293   2.500362   0.000000
 Stoichiometry    H2KrO2
 Framework group  C1[X(H2KrO2)]
 Deg. of freedom     9
 Full point group                 C1      NOp   1
 RotChk:  IX=0 Diff= 8.40D-05
 Largest Abelian subgroup         C1      NOp   1
 Largest concise Abelian subgroup C1      NOp   1
                         Standard orientation:                         
 ---------------------------------------------------------------------
 Center     Atomic      Atomic             Coordinates (Angstroms)
 Number     Number       Type             X           Y           Z
 ---------------------------------------------------------------------
      1          8           0       -2.166694   -0.723063   -0.035732
      2          8           0       -2.165905    0.726247    0.008974
      3          1           0       -1.304650   -1.031682    0.272148
      4          1           0       -1.247028    1.024017    0.021385
      5         36           0        1.033680   -0.000495   -0.002207
 ---------------------------------------------------------------------
 Rotational constants (GHZ):     26.5653553      2.0945411      1.9428433
 Leave Link  202 at Wed Dec 18 20:49:39 2019, MaxMem=  268435456 cpu:       0.0
 (Enter /home/matheus/.gaussian/g09/l301.exe)
 Standard basis: Aug-CC-pVTZ (5D, 7F)
 Ernie: Thresh=  0.10000D-02 Tol=  0.10000D-05 Strict=F.
 Ernie:  38 primitive shells out of 205 were deleted.
 There are   197 symmetry adapted basis functions of A   symmetry.
 Integral buffers will be    131072 words long.
 Raffenetti 1 integral format.
 Two-electron integral symmetry is turned on.
   197 basis functions,   415 primitive gaussians,   229 cartesian basis functions
    27 alpha electrons       27 beta electrons
       nuclear repulsion energy       144.5919639800 Hartrees.
 IExCor=    0 DFT=F Ex=HF Corr=None ExCW=0 ScaHFX=  1.000000
 ScaDFX=  1.000000  1.000000  1.000000  1.000000 ScalE2=  1.000000  1.000000
 IRadAn=      5 IRanWt=     -1 IRanGd=            0 ICorTp=0
 NAtoms=    5 NActive=    5 NUniq=    5 SFac= 1.00D+00 NAtFMM=   60 NAOKFM=F Big=F
 Leave Link  301 at Wed Dec 18 20:49:39 2019, MaxMem=  268435456 cpu:       0.0
 (Enter /home/matheus/.gaussian/g09/l302.exe)
 NPDir=0 NMtPBC=     1 NCelOv=     1 NCel=       1 NClECP=     1 NCelD=      1
         NCelK=      1 NCelE2=     1 NClLst=     1 CellRange=     0.0.
 One-electron integrals computed using PRISM.
 NBasis=   197 RedAO= T  NBF=   197
 NBsUse=   197 1.00D-06 NBFU=   197
 Leave Link  302 at Wed Dec 18 20:49:39 2019, MaxMem=  268435456 cpu:       0.2
 (Enter /home/matheus/.gaussian/g09/l303.exe)
 DipDrv:  MaxL=1.
 Leave Link  303 at Wed Dec 18 20:49:39 2019, MaxMem=  268435456 cpu:       0.1
 (Enter /home/matheus/.gaussian/g09/l401.exe)
 Initial guess read from the read-write file.
 B after Tr=     0.000000    0.000000    0.000000
         Rot=    1.000000    0.000000    0.000000    0.000000 Ang=   0.00 deg.
 Guess basis will be translated and rotated to current coordinates.
 Initial guess orbital symmetries:
       Occupied  (A) (A) (A) (A) (A) (A) (A) (A) (A) (A) (A) (A)
                 (A) (A) (A) (A) (A) (A) (A) (A) (A) (A) (A) (A)
                 (A) (A) (A)
       Virtual   (A) (A) (A) (A) (A) (A) (A) (A) (A) (A) (A) (A)
                 (A) (A) (A) (A) (A) (A) (A) (A) (A) (A) (A) (A)
                 (A) (A) (A) (A) (A) (A) (A) (A) (A) (A) (A) (A)
                 (A) (A) (A) (A) (A) (A) (A) (A) (A) (A) (A) (A)
                 (A) (A) (A) (A) (A) (A) (A) (A) (A) (A) (A) (A)
                 (A) (A) (A) (A) (A) (A) (A) (A) (A) (A) (A) (A)
                 (A) (A) (A) (A) (A) (A) (A) (A) (A) (A) (A) (A)
                 (A) (A) (A) (A) (A) (A) (A) (A) (A) (A) (A) (A)
                 (A) (A) (A) (A) (A) (A) (A) (A) (A) (A) (A) (A)
                 (A) (A) (A) (A) (A) (A) (A) (A) (A) (A) (A) (A)
                 (A) (A) (A) (A) (A) (A) (A) (A) (A) (A) (A) (A)
                 (A) (A) (A) (A) (A) (A) (A) (A) (A) (A) (A) (A)
                 (A) (A) (A) (A) (A) (A) (A) (A) (A) (A) (A) (A)
                 (A) (A) (A) (A) (A) (A) (A) (A) (A) (A) (A) (A)
                 (A) (A)
 The electronic state of the initial guess is 1-A.
 Generating alternative initial guess.
 Harris functional with IExCor=  205 diagonalized for initial guess.
 ExpMin= 2.53D-02 ExpMax= 1.17D+07 ExpMxC= 1.33D+04 IAcc=3 IRadAn=         5 AccDes= 0.00D+00
 HarFok:  IExCor=  205 AccDes= 0.00D+00 IRadAn=         5 IDoV= 1
 ScaDFX=  1.000000  1.000000  1.000000  1.000000
 FoFCou: FMM=F IPFlag=           0 FMFlag=      100000 FMFlg1=           0
         NFxFlg=           0 DoJE=T BraDBF=F KetDBF=T FulRan=T
         Omega=  0.000000  0.000000  1.000000  0.000000  0.000000 ICntrl=     500 IOpCl=  0
         NMat0=    1 NMatS0=    1 NMatT0=    0 NMatD0=    1 NMtDS0=    0 NMtDT0=    0
         I1Cent=           4 NGrid=           0.
 Petite list used in FoFCou.
 Harris En= -2901.92798520124    
 Leave Link  401 at Wed Dec 18 20:49:40 2019, MaxMem=  268435456 cpu:       1.3
 (Enter /home/matheus/.gaussian/g09/l502.exe)
 Closed shell SCF:
 Requested convergence on RMS density matrix=1.00D-08 within 128 cycles.
 Requested convergence on MAX density matrix=1.00D-06.
 Requested convergence on             energy=1.00D-06.
 No special actions if energy rises.
 Using DIIS extrapolation, IDIIS=  1040.
 Integral symmetry usage will be decided dynamically.
 IEnd=      178489 IEndB=      178489 NGot=   268435456 MDV=   268326278
 LenX=   268326278 LenY=   268273396
 Fock matrices will be formed incrementally for  20 cycles.

 Cycle   1  Pass 0  IDiag  1:
 FoFCou: FMM=F IPFlag=           0 FMFlag=      100000 FMFlg1=           0
         NFxFlg=           0 DoJE=F BraDBF=F KetDBF=F FulRan=T
         Omega=  0.000000  0.000000  1.000000  0.000000  0.000000 ICntrl=       0 IOpCl=  0
         NMat0=    1 NMatS0=    1 NMatT0=    0 NMatD0=    1 NMtDS0=    0 NMtDT0=    0
         I1Cent=           0 NGrid=           0.
 Symmetry not used in FoFCou.
 E= -2902.87541943638    
 DIIS: error= 7.58D-04 at cycle   1 NSaved=   1.
 NSaved= 1 IEnMin= 1 EnMin= -2902.87541943638     IErMin= 1 ErrMin= 7.58D-04
 ErrMax= 7.58D-04 EMaxC= 1.00D-01 BMatC= 7.26D-05 BMatP= 7.26D-05
 IDIUse=3 WtCom= 9.92D-01 WtEn= 7.58D-03
 Coeff-Com:  0.100D+01
 Coeff-En:   0.100D+01
 Coeff:      0.100D+01
 Gap=     0.497 Goal=   None    Shift=    0.000
 RMSDP=6.51D-05 MaxDP=2.05D-03              OVMax= 2.51D-03

 Cycle   2  Pass 0  IDiag  1:
 RMSU=  4.60D-05    CP:  1.00D+00
 E= -2902.87550406960     Delta-E=       -0.000084633220 Rises=F Damp=F
 DIIS: error= 1.21D-04 at cycle   2 NSaved=   2.
 NSaved= 2 IEnMin= 2 EnMin= -2902.87550406960     IErMin= 2 ErrMin= 1.21D-04
 ErrMax= 1.21D-04 EMaxC= 1.00D-01 BMatC= 2.15D-06 BMatP= 7.26D-05
 IDIUse=3 WtCom= 9.99D-01 WtEn= 1.21D-03
 Coeff-Com: -0.865D-01 0.109D+01
 Coeff-En:   0.000D+00 0.100D+01
 Coeff:     -0.863D-01 0.109D+01
 Gap=     0.495 Goal=   None    Shift=    0.000
 RMSDP=1.18D-05 MaxDP=4.09D-04 DE=-8.46D-05 OVMax= 5.81D-04

 Cycle   3  Pass 0  IDiag  1:
 RMSU=  5.52D-06    CP:  1.00D+00  1.14D+00
 E= -2902.87550734763     Delta-E=       -0.000003278024 Rises=F Damp=F
 DIIS: error= 4.12D-05 at cycle   3 NSaved=   3.
 NSaved= 3 IEnMin= 3 EnMin= -2902.87550734763     IErMin= 3 ErrMin= 4.12D-05
 ErrMax= 4.12D-05 EMaxC= 1.00D-01 BMatC= 2.62D-07 BMatP= 2.15D-06
 IDIUse=1 WtCom= 1.00D+00 WtEn= 0.00D+00
 Coeff-Com: -0.380D-01 0.233D+00 0.805D+00
 Coeff:     -0.380D-01 0.233D+00 0.805D+00
 Gap=     0.495 Goal=   None    Shift=    0.000
 RMSDP=2.52D-06 MaxDP=5.21D-05 DE=-3.28D-06 OVMax= 1.34D-04

 Initial convergence to 1.0D-05 achieved.  Increase integral accuracy.
 Cycle   4  Pass 1  IDiag  1:
 E= -2902.87550761488     Delta-E=       -0.000000267255 Rises=F Damp=F
 DIIS: error= 1.15D-05 at cycle   1 NSaved=   1.
 NSaved= 1 IEnMin= 1 EnMin= -2902.87550761488     IErMin= 1 ErrMin= 1.15D-05
 ErrMax= 1.15D-05 EMaxC= 1.00D-01 BMatC= 1.98D-08 BMatP= 1.98D-08
 IDIUse=1 WtCom= 1.00D+00 WtEn= 0.00D+00
 Coeff-Com:  0.100D+01
 Coeff:      0.100D+01
 Gap=     0.495 Goal=   None    Shift=    0.000
 RMSDP=2.52D-06 MaxDP=5.21D-05 DE=-2.67D-07 OVMax= 6.56D-05

 Cycle   5  Pass 1  IDiag  1:
 RMSU=  6.76D-07    CP:  1.00D+00
 E= -2902.87550764804     Delta-E=       -0.000000033162 Rises=F Damp=F
 DIIS: error= 4.44D-06 at cycle   2 NSaved=   2.
 NSaved= 2 IEnMin= 2 EnMin= -2902.87550764804     IErMin= 2 ErrMin= 4.44D-06
 ErrMax= 4.44D-06 EMaxC= 1.00D-01 BMatC= 5.46D-09 BMatP= 1.98D-08
 IDIUse=1 WtCom= 1.00D+00 WtEn= 0.00D+00
 Coeff-Com:  0.227D+00 0.773D+00
 Coeff:      0.227D+00 0.773D+00
 Gap=     0.495 Goal=   None    Shift=    0.000
 RMSDP=2.89D-07 MaxDP=7.78D-06 DE=-3.32D-08 OVMax= 2.41D-05

 Cycle   6  Pass 1  IDiag  1:
 RMSU=  1.71D-07    CP:  1.00D+00  1.16D+00
 E= -2902.87550765474     Delta-E=       -0.000000006694 Rises=F Damp=F
 DIIS: error= 2.33D-06 at cycle   3 NSaved=   3.
 NSaved= 3 IEnMin= 3 EnMin= -2902.87550765474     IErMin= 3 ErrMin= 2.33D-06
 ErrMax= 2.33D-06 EMaxC= 1.00D-01 BMatC= 1.01D-09 BMatP= 5.46D-09
 IDIUse=1 WtCom= 1.00D+00 WtEn= 0.00D+00
 Coeff-Com: -0.258D+00-0.651D-01 0.132D+01
 Coeff:     -0.258D+00-0.651D-01 0.132D+01
 Gap=     0.495 Goal=   None    Shift=    0.000
 RMSDP=3.04D-07 MaxDP=8.99D-06 DE=-6.69D-09 OVMax= 2.27D-05

 Cycle   7  Pass 1  IDiag  1:
 RMSU=  9.23D-08    CP:  1.00D+00  1.44D+00  1.29D+00
 E= -2902.87550765743     Delta-E=       -0.000000002688 Rises=F Damp=F
 DIIS: error= 5.28D-07 at cycle   4 NSaved=   4.
 NSaved= 4 IEnMin= 4 EnMin= -2902.87550765743     IErMin= 4 ErrMin= 5.28D-07
 ErrMax= 5.28D-07 EMaxC= 1.00D-01 BMatC= 9.71D-11 BMatP= 1.01D-09
 IDIUse=1 WtCom= 1.00D+00 WtEn= 0.00D+00
 Coeff-Com: -0.926D-01-0.623D-01 0.414D+00 0.741D+00
 Coeff:     -0.926D-01-0.623D-01 0.414D+00 0.741D+00
 Gap=     0.495 Goal=   None    Shift=    0.000
 RMSDP=5.07D-08 MaxDP=1.92D-06 DE=-2.69D-09 OVMax= 3.71D-06

 Cycle   8  Pass 1  IDiag  1:
 RMSU=  2.47D-08    CP:  1.00D+00  1.45D+00  1.32D+00  1.26D+00
 E= -2902.87550765754     Delta-E=       -0.000000000117 Rises=F Damp=F
 DIIS: error= 2.62D-07 at cycle   5 NSaved=   5.
 NSaved= 5 IEnMin= 5 EnMin= -2902.87550765754     IErMin= 5 ErrMin= 2.62D-07
 ErrMax= 2.62D-07 EMaxC= 1.00D-01 BMatC= 1.22D-11 BMatP= 9.71D-11
 IDIUse=1 WtCom= 1.00D+00 WtEn= 0.00D+00
 Coeff-Com:  0.713D-01 0.252D-01-0.357D+00-0.106D+00 0.137D+01
 Coeff:      0.713D-01 0.252D-01-0.357D+00-0.106D+00 0.137D+01
 Gap=     0.495 Goal=   None    Shift=    0.000
 RMSDP=4.67D-08 MaxDP=1.09D-06 DE=-1.17D-10 OVMax= 3.60D-06

 Cycle   9  Pass 1  IDiag  1:
 RMSU=  8.62D-09    CP:  1.00D+00  1.45D+00  1.32D+00  1.59D+00  1.38D+00
 E= -2902.87550765761     Delta-E=       -0.000000000071 Rises=F Damp=F
 DIIS: error= 7.59D-08 at cycle   6 NSaved=   6.
 NSaved= 6 IEnMin= 6 EnMin= -2902.87550765761     IErMin= 6 ErrMin= 7.59D-08
 ErrMax= 7.59D-08 EMaxC= 1.00D-01 BMatC= 7.22D-13 BMatP= 1.22D-11
 IDIUse=1 WtCom= 1.00D+00 WtEn= 0.00D+00
 Coeff-Com: -0.345D-01-0.909D-02 0.172D+00 0.148D-01-0.731D+00 0.159D+01
 Coeff:     -0.345D-01-0.909D-02 0.172D+00 0.148D-01-0.731D+00 0.159D+01
 Gap=     0.495 Goal=   None    Shift=    0.000
 RMSDP=1.09D-08 MaxDP=2.08D-07 DE=-7.09D-11 OVMax= 1.23D-06

 Cycle  10  Pass 1  IDiag  1:
 RMSU=  2.63D-09    CP:  1.00D+00  1.46D+00  1.33D+00  1.61D+00  1.44D+00
                    CP:  1.68D+00
 E= -2902.87550765758     Delta-E=        0.000000000031 Rises=F Damp=F
 DIIS: error= 2.93D-08 at cycle   7 NSaved=   7.
 NSaved= 7 IEnMin= 6 EnMin= -2902.87550765761     IErMin= 7 ErrMin= 2.93D-08
 ErrMax= 2.93D-08 EMaxC= 1.00D-01 BMatC= 8.76D-14 BMatP= 7.22D-13
 IDIUse=1 WtCom= 1.00D+00 WtEn= 0.00D+00
 Coeff-Com: -0.998D-03-0.492D-03 0.505D-02 0.539D-02-0.683D-02-0.280D+00
 Coeff-Com:  0.128D+01
 Coeff:     -0.998D-03-0.492D-03 0.505D-02 0.539D-02-0.683D-02-0.280D+00
 Coeff:      0.128D+01
 Gap=     0.495 Goal=   None    Shift=    0.000
 RMSDP=3.38D-09 MaxDP=7.37D-08 DE= 3.14D-11 OVMax= 4.91D-07

 SCF Done:  E(RHF) =  -2902.87550766     A.U. after   10 cycles
             Convg  =    0.3376D-08             -V/T =  2.0001
 KE= 2.902630535900D+03 PE=-7.228784936886D+03 EE= 1.278686929349D+03
 Leave Link  502 at Wed Dec 18 20:50:18 2019, MaxMem=  268435456 cpu:      76.9
 (Enter /home/matheus/.gaussian/g09/l801.exe)
 Windowed orbitals will be sorted by symmetry type.
 ExpMin= 2.53D-02 ExpMax= 1.17D+07 ExpMxC= 1.33D+04 IAcc=3 IRadAn=         5 AccDes= 0.00D+00
 HarFok:  IExCor=  205 AccDes= 0.00D+00 IRadAn=         5 IDoV=-2
 ScaDFX=  1.000000  1.000000  1.000000  1.000000
 DSYEVD returned Info=          93 IAlg= 4 N=    46 NDim=    46 NE2=     4547561 trying DSYEV.
 DSYEVD returned Info=          89 IAlg= 4 N=    59 NDim=    59 NE2=     4547561 trying DSYEV.
 Largest valence mixing into a core orbital is  1.46D-04
 Largest core mixing into a valence orbital is  2.64D-05
 Range of M.O.s used for correlation:    12   197
 NBasis=   197 NAE=    27 NBE=    27 NFC=    11 NFV=     0
 NROrb=    186 NOA=    16 NOB=    16 NVA=   170 NVB=   170

 **** Warning!!: The largest alpha MO coefficient is  0.17122510D+02

 Leave Link  801 at Wed Dec 18 20:50:18 2019, MaxMem=  268435456 cpu:       0.2
 (Enter /home/matheus/.gaussian/g09/l804.exe)
 Closed-shell transformation, MDV=   268435456 ITran=4 ISComp=1.
 Semi-Direct transformation.
 ModeAB=           2 MOrb=            16 LenV=     267325652
 LASXX=     48528660 LTotXX=    48528660 LenRXX=    48528660
 LTotAB=    49298776 MaxLAS=    78372960 LenRXY=    78372960
 NonZer=    97057320 LenScr=   146313216 LnRSAI=           0
 LnScr1=           0 LExtra=           0 Total=    273214836
 MaxDsk=          -1 SrtSym=           F ITran=            4
 DoSDTr:  NPSUse=  2
 JobTyp=0 Pass  1:  I=   1 to  16.
 (rs|ai) integrals will be sorted in core.
 Complete sort for first half transformation.
 First half transformation complete.
 Begin second half transformation for I=  10.
 Begin second half transformation for I=  10.
 Complete sort for second half transformation.
 Second half transformation complete.
 SymMOI:  orbitals are not symmetric.
 Spin components of T(2) and E(2):
     alpha-alpha T2 =       0.2604271918D-01 E2=     -0.9995772454D-01
     alpha-beta  T2 =       0.1422453649D+00 E2=     -0.5567796466D+00
     beta-beta   T2 =       0.2604271918D-01 E2=     -0.9995772454D-01
 ANorm=    0.1092854429D+01
 E2 =    -0.7566950957D+00 EUMP2 =    -0.29036322027533D+04
 Leave Link  804 at Wed Dec 18 20:50:41 2019, MaxMem=  268435456 cpu:      46.1
 (Enter /home/matheus/.gaussian/g09/l913.exe)
 CIDS:  MDV=   268435456.
 Frozen-core window:  NFC=  11 NFV=   0.
 IFCWin=0 IBDFC=1 NFBD=     0     0 NFCmp=     0     0 NFFFC=     0     0
 Using DD3R+UMP44R for 1st iteration, S=T.
 Using DD4RQ for 2nd and later iterations.
 Would need an additional       431206676 words for in-memory AO integral storage.
 MP4(SDTQ)
 =========
 DD1Dir will call FoFDir   1 times, MxPair=       272
 NAB=   136 NAA=     0 NBB=     0 NumPrc=  2.
 Integrals replicated using symmetry in FoFDir.
 MinBra= 0 MaxBra= 3 Meth= 1.
 IRaf=       0 NMat= 272 IRICut=     340 DoRegI=T DoRafI=T ISym2E= 2 JSym2E=2.
 MP4(D)= -0.14919430D-01
 MP4(S)= -0.65072407D-02
 MP4(R+Q)=  0.15489264D-01
 T4(AAA)= -0.10494217D-02
 T4(AAB)= -0.14256627D-01
 Time for triples=     1304.24 seconds.
 MP4(T)=   -0.30612098D-01
 E3=       -0.11293307D-01        EUMP3=      -0.29036434961D+04
 E4(DQ)=    0.56983421D-03        UMP4(DQ)=   -0.29036429262D+04
 E4(SDQ)=  -0.59374065D-02        UMP4(SDQ)=  -0.29036494335D+04
 E4(SDTQ)= -0.36549504D-01        UMP4(SDTQ)= -0.29036800456D+04
 VARIATIONAL ENERGIES WITH THE FIRST-ORDER WAVEFUNCTION:
 E(VAR1)=  -0.29035185359D+04     E(CISD,4)=  -0.29035178736D+04
 Largest amplitude= 4.98D-02
 Leave Link  913 at Wed Dec 18 21:02:26 2019, MaxMem=  268435456 cpu:    1396.6
 (Enter /home/matheus/.gaussian/g09/l108.exe)
 Variable Step   Value    
 -------- ---- -----------
     1       3    6.236096
 Leave Link  108 at Wed Dec 18 21:02:26 2019, MaxMem=  268435456 cpu:       0.0
 (Enter /home/matheus/.gaussian/g09/l202.exe)
 ---------------------------------------------------------------------------------------------------
                            Z-MATRIX (ANGSTROMS AND DEGREES)
   CD    Cent   Atom    N1       Length/X        N2       Alpha/Y        N3        Beta/Z          J
 ---------------------------------------------------------------------------------------------------
      1      1  O        0   0.000000          0.000000          0.725000
      2      2  O        0   0.000000          0.000000         -0.725000
      3      3  H        0  -0.314221          0.863315          1.023510
      4      4  H        0   0.000000          0.918721         -1.023510
      5      5  Kr       0   0.000000          3.300000          0.000000
 ---------------------------------------------------------------------------------------------------
                         Z-Matrix orientation:                         
 ---------------------------------------------------------------------
 Center     Atomic      Atomic             Coordinates (Angstroms)
 Number     Number       Type             X           Y           Z
 ---------------------------------------------------------------------
      1          8           0        0.000000    0.000000    0.725000
      2          8           0        0.000000    0.000000   -0.725000
      3          1           0       -0.314221    0.863315    1.023510
      4          1           0        0.000000    0.918721   -1.023510
      5         36           0        0.000000    3.300000    0.000000
 ---------------------------------------------------------------------
                    Distance matrix (angstroms):
                    1          2          3          4          5
     1  O    0.000000
     2  O    1.450000   0.000000
     3  H    0.966000   1.975180   0.000000
     4  H    1.975180   0.966000   2.071738   0.000000
     5  Kr   3.378702   3.378702   2.661530   2.591923   0.000000
 Stoichiometry    H2KrO2
 Framework group  C1[X(H2KrO2)]
 Deg. of freedom     9
 Full point group                 C1      NOp   1
 RotChk:  IX=0 Diff= 8.18D-05
 Largest Abelian subgroup         C1      NOp   1
 Largest concise Abelian subgroup C1      NOp   1
                         Standard orientation:                         
 ---------------------------------------------------------------------
 Center     Atomic      Atomic             Coordinates (Angstroms)
 Number     Number       Type             X           Y           Z
 ---------------------------------------------------------------------
      1          8           0       -2.233335   -0.723104   -0.035867
      2          8           0       -2.232599    0.726207    0.008840
      3          1           0       -1.371265   -1.031690    0.271975
      4          1           0       -1.313732    1.024011    0.021210
      5         36           0        1.067013   -0.000476   -0.002138
 ---------------------------------------------------------------------
 Rotational constants (GHZ):     26.5653962      1.9683126      1.8337606
 Leave Link  202 at Wed Dec 18 21:02:26 2019, MaxMem=  268435456 cpu:       0.0
 (Enter /home/matheus/.gaussian/g09/l301.exe)
 Standard basis: Aug-CC-pVTZ (5D, 7F)
 Ernie: Thresh=  0.10000D-02 Tol=  0.10000D-05 Strict=F.
 Ernie:  38 primitive shells out of 205 were deleted.
 There are   197 symmetry adapted basis functions of A   symmetry.
 Integral buffers will be    131072 words long.
 Raffenetti 1 integral format.
 Two-electron integral symmetry is turned on.
   197 basis functions,   415 primitive gaussians,   229 cartesian basis functions
    27 alpha electrons       27 beta electrons
       nuclear repulsion energy       141.3852136713 Hartrees.
 IExCor=    0 DFT=F Ex=HF Corr=None ExCW=0 ScaHFX=  1.000000
 ScaDFX=  1.000000  1.000000  1.000000  1.000000 ScalE2=  1.000000  1.000000
 IRadAn=      5 IRanWt=     -1 IRanGd=            0 ICorTp=0
 NAtoms=    5 NActive=    5 NUniq=    5 SFac= 1.00D+00 NAtFMM=   60 NAOKFM=F Big=F
 Leave Link  301 at Wed Dec 18 21:02:26 2019, MaxMem=  268435456 cpu:       0.1
 (Enter /home/matheus/.gaussian/g09/l302.exe)
 NPDir=0 NMtPBC=     1 NCelOv=     1 NCel=       1 NClECP=     1 NCelD=      1
         NCelK=      1 NCelE2=     1 NClLst=     1 CellRange=     0.0.
 One-electron integrals computed using PRISM.
 NBasis=   197 RedAO= T  NBF=   197
 NBsUse=   197 1.00D-06 NBFU=   197
 Leave Link  302 at Wed Dec 18 21:02:27 2019, MaxMem=  268435456 cpu:       0.2
 (Enter /home/matheus/.gaussian/g09/l303.exe)
 DipDrv:  MaxL=1.
 Leave Link  303 at Wed Dec 18 21:02:27 2019, MaxMem=  268435456 cpu:       0.0
 (Enter /home/matheus/.gaussian/g09/l401.exe)
 Initial guess read from the read-write file.
 B after Tr=     0.000000    0.000000    0.000000
         Rot=    1.000000    0.000000    0.000000    0.000000 Ang=   0.00 deg.
 Guess basis will be translated and rotated to current coordinates.
 Initial guess orbital symmetries:
       Occupied  (A) (A) (A) (A) (A) (A) (A) (A) (A) (A) (A) (A)
                 (A) (A) (A) (A) (A) (A) (A) (A) (A) (A) (A) (A)
                 (A) (A) (A)
       Virtual   (A) (A) (A) (A) (A) (A) (A) (A) (A) (A) (A) (A)
                 (A) (A) (A) (A) (A) (A) (A) (A) (A) (A) (A) (A)
                 (A) (A) (A) (A) (A) (A) (A) (A) (A) (A) (A) (A)
                 (A) (A) (A) (A) (A) (A) (A) (A) (A) (A) (A) (A)
                 (A) (A) (A) (A) (A) (A) (A) (A) (A) (A) (A) (A)
                 (A) (A) (A) (A) (A) (A) (A) (A) (A) (A) (A) (A)
                 (A) (A) (A) (A) (A) (A) (A) (A) (A) (A) (A) (A)
                 (A) (A) (A) (A) (A) (A) (A) (A) (A) (A) (A) (A)
                 (A) (A) (A) (A) (A) (A) (A) (A) (A) (A) (A) (A)
                 (A) (A) (A) (A) (A) (A) (A) (A) (A) (A) (A) (A)
                 (A) (A) (A) (A) (A) (A) (A) (A) (A) (A) (A) (A)
                 (A) (A) (A) (A) (A) (A) (A) (A) (A) (A) (A) (A)
                 (A) (A) (A) (A) (A) (A) (A) (A) (A) (A) (A) (A)
                 (A) (A) (A) (A) (A) (A) (A) (A) (A) (A) (A) (A)
                 (A) (A)
 The electronic state of the initial guess is 1-A.
 Generating alternative initial guess.
 Harris functional with IExCor=  205 diagonalized for initial guess.
 ExpMin= 2.53D-02 ExpMax= 1.17D+07 ExpMxC= 1.33D+04 IAcc=3 IRadAn=         5 AccDes= 0.00D+00
 HarFok:  IExCor=  205 AccDes= 0.00D+00 IRadAn=         5 IDoV= 1
 ScaDFX=  1.000000  1.000000  1.000000  1.000000
 FoFCou: FMM=F IPFlag=           0 FMFlag=      100000 FMFlg1=           0
         NFxFlg=           0 DoJE=T BraDBF=F KetDBF=T FulRan=T
         Omega=  0.000000  0.000000  1.000000  0.000000  0.000000 ICntrl=     500 IOpCl=  0
         NMat0=    1 NMatS0=    1 NMatT0=    0 NMatD0=    1 NMtDS0=    0 NMtDT0=    0
         I1Cent=           4 NGrid=           0.
 Petite list used in FoFCou.
 Harris En= -2901.92893810084    
 Leave Link  401 at Wed Dec 18 21:02:27 2019, MaxMem=  268435456 cpu:       1.3
 (Enter /home/matheus/.gaussian/g09/l502.exe)
 Closed shell SCF:
 Requested convergence on RMS density matrix=1.00D-08 within 128 cycles.
 Requested convergence on MAX density matrix=1.00D-06.
 Requested convergence on             energy=1.00D-06.
 No special actions if energy rises.
 Using DIIS extrapolation, IDIIS=  1040.
 Integral symmetry usage will be decided dynamically.
 IEnd=      178489 IEndB=      178489 NGot=   268435456 MDV=   268326278
 LenX=   268326278 LenY=   268273396
 Fock matrices will be formed incrementally for  20 cycles.

 Cycle   1  Pass 0  IDiag  1:
 FoFCou: FMM=F IPFlag=           0 FMFlag=      100000 FMFlg1=           0
         NFxFlg=           0 DoJE=F BraDBF=F KetDBF=F FulRan=T
         Omega=  0.000000  0.000000  1.000000  0.000000  0.000000 ICntrl=       0 IOpCl=  0
         NMat0=    1 NMatS0=    1 NMatT0=    0 NMatD0=    1 NMtDS0=    0 NMtDT0=    0
         I1Cent=           0 NGrid=           0.
 Symmetry not used in FoFCou.
 E= -2902.87717643838    
 DIIS: error= 6.69D-04 at cycle   1 NSaved=   1.
 NSaved= 1 IEnMin= 1 EnMin= -2902.87717643838     IErMin= 1 ErrMin= 6.69D-04
 ErrMax= 6.69D-04 EMaxC= 1.00D-01 BMatC= 5.46D-05 BMatP= 5.46D-05
 IDIUse=3 WtCom= 9.93D-01 WtEn= 6.69D-03
 Coeff-Com:  0.100D+01
 Coeff-En:   0.100D+01
 Coeff:      0.100D+01
 Gap=     0.497 Goal=   None    Shift=    0.000
 RMSDP=5.80D-05 MaxDP=1.56D-03              OVMax= 2.67D-03

 Cycle   2  Pass 0  IDiag  1:
 RMSU=  4.10D-05    CP:  1.00D+00
 E= -2902.87724071981     Delta-E=       -0.000064281432 Rises=F Damp=F
 DIIS: error= 1.09D-04 at cycle   2 NSaved=   2.
 NSaved= 2 IEnMin= 2 EnMin= -2902.87724071981     IErMin= 2 ErrMin= 1.09D-04
 ErrMax= 1.09D-04 EMaxC= 1.00D-01 BMatC= 1.49D-06 BMatP= 5.46D-05
 IDIUse=3 WtCom= 9.99D-01 WtEn= 1.09D-03
 Coeff-Com: -0.918D-01 0.109D+01
 Coeff-En:   0.000D+00 0.100D+01
 Coeff:     -0.917D-01 0.109D+01
 Gap=     0.496 Goal=   None    Shift=    0.000
 RMSDP=1.05D-05 MaxDP=3.38D-04 DE=-6.43D-05 OVMax= 6.02D-04

 Cycle   3  Pass 0  IDiag  1:
 RMSU=  4.90D-06    CP:  1.00D+00  1.14D+00
 E= -2902.87724315973     Delta-E=       -0.000002439922 Rises=F Damp=F
 DIIS: error= 3.05D-05 at cycle   3 NSaved=   3.
 NSaved= 3 IEnMin= 3 EnMin= -2902.87724315973     IErMin= 3 ErrMin= 3.05D-05
 ErrMax= 3.05D-05 EMaxC= 1.00D-01 BMatC= 1.53D-07 BMatP= 1.49D-06
 IDIUse=1 WtCom= 1.00D+00 WtEn= 0.00D+00
 Coeff-Com: -0.334D-01 0.201D+00 0.833D+00
 Coeff:     -0.334D-01 0.201D+00 0.833D+00
 Gap=     0.496 Goal=   None    Shift=    0.000
 RMSDP=2.16D-06 MaxDP=5.02D-05 DE=-2.44D-06 OVMax= 1.17D-04

 Initial convergence to 1.0D-05 achieved.  Increase integral accuracy.
 Cycle   4  Pass 1  IDiag  1:
 E= -2902.87724333523     Delta-E=       -0.000000175501 Rises=F Damp=F
 DIIS: error= 9.58D-06 at cycle   1 NSaved=   1.
 NSaved= 1 IEnMin= 1 EnMin= -2902.87724333523     IErMin= 1 ErrMin= 9.58D-06
 ErrMax= 9.58D-06 EMaxC= 1.00D-01 BMatC= 1.53D-08 BMatP= 1.53D-08
 IDIUse=1 WtCom= 1.00D+00 WtEn= 0.00D+00
 Coeff-Com:  0.100D+01
 Coeff:      0.100D+01
 Gap=     0.496 Goal=   None    Shift=    0.000
 RMSDP=2.16D-06 MaxDP=5.02D-05 DE=-1.76D-07 OVMax= 6.09D-05

 Cycle   5  Pass 1  IDiag  1:
 RMSU=  5.94D-07    CP:  1.00D+00
 E= -2902.87724336030     Delta-E=       -0.000000025064 Rises=F Damp=F
 DIIS: error= 4.37D-06 at cycle   2 NSaved=   2.
 NSaved= 2 IEnMin= 2 EnMin= -2902.87724336030     IErMin= 2 ErrMin= 4.37D-06
 ErrMax= 4.37D-06 EMaxC= 1.00D-01 BMatC= 4.41D-09 BMatP= 1.53D-08
 IDIUse=1 WtCom= 1.00D+00 WtEn= 0.00D+00
 Coeff-Com:  0.243D+00 0.757D+00
 Coeff:      0.243D+00 0.757D+00
 Gap=     0.496 Goal=   None    Shift=    0.000
 RMSDP=2.47D-07 MaxDP=6.96D-06 DE=-2.51D-08 OVMax= 2.17D-05

 Cycle   6  Pass 1  IDiag  1:
 RMSU=  1.51D-07    CP:  1.00D+00  1.15D+00
 E= -2902.87724336549     Delta-E=       -0.000000005189 Rises=F Damp=F
 DIIS: error= 1.95D-06 at cycle   3 NSaved=   3.
 NSaved= 3 IEnMin= 3 EnMin= -2902.87724336549     IErMin= 3 ErrMin= 1.95D-06
 ErrMax= 1.95D-06 EMaxC= 1.00D-01 BMatC= 7.88D-10 BMatP= 4.41D-09
 IDIUse=1 WtCom= 1.00D+00 WtEn= 0.00D+00
 Coeff-Com: -0.261D+00-0.712D-01 0.133D+01
 Coeff:     -0.261D+00-0.712D-01 0.133D+01
 Gap=     0.496 Goal=   None    Shift=    0.000
 RMSDP=2.66D-07 MaxDP=7.96D-06 DE=-5.19D-09 OVMax= 2.14D-05

 Cycle   7  Pass 1  IDiag  1:
 RMSU=  8.06D-08    CP:  1.00D+00  1.42D+00  1.30D+00
 E= -2902.87724336762     Delta-E=       -0.000000002129 Rises=F Damp=F
 DIIS: error= 5.07D-07 at cycle   4 NSaved=   4.
 NSaved= 4 IEnMin= 4 EnMin= -2902.87724336762     IErMin= 4 ErrMin= 5.07D-07
 ErrMax= 5.07D-07 EMaxC= 1.00D-01 BMatC= 8.07D-11 BMatP= 7.88D-10
 IDIUse=1 WtCom= 1.00D+00 WtEn= 0.00D+00
 Coeff-Com: -0.997D-01-0.690D-01 0.437D+00 0.732D+00
 Coeff:     -0.997D-01-0.690D-01 0.437D+00 0.732D+00
 Gap=     0.496 Goal=   None    Shift=    0.000
 RMSDP=4.56D-08 MaxDP=1.78D-06 DE=-2.13D-09 OVMax= 3.35D-06

 Cycle   8  Pass 1  IDiag  1:
 RMSU=  2.28D-08    CP:  1.00D+00  1.44D+00  1.34D+00  1.25D+00
 E= -2902.87724336771     Delta-E=       -0.000000000098 Rises=F Damp=F
 DIIS: error= 2.20D-07 at cycle   5 NSaved=   5.
 NSaved= 5 IEnMin= 5 EnMin= -2902.87724336771     IErMin= 5 ErrMin= 2.20D-07
[...]
      3      3  H        0  -0.314221          0.863315          1.023510
      4      4  H        0   0.000000          0.918721         -1.023510
      5      5  Kr       0   0.000000          5.000000          0.000000
 ---------------------------------------------------------------------------------------------------
                         Z-Matrix orientation:                         
 ---------------------------------------------------------------------
 Center     Atomic      Atomic             Coordinates (Angstroms)
 Number     Number       Type             X           Y           Z
 ---------------------------------------------------------------------
      1          8           0        0.000000    0.000000    0.725000
      2          8           0        0.000000    0.000000   -0.725000
      3          1           0       -0.314221    0.863315    1.023510
      4          1           0        0.000000    0.918721   -1.023510
      5         36           0        0.000000    5.000000    0.000000
 ---------------------------------------------------------------------
                    Distance matrix (angstroms):
                    1          2          3          4          5
     1  O    0.000000
     2  O    1.450000   0.000000
     3  H    0.966000   1.975180   0.000000
     4  H    1.975180   0.966000   2.071738   0.000000
     5  Kr   5.052289   5.052289   4.272993   4.207661   0.000000
 Stoichiometry    H2KrO2
 Framework group  C1[X(H2KrO2)]
 Deg. of freedom     9
 Full point group                 C1      NOp   1
 RotChk:  IX=0 Diff= 5.58D-05
 Largest Abelian subgroup         C1      NOp   1
 Largest concise Abelian subgroup C1      NOp   1
                         Standard orientation:                         
 ---------------------------------------------------------------------
 Center     Atomic      Atomic             Coordinates (Angstroms)
 Number     Number       Type             X           Y           Z
 ---------------------------------------------------------------------
      1          8           0       -3.366455   -0.723500   -0.037290
      2          8           0       -3.366156    0.725811    0.007420
      3          1           0       -2.504059   -1.031807    0.269915
      4          1           0       -2.447377    1.023913    0.019113
      5         36           0        1.633676   -0.000294   -0.001391
 ---------------------------------------------------------------------
 Rotational constants (GHZ):     26.5658885      0.8510107      0.8248429
 Leave Link  202 at Thu Dec 19 00:59:30 2019, MaxMem=  268435456 cpu:       0.0
 (Enter /home/matheus/.gaussian/g09/l301.exe)
 Standard basis: Aug-CC-pVTZ (5D, 7F)
 Ernie: Thresh=  0.10000D-02 Tol=  0.10000D-05 Strict=F.
 Ernie:  38 primitive shells out of 205 were deleted.
 There are   197 symmetry adapted basis functions of A   symmetry.
 Integral buffers will be    131072 words long.
 Raffenetti 1 integral format.
 Two-electron integral symmetry is turned on.
   197 basis functions,   415 primitive gaussians,   229 cartesian basis functions
    27 alpha electrons       27 beta electrons
       nuclear repulsion energy       105.9798270356 Hartrees.
 IExCor=    0 DFT=F Ex=HF Corr=None ExCW=0 ScaHFX=  1.000000
 ScaDFX=  1.000000  1.000000  1.000000  1.000000 ScalE2=  1.000000  1.000000
 IRadAn=      5 IRanWt=     -1 IRanGd=            0 ICorTp=0
 NAtoms=    5 NActive=    5 NUniq=    5 SFac= 1.00D+00 NAtFMM=   60 NAOKFM=F Big=F
 Leave Link  301 at Thu Dec 19 00:59:30 2019, MaxMem=  268435456 cpu:       0.0
 (Enter /home/matheus/.gaussian/g09/l302.exe)
 NPDir=0 NMtPBC=     1 NCelOv=     1 NCel=       1 NClECP=     1 NCelD=      1
         NCelK=      1 NCelE2=     1 NClLst=     1 CellRange=     0.0.
 One-electron integrals computed using PRISM.
 NBasis=   197 RedAO= T  NBF=   197
 NBsUse=   197 1.00D-06 NBFU=   197
 Leave Link  302 at Thu Dec 19 00:59:30 2019, MaxMem=  268435456 cpu:       0.2
 (Enter /home/matheus/.gaussian/g09/l303.exe)
 DipDrv:  MaxL=1.
 Leave Link  303 at Thu Dec 19 00:59:30 2019, MaxMem=  268435456 cpu:       0.0
 (Enter /home/matheus/.gaussian/g09/l401.exe)
 Initial guess read from the read-write file.
 B after Tr=     0.000000    0.000000    0.000000
         Rot=    1.000000    0.000000    0.000000    0.000000 Ang=   0.00 deg.
 Guess basis will be translated and rotated to current coordinates.
 Initial guess orbital symmetries:
       Occupied  (A) (A) (A) (A) (A) (A) (A) (A) (A) (A) (A) (A)
                 (A) (A) (A) (A) (A) (A) (A) (A) (A) (A) (A) (A)
                 (A) (A) (A)
       Virtual   (A) (A) (A) (A) (A) (A) (A) (A) (A) (A) (A) (A)
                 (A) (A) (A) (A) (A) (A) (A) (A) (A) (A) (A) (A)
                 (A) (A) (A) (A) (A) (A) (A) (A) (A) (A) (A) (A)
                 (A) (A) (A) (A) (A) (A) (A) (A) (A) (A) (A) (A)
                 (A) (A) (A) (A) (A) (A) (A) (A) (A) (A) (A) (A)
                 (A) (A) (A) (A) (A) (A) (A) (A) (A) (A) (A) (A)
                 (A) (A) (A) (A) (A) (A) (A) (A) (A) (A) (A) (A)
                 (A) (A) (A) (A) (A) (A) (A) (A) (A) (A) (A) (A)
                 (A) (A) (A) (A) (A) (A) (A) (A) (A) (A) (A) (A)
                 (A) (A) (A) (A) (A) (A) (A) (A) (A) (A) (A) (A)
                 (A) (A) (A) (A) (A) (A) (A) (A) (A) (A) (A) (A)
                 (A) (A) (A) (A) (A) (A) (A) (A) (A) (A) (A) (A)
                 (A) (A) (A) (A) (A) (A) (A) (A) (A) (A) (A) (A)
                 (A) (A) (A) (A) (A) (A) (A) (A) (A) (A) (A) (A)
                 (A) (A)
 The electronic state of the initial guess is 1-A.
 Generating alternative initial guess.
 Harris functional with IExCor=  205 diagonalized for initial guess.
 ExpMin= 2.53D-02 ExpMax= 1.17D+07 ExpMxC= 1.33D+04 IAcc=3 IRadAn=         5 AccDes= 0.00D+00
 HarFok:  IExCor=  205 AccDes= 0.00D+00 IRadAn=         5 IDoV= 1
 ScaDFX=  1.000000  1.000000  1.000000  1.000000
 FoFCou: FMM=F IPFlag=           0 FMFlag=      100000 FMFlg1=           0
         NFxFlg=           0 DoJE=T BraDBF=F KetDBF=T FulRan=T
         Omega=  0.000000  0.000000  1.000000  0.000000  0.000000 ICntrl=     500 IOpCl=  0
         NMat0=    1 NMatS0=    1 NMatT0=    0 NMatD0=    1 NMtDS0=    0 NMtDT0=    0
         I1Cent=           4 NGrid=           0.
 Petite list used in FoFCou.
 Harris En= -2901.93078208659    
 Leave Link  401 at Thu Dec 19 00:59:31 2019, MaxMem=  268435456 cpu:       1.1
 (Enter /home/matheus/.gaussian/g09/l502.exe)
 Closed shell SCF:
 Requested convergence on RMS density matrix=1.00D-08 within 128 cycles.
 Requested convergence on MAX density matrix=1.00D-06.
 Requested convergence on             energy=1.00D-06.
 No special actions if energy rises.
 Using DIIS extrapolation, IDIIS=  1040.
 Integral symmetry usage will be decided dynamically.
 IEnd=      178489 IEndB=      178489 NGot=   268435456 MDV=   268326278
 LenX=   268326278 LenY=   268273396
 Fock matrices will be formed incrementally for  20 cycles.

 Cycle   1  Pass 0  IDiag  1:
 FoFCou: FMM=F IPFlag=           0 FMFlag=      100000 FMFlg1=           0
         NFxFlg=           0 DoJE=F BraDBF=F KetDBF=F FulRan=T
         Omega=  0.000000  0.000000  1.000000  0.000000  0.000000 ICntrl=       0 IOpCl=  0
         NMat0=    1 NMatS0=    1 NMatT0=    0 NMatD0=    1 NMtDS0=    0 NMtDT0=    0
         I1Cent=           0 NGrid=           0.
 Symmetry not used in FoFCou.
 E= -2902.88088740254    
 DIIS: error= 4.81D-05 at cycle   1 NSaved=   1.
 NSaved= 1 IEnMin= 1 EnMin= -2902.88088740254     IErMin= 1 ErrMin= 4.81D-05
 ErrMax= 4.81D-05 EMaxC= 1.00D-01 BMatC= 7.68D-07 BMatP= 7.68D-07
 IDIUse=1 WtCom= 1.00D+00 WtEn= 0.00D+00
 Coeff-Com:  0.100D+01
 Coeff:      0.100D+01
 Gap=     0.496 Goal=   None    Shift=    0.000
 RMSDP=1.31D-05 MaxDP=3.53D-04              OVMax= 4.36D-04

 Cycle   2  Pass 0  IDiag  1:
 RMSU=  9.23D-06    CP:  1.00D+00
 E= -2902.88088827069     Delta-E=       -0.000000868148 Rises=F Damp=F
 DIIS: error= 1.60D-05 at cycle   2 NSaved=   2.
 NSaved= 2 IEnMin= 2 EnMin= -2902.88088827069     IErMin= 2 ErrMin= 1.60D-05
 ErrMax= 1.60D-05 EMaxC= 1.00D-01 BMatC= 2.75D-08 BMatP= 7.68D-07
 IDIUse=1 WtCom= 1.00D+00 WtEn= 0.00D+00
 Coeff-Com:  0.543D-02 0.995D+00
 Coeff:      0.543D-02 0.995D+00
 Gap=     0.496 Goal=   None    Shift=    0.000
 RMSDP=1.52D-06 MaxDP=4.06D-05 DE=-8.68D-07 OVMax= 7.50D-05

 Initial convergence to 1.0D-05 achieved.  Increase integral accuracy.
 Cycle   3  Pass 1  IDiag  1:
 E= -2902.88088830272     Delta-E=       -0.000000032031 Rises=F Damp=F
 DIIS: error= 3.71D-06 at cycle   1 NSaved=   1.
 NSaved= 1 IEnMin= 1 EnMin= -2902.88088830272     IErMin= 1 ErrMin= 3.71D-06
 ErrMax= 3.71D-06 EMaxC= 1.00D-01 BMatC= 1.76D-09 BMatP= 1.76D-09
 IDIUse=1 WtCom= 1.00D+00 WtEn= 0.00D+00
 Coeff-Com:  0.100D+01
 Coeff:      0.100D+01
 Gap=     0.496 Goal=   None    Shift=    0.000
 RMSDP=1.52D-06 MaxDP=4.06D-05 DE=-3.20D-08 OVMax= 3.23D-05

 Cycle   4  Pass 1  IDiag  1:
 RMSU=  2.22D-07    CP:  1.00D+00
 E= -2902.88088830543     Delta-E=       -0.000000002709 Rises=F Damp=F
 DIIS: error= 1.84D-06 at cycle   2 NSaved=   2.
 NSaved= 2 IEnMin= 2 EnMin= -2902.88088830543     IErMin= 2 ErrMin= 1.84D-06
 ErrMax= 1.84D-06 EMaxC= 1.00D-01 BMatC= 1.91D-10 BMatP= 1.76D-09
 IDIUse=1 WtCom= 1.00D+00 WtEn= 0.00D+00
 Coeff-Com:  0.143D+00 0.857D+00
 Coeff:      0.143D+00 0.857D+00
 Gap=     0.496 Goal=   None    Shift=    0.000
 RMSDP=8.47D-08 MaxDP=3.89D-06 DE=-2.71D-09 OVMax= 7.00D-06

 Cycle   5  Pass 1  IDiag  1:
 RMSU=  4.55D-08    CP:  1.00D+00  1.18D+00
 E= -2902.88088830574     Delta-E=       -0.000000000306 Rises=F Damp=F
 DIIS: error= 3.98D-07 at cycle   3 NSaved=   3.
 NSaved= 3 IEnMin= 3 EnMin= -2902.88088830574     IErMin= 3 ErrMin= 3.98D-07
 ErrMax= 3.98D-07 EMaxC= 1.00D-01 BMatC= 2.17D-11 BMatP= 1.91D-10
 IDIUse=1 WtCom= 1.00D+00 WtEn= 0.00D+00
 Coeff-Com: -0.111D+00-0.151D+00 0.126D+01
 Coeff:     -0.111D+00-0.151D+00 0.126D+01
 Gap=     0.496 Goal=   None    Shift=    0.000
 RMSDP=5.46D-08 MaxDP=2.98D-06 DE=-3.06D-10 OVMax= 5.92D-06

 Cycle   6  Pass 1  IDiag  1:
 RMSU=  1.23D-08    CP:  1.00D+00  1.32D+00  1.34D+00
 E= -2902.88088830581     Delta-E=       -0.000000000072 Rises=F Damp=F
 DIIS: error= 1.26D-07 at cycle   4 NSaved=   4.
 NSaved= 4 IEnMin= 4 EnMin= -2902.88088830581     IErMin= 4 ErrMin= 1.26D-07
 ErrMax= 1.26D-07 EMaxC= 1.00D-01 BMatC= 2.98D-12 BMatP= 2.17D-11
 IDIUse=1 WtCom= 1.00D+00 WtEn= 0.00D+00
 Coeff-Com: -0.479D-01-0.943D-01 0.445D+00 0.698D+00
 Coeff:     -0.479D-01-0.943D-01 0.445D+00 0.698D+00
 Gap=     0.496 Goal=   None    Shift=    0.000
 RMSDP=7.07D-09 MaxDP=3.15D-07 DE=-7.23D-11 OVMax= 6.69D-07

 SCF Done:  E(RHF) =  -2902.88088831     A.U. after    6 cycles
             Convg  =    0.7070D-08             -V/T =  2.0001
 KE= 2.902591929095D+03 PE=-7.152159786552D+03 EE= 1.240707142116D+03
 Leave Link  502 at Thu Dec 19 00:59:47 2019, MaxMem=  268435456 cpu:      32.6
 (Enter /home/matheus/.gaussian/g09/l801.exe)
 Windowed orbitals will be sorted by symmetry type.
 ExpMin= 2.53D-02 ExpMax= 1.17D+07 ExpMxC= 1.33D+04 IAcc=3 IRadAn=         5 AccDes= 0.00D+00
 HarFok:  IExCor=  205 AccDes= 0.00D+00 IRadAn=         5 IDoV=-2
 ScaDFX=  1.000000  1.000000  1.000000  1.000000
 DSYEVD returned Info=          93 IAlg= 4 N=    46 NDim=    46 NE2=     4547561 trying DSYEV.
 DSYEVD returned Info=          89 IAlg= 4 N=    59 NDim=    59 NE2=     4547561 trying DSYEV.
 Largest valence mixing into a core orbital is  1.48D-04
 Largest core mixing into a valence orbital is  2.65D-05
 Range of M.O.s used for correlation:    12   197
 NBasis=   197 NAE=    27 NBE=    27 NFC=    11 NFV=     0
 NROrb=    186 NOA=    16 NOB=    16 NVA=   170 NVB=   170

 **** Warning!!: The largest alpha MO coefficient is  0.17159939D+02

 Leave Link  801 at Thu Dec 19 00:59:47 2019, MaxMem=  268435456 cpu:       0.2
 (Enter /home/matheus/.gaussian/g09/l804.exe)
 Closed-shell transformation, MDV=   268435456 ITran=4 ISComp=1.
 Semi-Direct transformation.
 ModeAB=           4 MOrb=            16 LenV=     267347626
 LASXX=     48528660 LTotXX=    48528660 LenRXX=    97827436
 LTotAB=    49298776 MaxLAS=    72926880 LenRXY=           0
 NonZer=   146356096 LenScr=   220395520 LnRSAI=    72926880
 LnScr1=   110164992 LExtra=           0 Total=    501314828
 MaxDsk=          -1 SrtSym=           T ITran=            4
 DoSDTr:  NPSUse=  2
 JobTyp=0 Pass  1:  I=   1 to  16.
 (rs|ai) integrals will be sorted in core.
 Complete sort for first half transformation.
 First half transformation complete.
 Begin second half transformation for I=  10.
 Complete sort for second half transformation.
 Second half transformation complete.
 SymMOI:  orbitals are not symmetric.
 Spin components of T(2) and E(2):
     alpha-alpha T2 =       0.2558546076D-01 E2=     -0.9849812050D-01
     alpha-beta  T2 =       0.1414517688D+00 E2=     -0.5530393944D+00
     beta-beta   T2 =       0.2558546076D-01 E2=     -0.9849812050D-01
 ANorm=    0.1092072658D+01
 E2 =    -0.7500356354D+00 EUMP2 =    -0.29036309239412D+04
 Leave Link  804 at Thu Dec 19 01:00:07 2019, MaxMem=  268435456 cpu:      39.9
 (Enter /home/matheus/.gaussian/g09/l913.exe)
 CIDS:  MDV=   268435456.
 Frozen-core window:  NFC=  11 NFV=   0.
 IFCWin=0 IBDFC=1 NFBD=     0     0 NFCmp=     0     0 NFFFC=     0     0
 Using DD3R+UMP44R for 1st iteration, S=T.
 Using DD4RQ for 2nd and later iterations.
 Would need an additional       431206676 words for in-memory AO integral storage.
 MP4(SDTQ)
 =========
 DD1Dir will call FoFDir   1 times, MxPair=       272
 NAB=   136 NAA=     0 NBB=     0 NumPrc=  2.
 Integrals replicated using symmetry in FoFDir.
 MinBra= 0 MaxBra= 3 Meth= 1.
 IRaf=       0 NMat= 272 IRICut=     340 DoRegI=T DoRafI=T ISym2E= 2 JSym2E=2.
 MP4(D)= -0.14908592D-01
 MP4(S)= -0.63017597D-02
 MP4(R+Q)=  0.15050099D-01
 T4(AAA)= -0.99177758D-03
 T4(AAB)= -0.13867684D-01
 Time for triples=     1264.27 seconds.
 MP4(T)=   -0.29718923D-01
 E3=       -0.11937935D-01        EUMP3=      -0.29036428619D+04
 E4(DQ)=    0.14150727D-03        UMP4(DQ)=   -0.29036427204D+04
 E4(SDQ)=  -0.61602524D-02        UMP4(SDQ)=  -0.29036490221D+04
 E4(SDTQ)= -0.35879175D-01        UMP4(SDTQ)= -0.29036787411D+04
 VARIATIONAL ENERGIES WITH THE FIRST-ORDER WAVEFUNCTION:
 E(VAR1)=  -0.29035197941D+04     E(CISD,4)=  -0.29035195983D+04
 Largest amplitude= 3.06D-02
 Leave Link  913 at Thu Dec 19 01:11:21 2019, MaxMem=  268435456 cpu:    1344.4
 (Enter /home/matheus/.gaussian/g09/l108.exe)
 Scan completed.

 Summary of the potential surface scan:
   N      R1          SCF          MP2          MP3         MP4DQ       MP4SDQ       MP4SDTQ  
 ----  ---------  -----------  -----------  -----------  -----------  -----------  -----------
    1     3.0000  -2902.86962  -2903.62894  -2903.63990  -2903.63914  -2903.64572  -2903.67669
    2     3.1000  -2902.87306  -2903.63096  -2903.64211  -2903.64145  -2903.64799  -2903.67877
    3     3.2000  -2902.87551  -2903.63220  -2903.64350  -2903.64293  -2903.64943  -2903.68005
    4     3.3000  -2902.87724  -2903.63290  -2903.64431  -2903.64381  -2903.65029  -2903.68076
    5     3.4000  -2902.87846  -2903.63322  -2903.64473  -2903.64429  -2903.65074  -2903.68109
    6     3.5000  -2902.87931  -2903.63330  -2903.64488  -2903.64449  -2903.65092  -2903.68117
    7     3.6000  -2902.87989  -2903.63322  -2903.64486  -2903.64452  -2903.65093  -2903.68109
    8     3.7000  -2902.88028  -2903.63305  -2903.64474  -2903.64444  -2903.65083  -2903.68092
    9     3.8000  -2902.88054  -2903.63283  -2903.64457  -2903.64429  -2903.65067  -2903.68069
   10     3.9000  -2902.88071  -2903.63260  -2903.64437  -2903.64412  -2903.65048  -2903.68045
   11     4.0000  -2902.88082  -2903.63236  -2903.64416  -2903.64393  -2903.65029  -2903.68021
   12     4.1000  -2902.88088  -2903.63214  -2903.64396  -2903.64376  -2903.65010  -2903.67998
   13     4.2000  -2902.88092  -2903.63194  -2903.64378  -2903.64359  -2903.64992  -2903.67977
   14     4.3000  -2902.88094  -2903.63175  -2903.64362  -2903.64343  -2903.64976  -2903.67959
   15     4.4000  -2902.88094  -2903.63159  -2903.64347  -2903.64329  -2903.64962  -2903.67942
   16     4.5000  -2902.88094  -2903.63144  -2903.64333  -2903.64317  -2903.64949  -2903.67927
   17     4.6000  -2902.88093  -2903.63131  -2903.64321  -2903.64306  -2903.64937  -2903.67913
   18     4.7000  -2902.88092  -2903.63119  -2903.64311  -2903.64296  -2903.64927  -2903.67902
   19     4.8000  -2902.88091  -2903.63109  -2903.64302  -2903.64287  -2903.64917  -2903.67891
   20     4.9000  -2902.88090  -2903.63100  -2903.64293  -2903.64279  -2903.64909  -2903.67882
   21     5.0000  -2902.88089  -2903.63092  -2903.64286  -2903.64272  -2903.64902  -2903.67874
 ----  ---------  -----------  -----------  -----------  -----------  -----------  -----------
  
 Leave Link  108 at Thu Dec 19 01:11:21 2019, MaxMem=  268435456 cpu:       0.0
 (Enter /home/matheus/.gaussian/g09/l9999.exe)
 1\1\GINC-REDGIANT\Scan\RMP4SDTQ-FC\Aug-CC-pVTZ\H2Kr1O2\ROOT\19-Dec-201
 9\1\\#p mp4/aug-cc-PVTz int=ultrafine Scan\\PTCC\\0,1\O,0,0.,0.,0.725\
 O,0,0.,0.,-0.725\H,0,-0.3142209495,0.8633149634,1.0235104166\H,0,0.,0.
 9187205947,-1.0235104166\Kr,0,0.,R1,0.\\R1=3.,s,20,0.1\\Version=EM64L-
 G09RevC.01\State=1-A\HF=-2902.869616,-2902.8730553,-2902.8755077,-2902
 .8772434,-2902.8784616,-2902.8793084,-2902.8798899,-2902.8802835,-2902
 .8805447,-2902.8807139,-2902.8808199,-2902.8808833,-2902.8809184,-2902
 .8809351,-2902.8809401,-2902.8809376,-2902.8809307,-2902.8809212,-2902
 .8809104,-2902.8808992,-2902.8808883\MP2=-2903.6289416,-2903.6309622,-
 2903.6322028,-2903.6328985,-2903.6332217,-2903.6332982,-2903.6332188,-
 2903.633048,-2903.6328303,-2903.6325951,-2903.6323612,-2903.6321393,-2
 903.6319351,-2903.6317505,-2903.6315854,-2903.6314388,-2903.6313088,-2
 903.6311939,-2903.6310925,-2903.6310029,-2903.6309239\MP3=-2903.639895
 4,-2903.6421062,-2903.6434961,-2903.6443097,-2903.6447269,-2903.644878
 9,-2903.6448611,-2903.6447411,-2903.6445655,-2903.6443657,-2903.644161
 5,-2903.6439647,-2903.6437818,-2903.6436153,-2903.6434658,-2903.643332
 4,-2903.643214,-2903.643109,-2903.6430162,-2903.6429342,-2903.6428619\
 MP4D=-2903.6548144,-2903.6570253,-2903.6584155,-2903.6592291,-2903.659
 6458,-2903.659797,-2903.6597783,-2903.6596572,-2903.6594807,-2903.6592
 8,-2903.659075,-2903.6588776,-2903.6586941,-2903.6585271,-2903.658377,
 -2903.6582432,-2903.6581242,-2903.6580188,-2903.6579255,-2903.6578432,
 -2903.6577705\MP4DQ=-2903.6391414,-2903.6414513,-2903.6429262,-2903.64
 38123,-2903.6442908,-2903.6444946,-2903.6445204,-2903.6444368,-2903.64
 42918,-2903.6441175,-2903.6439345,-2903.6437554,-2903.643587,-2903.643
 4325,-2903.6432929,-2903.6431676,-2903.6430558,-2903.6429562,-2903.642
 8679,-2903.6427896,-2903.6427204\MP4SDQ=-2903.6457243,-2903.6479933,-2
 903.6494335,-2903.6502896,-2903.6507422,-2903.6509236,-2903.6509298,-2
 903.6508293,-2903.6506696,-2903.6504825,-2903.6502885,-2903.6500998,-2
 903.6499233,-2903.6497618,-2903.6496161,-2903.6494857,-2903.6493695,-2
 903.6492662,-2903.6491747,-2903.6490937,-2903.6490221\MP4SDTQ=-2903.67
 66943,-2903.67877,-2903.6800456,-2903.6807612,-2903.6810936,-2903.6811
 722,-2903.6810905,-2903.6809151,-2903.6806916,-2903.6804504,-2903.6802
 106,-2903.6799833,-2903.6797741,-2903.679585,-2903.6794161,-2903.67926
 61,-2903.6791333,-2903.6790159,-2903.6789125,-2903.6788213,-2903.67874
 11\RMSD=8.048e-09,5.302e-09,3.376e-09,8.095e-09,9.258e-09,7.896e-09,6.
 682e-09,5.586e-09,6.891e-09,5.150e-09,4.163e-09,3.495e-09,2.937e-09,2.
 458e-09,2.070e-09,9.303e-09,7.130e-09,5.519e-09,9.926e-09,8.470e-09,7.
 070e-09\PG=C01 [X(H2Kr1O2)]\\@


 TOM, TOM, THE BURGLAR'S SON
 STOLE A MACHINE AND AWAY HE RUN
 THE JOB WAS NEAT, BUT TOM GOT BEAT
 BY THE TIME HE GOT HOME IT WAS OBSOLETE.
 Job cpu time:  0 days  9 hours 33 minutes 58.4 seconds.
 File lengths (MBytes):  RWF=   3950 Int=      0 D2E=      0 Chk=      4 Scr=      1
 Normal termination of Gaussian 09 at Thu Dec 19 01:11:21 2019.
