 Entering Gaussian System, Link 0=g09
 Input=/home/matheus/.ptcc/Inputs/H2O2-Kr_1.com
 Output=/home/matheus/.ptcc/Inputs/H2O2-Kr_1.log
 Initial command:
 /home/matheus/.gaussian/g09/l1.exe /home/matheus/.gaussian/g09/scratch/Gau-5575.inp -scrdir=/home/matheus/.gaussian/g09/scratch/
 Entering Link 1 = /home/matheus/.gaussian/g09/l1.exe PID=      5578.
  
 Copyright (c) 1988,1990,1992,1993,1995,1998,2003,2009,2011,
            Gaussian, Inc.  All Rights Reserved.
  
 This is part of the Gaussian(R) 09 program.  It is based on
 the Gaussian(R) 03 system (copyright 2003, Gaussian, Inc.),
 the Gaussian(R) 98 system (copyright 1998, Gaussian, Inc.),
 the Gaussian(R) 94 system (copyright 1995, Gaussian, Inc.),
 the Gaussian 92(TM) system (copyright 1992, Gaussian, Inc.),
 the Gaussian 90(TM) system (copyright 1990, Gaussian, Inc.),
 the Gaussian 88(TM) system (copyright 1988, Gaussian, Inc.),
 the Gaussian 86(TM) system (copyright 1986, Carnegie Mellon
 University), and the Gaussian 82(TM) system (copyright 1983,
 Carnegie Mellon University). Gaussian is a federally registered
 trademark of Gaussian, Inc.
  
 This software contains proprietary and confidential information,
 including trade secrets, belonging to Gaussian, Inc.
  
 This software is provided under written license and may be
 used, copied, transmitted, or stored only in accord with that
 written license.
  
 The following legend is applicable only to US Government
 contracts under FAR:
  
                    RESTRICTED RIGHTS LEGEND
  
 Use, reproduction and disclosure by the US Government is
 subject to restrictions as set forth in subparagraphs (a)
 and (c) of the Commercial Computer Software - Restricted
 Rights clause in FAR 52.227-19.
  
 Gaussian, Inc.
 340 Quinnipiac St., Bldg. 40, Wallingford CT 06492
  
  
 ---------------------------------------------------------------
 Warning -- This program may not be used in any manner that
 competes with the business of Gaussian, Inc. or will provide
 assistance to any competitor of Gaussian, Inc.  The licensee
 of this program is prohibited from giving any competitor of
 Gaussian, Inc. access to this program.  By using this program,
 the user acknowledges that Gaussian, Inc. is engaged in the
 business of creating and licensing software in the field of
 computational chemistry and represents and warrants to the
 licensee that it is not a competitor of Gaussian, Inc. and that
 it will not use this program in any manner prohibited above.
 ---------------------------------------------------------------
  

 Cite this work as:
 Gaussian 09, Revision C.01,
 M. J. Frisch, G. W. Trucks, H. B. Schlegel, G. E. Scuseria, 
 M. A. Robb, J. R. Cheeseman, G. Scalmani, V. Barone, B. Mennucci, 
 G. A. Petersson, H. Nakatsuji, M. Caricato, X. Li, H. P. Hratchian, 
 A. F. Izmaylov, J. Bloino, G. Zheng, J. L. Sonnenberg, M. Hada, 
 M. Ehara, K. Toyota, R. Fukuda, J. Hasegawa, M. Ishida, T. Nakajima, 
 Y. Honda, O. Kitao, H. Nakai, T. Vreven, J. A. Montgomery, Jr., 
 J. E. Peralta, F. Ogliaro, M. Bearpark, J. J. Heyd, E. Brothers, 
 K. N. Kudin, V. N. Staroverov, T. Keith, R. Kobayashi, J. Normand, 
 K. Raghavachari, A. Rendell, J. C. Burant, S. S. Iyengar, J. Tomasi, 
 M. Cossi, N. Rega, J. M. Millam, M. Klene, J. E. Knox, J. B. Cross, 
 V. Bakken, C. Adamo, J. Jaramillo, R. Gomperts, R. E. Stratmann, 
 O. Yazyev, A. J. Austin, R. Cammi, C. Pomelli, J. W. Ochterski, 
 R. L. Martin, K. Morokuma, V. G. Zakrzewski, G. A. Voth, 
 P. Salvador, J. J. Dannenberg, S. Dapprich, A. D. Daniels, 
 O. Farkas, J. B. Foresman, J. V. Ortiz, J. Cioslowski, 
 and D. J. Fox, Gaussian, Inc., Wallingford CT, 2010.
 
 ******************************************
 Gaussian 09:  EM64L-G09RevC.01 23-Sep-2011
                16-Nov-2019 
 ******************************************
 %mem=2GB
 %nproc=2
 Will use up to    2 processors via shared memory.
 -------------------------------------
 #p mp4/aug-cc-PVTz int=ultrafine Scan
 -------------------------------------
 1/38=1,60=1/1,8;
 2/12=2,17=6,18=5,29=3,40=1/2;
 3/5=16,6=1,7=10,11=9,16=1,25=1,30=1,75=-5/1,2,3;
 4//1;
 5/5=2,38=5/2;
 8/6=4,9=120000,10=1/1,4;
 9/5=5/13;
 6/7=2,8=2,9=2,10=2,18=1/1;
 1/60=1/8(1);
 99/9=1/99;
 2/29=3/2;
 3/5=16,6=1,7=10,11=9,16=1,25=1,30=1,75=-5/1,2,3;
 4/5=5,16=3/1;
 5/5=2,38=5/2;
 8/6=4,9=120000,10=1/1,4;
 9/5=5/13;
 1/60=1/8(-6);
 99/9=1/99;
 Leave Link    1 at Sat Nov 16 10:35:46 2019, MaxMem=  268435456 cpu:       0.0
 (Enter /home/matheus/.gaussian/g09/l101.exe)
 ----
 PTCC
 ----
 Charge =  0 Multiplicity = 1
 Symbolic Z-Matrix:
 O                     0.        0.        0.725 
 O                     0.        0.       -0.725 
 H                     0.15953   0.90476   1.02351 
 H                     0.        0.91872  -1.02351 
 Kr                    0.       R1        0. 
       Variables:
  R1                    3.     Scan 20    0.1    
 
 NAtoms=      5 NQM=        0 NQMF=       0 NMMI=      5 NMMIF=      0
                NMic=       0 NMicF=      0.
                    Isotopes and Nuclear Properties:
 (Nuclear quadrupole moments (NQMom) in fm**2, nuclear magnetic moments (NMagM)
  in nuclear magnetons)

  Atom         1           2           3           4           5
 IAtWgt=          16          16           1           1          84
 AtmWgt=  15.9949146  15.9949146   1.0078250   1.0078250  83.9115064
 NucSpn=           0           0           1           1           0
 AtZEff=   0.0000000   0.0000000   0.0000000   0.0000000   0.0000000
 NQMom=    0.0000000   0.0000000   0.0000000   0.0000000   0.0000000
 NMagM=    0.0000000   0.0000000   2.7928460   2.7928460   0.0000000
 Leave Link  101 at Sat Nov 16 10:35:46 2019, MaxMem=  268435456 cpu:       0.1
 (Enter /home/matheus/.gaussian/g09/l108.exe)
 Scan the potential surface.
 Variable   Value     No. Steps Step-Size
 -------- ----------- --------- ---------
     1       3.000000      20      0.1000
 A total of     21 points will be computed.
 Leave Link  108 at Sat Nov 16 10:35:46 2019, MaxMem=  268435456 cpu:       0.0
 (Enter /home/matheus/.gaussian/g09/l202.exe)
 ---------------------------------------------------------------------------------------------------
                            Z-MATRIX (ANGSTROMS AND DEGREES)
   CD    Cent   Atom    N1       Length/X        N2       Alpha/Y        N3        Beta/Z          J
 ---------------------------------------------------------------------------------------------------
      1      1  O        0   0.000000          0.000000          0.725000
      2      2  O        0   0.000000          0.000000         -0.725000
      3      3  H        0   0.159534          0.904763          1.023510
      4      4  H        0   0.000000          0.918721         -1.023510
      5      5  Kr       0   0.000000          3.000000          0.000000
 ---------------------------------------------------------------------------------------------------
                         Z-Matrix orientation:                         
 ---------------------------------------------------------------------
 Center     Atomic      Atomic             Coordinates (Angstroms)
 Number     Number       Type             X           Y           Z
 ---------------------------------------------------------------------
      1          8           0        0.000000    0.000000    0.725000
      2          8           0        0.000000    0.000000   -0.725000
      3          1           0        0.159534    0.904763    1.023510
      4          1           0        0.000000    0.918721   -1.023510
      5         36           0        0.000000    3.000000    0.000000
 ---------------------------------------------------------------------
                    Distance matrix (angstroms):
                    1          2          3          4          5
     1  O    0.000000
     2  O    1.450000   0.000000
     3  H    0.966000   1.975180   0.000000
     4  H    1.975180   0.966000   2.053275   0.000000
     5  Kr   3.086361   3.086361   2.337315   2.319331   0.000000
 Stoichiometry    H2KrO2
 Framework group  C1[X(H2KrO2)]
 Deg. of freedom     9
 Full point group                 C1      NOp   1
 Largest Abelian subgroup         C1      NOp   1
 Largest concise Abelian subgroup C1      NOp   1
                         Standard orientation:                         
 ---------------------------------------------------------------------
 Center     Atomic      Atomic             Coordinates (Angstroms)
 Number     Number       Type             X           Y           Z
 ---------------------------------------------------------------------
      1          8           0        2.033875   -0.724487   -0.017820
      2          8           0        2.033645    0.725337    0.004759
      3          1           0        1.129442   -1.025614    0.138637
      4          1           0        1.114878    1.023640    0.011023
      5         36           0       -0.966235   -0.000134   -0.001255
 ---------------------------------------------------------------------
 Rotational constants (GHZ):     26.6670558      2.3882151      2.1923671
 Leave Link  202 at Sat Nov 16 10:35:46 2019, MaxMem=  268435456 cpu:       0.0
 (Enter /home/matheus/.gaussian/g09/l301.exe)
 Standard basis: Aug-CC-pVTZ (5D, 7F)
 Ernie: Thresh=  0.10000D-02 Tol=  0.10000D-05 Strict=F.
 Ernie:  38 primitive shells out of 205 were deleted.
 There are   197 symmetry adapted basis functions of A   symmetry.
 Integral buffers will be    131072 words long.
 Raffenetti 1 integral format.
 Two-electron integral symmetry is turned on.
   197 basis functions,   415 primitive gaussians,   229 cartesian basis functions
    27 alpha electrons       27 beta electrons
       nuclear repulsion energy       151.7892858201 Hartrees.
 IExCor=    0 DFT=F Ex=HF Corr=None ExCW=0 ScaHFX=  1.000000
 ScaDFX=  1.000000  1.000000  1.000000  1.000000 ScalE2=  1.000000  1.000000
 IRadAn=      5 IRanWt=     -1 IRanGd=            0 ICorTp=0
 NAtoms=    5 NActive=    5 NUniq=    5 SFac= 1.00D+00 NAtFMM=   60 NAOKFM=F Big=F
 Leave Link  301 at Sat Nov 16 10:35:46 2019, MaxMem=  268435456 cpu:       0.1
 (Enter /home/matheus/.gaussian/g09/l302.exe)
 NPDir=0 NMtPBC=     1 NCelOv=     1 NCel=       1 NClECP=     1 NCelD=      1
         NCelK=      1 NCelE2=     1 NClLst=     1 CellRange=     0.0.
 One-electron integrals computed using PRISM.
 NBasis=   197 RedAO= T  NBF=   197
 NBsUse=   197 1.00D-06 NBFU=   197
 Leave Link  302 at Sat Nov 16 10:35:47 2019, MaxMem=  268435456 cpu:       0.2
 (Enter /home/matheus/.gaussian/g09/l303.exe)
 DipDrv:  MaxL=1.
 Leave Link  303 at Sat Nov 16 10:35:47 2019, MaxMem=  268435456 cpu:       0.1
 (Enter /home/matheus/.gaussian/g09/l401.exe)
 Harris functional with IExCor=  205 diagonalized for initial guess.
 ExpMin= 2.53D-02 ExpMax= 1.17D+07 ExpMxC= 1.33D+04 IAcc=3 IRadAn=         5 AccDes= 0.00D+00
 HarFok:  IExCor=  205 AccDes= 0.00D+00 IRadAn=         5 IDoV= 1
 ScaDFX=  1.000000  1.000000  1.000000  1.000000
 FoFCou: FMM=F IPFlag=           0 FMFlag=      100000 FMFlg1=           0
         NFxFlg=           0 DoJE=T BraDBF=F KetDBF=T FulRan=T
         Omega=  0.000000  0.000000  1.000000  0.000000  0.000000 ICntrl=     500 IOpCl=  0
         NMat0=    1 NMatS0=    1 NMatT0=    0 NMatD0=    1 NMtDS0=    0 NMtDT0=    0
         I1Cent=           4 NGrid=           0.
 Petite list used in FoFCou.
 Harris En= -2901.92365389567    
 Initial guess orbital symmetries:
       Occupied  (A) (A) (A) (A) (A) (A) (A) (A) (A) (A) (A) (A)
                 (A) (A) (A) (A) (A) (A) (A) (A) (A) (A) (A) (A)
                 (A) (A) (A)
       Virtual   (A) (A) (A) (A) (A) (A) (A) (A) (A) (A) (A) (A)
                 (A) (A) (A) (A) (A) (A) (A) (A) (A) (A) (A) (A)
                 (A) (A) (A) (A) (A) (A) (A) (A) (A) (A) (A) (A)
                 (A) (A) (A) (A) (A) (A) (A) (A) (A) (A) (A) (A)
                 (A) (A) (A) (A) (A) (A) (A) (A) (A) (A) (A) (A)
                 (A) (A) (A) (A) (A) (A) (A) (A) (A) (A) (A) (A)
                 (A) (A) (A) (A) (A) (A) (A) (A) (A) (A) (A) (A)
                 (A) (A) (A) (A) (A) (A) (A) (A) (A) (A) (A) (A)
                 (A) (A) (A) (A) (A) (A) (A) (A) (A) (A) (A) (A)
                 (A) (A) (A) (A) (A) (A) (A) (A) (A) (A) (A) (A)
                 (A) (A) (A) (A) (A) (A) (A) (A) (A) (A) (A) (A)
                 (A) (A) (A) (A) (A) (A) (A) (A) (A) (A) (A) (A)
                 (A) (A) (A) (A) (A) (A) (A) (A) (A) (A) (A) (A)
                 (A) (A) (A) (A) (A) (A) (A) (A) (A) (A) (A) (A)
                 (A) (A)
 The electronic state of the initial guess is 1-A.
 Leave Link  401 at Sat Nov 16 10:35:47 2019, MaxMem=  268435456 cpu:       1.1
 (Enter /home/matheus/.gaussian/g09/l502.exe)
 Closed shell SCF:
 Requested convergence on RMS density matrix=1.00D-08 within 128 cycles.
 Requested convergence on MAX density matrix=1.00D-06.
 Requested convergence on             energy=1.00D-06.
 No special actions if energy rises.
 Using DIIS extrapolation, IDIIS=  1040.
 Integral symmetry usage will be decided dynamically.
 IEnd=      178489 IEndB=      178489 NGot=   268435456 MDV=   268326278
 LenX=   268326278 LenY=   268273396
 Fock matrices will be formed incrementally for  20 cycles.

 Cycle   1  Pass 0  IDiag  1:
 FoFCou: FMM=F IPFlag=           0 FMFlag=      100000 FMFlg1=           0
         NFxFlg=           0 DoJE=F BraDBF=F KetDBF=F FulRan=T
         Omega=  0.000000  0.000000  1.000000  0.000000  0.000000 ICntrl=       0 IOpCl=  0
         NMat0=    1 NMatS0=    1 NMatT0=    0 NMatD0=    1 NMtDS0=    0 NMtDT0=    0
         I1Cent=           0 NGrid=           0.
 Symmetry not used in FoFCou.
 E= -2902.74418477113    
 DIIS: error= 6.46D-02 at cycle   1 NSaved=   1.
 NSaved= 1 IEnMin= 1 EnMin= -2902.74418477113     IErMin= 1 ErrMin= 6.46D-02
 ErrMax= 6.46D-02 EMaxC= 1.00D-01 BMatC= 7.07D-01 BMatP= 7.07D-01
 IDIUse=3 WtCom= 3.54D-01 WtEn= 6.46D-01
 Coeff-Com:  0.100D+01
 Coeff-En:   0.100D+01
 Coeff:      0.100D+01
 Gap=     0.680 Goal=   None    Shift=    0.000
 GapD=    0.680 DampG=2.000 DampE=0.500 DampFc=1.0000 IDamp=-1.
 RMSDP=2.35D-03 MaxDP=1.55D-01              OVMax= 5.82D-02

 Cycle   2  Pass 0  IDiag  1:
 RMSU=  1.64D-03    CP:  1.01D+00
 E= -2902.85152330515     Delta-E=       -0.107338534021 Rises=F Damp=F
 DIIS: error= 9.54D-03 at cycle   2 NSaved=   2.
 NSaved= 2 IEnMin= 2 EnMin= -2902.85152330515     IErMin= 2 ErrMin= 9.54D-03
 ErrMax= 9.54D-03 EMaxC= 1.00D-01 BMatC= 4.47D-02 BMatP= 7.07D-01
 IDIUse=3 WtCom= 9.05D-01 WtEn= 9.54D-02
 Coeff-Com:  0.158D+00 0.842D+00
 Coeff-En:   0.000D+00 0.100D+01
 Coeff:      0.143D+00 0.857D+00
 Gap=     0.512 Goal=   None    Shift=    0.000
 RMSDP=8.94D-04 MaxDP=4.46D-02 DE=-1.07D-01 OVMax= 2.51D-02

 Cycle   3  Pass 0  IDiag  1:
 RMSU=  4.90D-04    CP:  1.01D+00  7.67D-01
 E= -2902.86713711721     Delta-E=       -0.015613812061 Rises=F Damp=F
 DIIS: error= 3.05D-03 at cycle   3 NSaved=   3.
 NSaved= 3 IEnMin= 3 EnMin= -2902.86713711721     IErMin= 3 ErrMin= 3.05D-03
 ErrMax= 3.05D-03 EMaxC= 1.00D-01 BMatC= 2.71D-03 BMatP= 4.47D-02
 IDIUse=3 WtCom= 9.69D-01 WtEn= 3.05D-02
 Coeff-Com: -0.558D-02 0.176D+00 0.829D+00
 Coeff-En:   0.000D+00 0.000D+00 0.100D+01
 Coeff:     -0.541D-02 0.171D+00 0.835D+00
 Gap=     0.486 Goal=   None    Shift=    0.000
 RMSDP=1.40D-04 MaxDP=5.29D-03 DE=-1.56D-02 OVMax= 7.89D-03

 Cycle   4  Pass 0  IDiag  1:
 RMSU=  5.19D-05    CP:  1.01D+00  8.00D-01  8.72D-01
 E= -2902.86847652637     Delta-E=       -0.001339409156 Rises=F Damp=F
 DIIS: error= 6.77D-04 at cycle   4 NSaved=   4.
 NSaved= 4 IEnMin= 4 EnMin= -2902.86847652637     IErMin= 4 ErrMin= 6.77D-04
 ErrMax= 6.77D-04 EMaxC= 1.00D-01 BMatC= 5.71D-05 BMatP= 2.71D-03
 IDIUse=3 WtCom= 9.93D-01 WtEn= 6.77D-03
 Coeff-Com: -0.466D-02 0.137D-01 0.165D+00 0.826D+00
 Coeff-En:   0.000D+00 0.000D+00 0.000D+00 0.100D+01
 Coeff:     -0.463D-02 0.136D-01 0.164D+00 0.827D+00
 Gap=     0.491 Goal=   None    Shift=    0.000
 RMSDP=2.50D-05 MaxDP=7.05D-04 DE=-1.34D-03 OVMax= 1.79D-03

 Cycle   5  Pass 0  IDiag  1:
 RMSU=  1.41D-05    CP:  1.01D+00  8.02D-01  8.92D-01  9.38D-01
 E= -2902.86852215426     Delta-E=       -0.000045627897 Rises=F Damp=F
 DIIS: error= 1.74D-04 at cycle   5 NSaved=   5.
 NSaved= 5 IEnMin= 5 EnMin= -2902.86852215426     IErMin= 5 ErrMin= 1.74D-04
 ErrMax= 1.74D-04 EMaxC= 1.00D-01 BMatC= 3.58D-06 BMatP= 5.71D-05
 IDIUse=3 WtCom= 9.98D-01 WtEn= 1.74D-03
 Coeff-Com:  0.848D-03-0.152D-01-0.717D-01 0.178D-02 0.108D+01
 Coeff-En:   0.000D+00 0.000D+00 0.000D+00 0.000D+00 0.100D+01
 Coeff:      0.847D-03-0.151D-01-0.716D-01 0.178D-02 0.108D+01
 Gap=     0.491 Goal=   None    Shift=    0.000
 RMSDP=1.09D-05 MaxDP=3.17D-04 DE=-4.56D-05 OVMax= 7.06D-04

 Cycle   6  Pass 0  IDiag  1:
 RMSU=  4.84D-06    CP:  1.01D+00  8.00D-01  8.90D-01  1.02D+00  1.24D+00
 E= -2902.86852713853     Delta-E=       -0.000004984268 Rises=F Damp=F
 DIIS: error= 3.15D-05 at cycle   6 NSaved=   6.
 NSaved= 6 IEnMin= 6 EnMin= -2902.86852713853     IErMin= 6 ErrMin= 3.15D-05
 ErrMax= 3.15D-05 EMaxC= 1.00D-01 BMatC= 1.69D-07 BMatP= 3.58D-06
 IDIUse=1 WtCom= 1.00D+00 WtEn= 0.00D+00
 Coeff-Com:  0.152D-03 0.532D-03-0.440D-02-0.444D-01-0.628D-01 0.111D+01
 Coeff:      0.152D-03 0.532D-03-0.440D-02-0.444D-01-0.628D-01 0.111D+01
 Gap=     0.491 Goal=   None    Shift=    0.000
 RMSDP=2.96D-06 MaxDP=9.25D-05 DE=-4.98D-06 OVMax= 1.79D-04

 Initial convergence to 1.0D-05 achieved.  Increase integral accuracy.
 Cycle   7  Pass 1  IDiag  1:
 E= -2902.86852749377     Delta-E=       -0.000000355235 Rises=F Damp=F
 DIIS: error= 9.18D-06 at cycle   1 NSaved=   1.
 NSaved= 1 IEnMin= 1 EnMin= -2902.86852749377     IErMin= 1 ErrMin= 9.18D-06
 ErrMax= 9.18D-06 EMaxC= 1.00D-01 BMatC= 1.11D-08 BMatP= 1.11D-08
 IDIUse=1 WtCom= 1.00D+00 WtEn= 0.00D+00
 Coeff-Com:  0.100D+01
 Coeff:      0.100D+01
 Gap=     0.491 Goal=   None    Shift=    0.000
 RMSDP=2.96D-06 MaxDP=9.25D-05 DE=-3.55D-07 OVMax= 5.50D-05

 Cycle   8  Pass 1  IDiag  1:
 RMSU=  5.67D-07    CP:  1.00D+00
 E= -2902.86852752112     Delta-E=       -0.000000027356 Rises=F Damp=F
 DIIS: error= 5.61D-06 at cycle   2 NSaved=   2.
 NSaved= 2 IEnMin= 2 EnMin= -2902.86852752112     IErMin= 2 ErrMin= 5.61D-06
 ErrMax= 5.61D-06 EMaxC= 1.00D-01 BMatC= 2.65D-09 BMatP= 1.11D-08
 IDIUse=1 WtCom= 1.00D+00 WtEn= 0.00D+00
 Coeff-Com: -0.447D+00 0.145D+01
 Coeff:     -0.447D+00 0.145D+01
 Gap=     0.491 Goal=   None    Shift=    0.000
 RMSDP=5.10D-07 MaxDP=1.61D-05 DE=-2.74D-08 OVMax= 3.99D-05

 Cycle   9  Pass 1  IDiag  1:
 RMSU=  1.03D-07    CP:  1.00D+00  1.61D+00
 E= -2902.86852752909     Delta-E=       -0.000000007966 Rises=F Damp=F
 DIIS: error= 1.84D-06 at cycle   3 NSaved=   3.
 NSaved= 3 IEnMin= 3 EnMin= -2902.86852752909     IErMin= 3 ErrMin= 1.84D-06
 ErrMax= 1.84D-06 EMaxC= 1.00D-01 BMatC= 5.48D-10 BMatP= 2.65D-09
 IDIUse=1 WtCom= 1.00D+00 WtEn= 0.00D+00
 Coeff-Com: -0.285D+00 0.434D+00 0.851D+00
 Coeff:     -0.285D+00 0.434D+00 0.851D+00
 Gap=     0.491 Goal=   None    Shift=    0.000
 RMSDP=1.81D-07 MaxDP=7.21D-06 DE=-7.97D-09 OVMax= 1.43D-05

 Cycle  10  Pass 1  IDiag  1:
 RMSU=  4.44D-08    CP:  1.00D+00  1.82D+00  1.01D+00
 E= -2902.86852753004     Delta-E=       -0.000000000955 Rises=F Damp=F
 DIIS: error= 6.61D-07 at cycle   4 NSaved=   4.
 NSaved= 4 IEnMin= 4 EnMin= -2902.86852753004     IErMin= 4 ErrMin= 6.61D-07
 ErrMax= 6.61D-07 EMaxC= 1.00D-01 BMatC= 5.67D-11 BMatP= 5.48D-10
 IDIUse=1 WtCom= 1.00D+00 WtEn= 0.00D+00
 Coeff-Com:  0.675D-04-0.752D-01 0.154D+00 0.921D+00
 Coeff:      0.675D-04-0.752D-01 0.154D+00 0.921D+00
 Gap=     0.491 Goal=   None    Shift=    0.000
 RMSDP=4.77D-08 MaxDP=1.67D-06 DE=-9.55D-10 OVMax= 4.31D-06

 Cycle  11  Pass 1  IDiag  1:
 RMSU=  1.54D-08    CP:  1.00D+00  1.86D+00  1.18D+00  1.22D+00
 E= -2902.86852753014     Delta-E=       -0.000000000099 Rises=F Damp=F
 DIIS: error= 3.36D-07 at cycle   5 NSaved=   5.
 NSaved= 5 IEnMin= 5 EnMin= -2902.86852753014     IErMin= 5 ErrMin= 3.36D-07
 ErrMax= 3.36D-07 EMaxC= 1.00D-01 BMatC= 8.52D-12 BMatP= 5.67D-11
 IDIUse=1 WtCom= 1.00D+00 WtEn= 0.00D+00
 Coeff-Com:  0.521D-01-0.755D-01-0.172D+00-0.664D-01 0.126D+01
 Coeff:      0.521D-01-0.755D-01-0.172D+00-0.664D-01 0.126D+01
 Gap=     0.491 Goal=   None    Shift=    0.000
 RMSDP=2.75D-08 MaxDP=5.80D-07 DE=-9.87D-11 OVMax= 2.88D-06

 Cycle  12  Pass 1  IDiag  1:
 RMSU=  6.34D-09    CP:  1.00D+00  1.87D+00  1.25D+00  1.49D+00  1.44D+00
 E= -2902.86852753017     Delta-E=       -0.000000000032 Rises=F Damp=F
 DIIS: error= 7.18D-08 at cycle   6 NSaved=   6.
 NSaved= 6 IEnMin= 6 EnMin= -2902.86852753017     IErMin= 6 ErrMin= 7.18D-08
 ErrMax= 7.18D-08 EMaxC= 1.00D-01 BMatC= 7.52D-13 BMatP= 8.52D-12
 IDIUse=1 WtCom= 1.00D+00 WtEn= 0.00D+00
 Coeff-Com:  0.211D-02 0.128D-02-0.163D-01-0.685D-01 0.899D-02 0.107D+01
 Coeff:      0.211D-02 0.128D-02-0.163D-01-0.685D-01 0.899D-02 0.107D+01
 Gap=     0.491 Goal=   None    Shift=    0.000
 RMSDP=6.84D-09 MaxDP=1.75D-07 DE=-3.23D-11 OVMax= 6.58D-07

 SCF Done:  E(RHF) =  -2902.86852753     A.U. after   12 cycles
             Convg  =    0.6837D-08             -V/T =  2.0001
 KE= 2.902673750343D+03 PE=-7.243053744189D+03 EE= 1.285722180496D+03
 Leave Link  502 at Sat Nov 16 10:36:32 2019, MaxMem=  268435456 cpu:      89.2
 (Enter /home/matheus/.gaussian/g09/l801.exe)
 Windowed orbitals will be sorted by symmetry type.
 ExpMin= 2.53D-02 ExpMax= 1.17D+07 ExpMxC= 1.33D+04 IAcc=3 IRadAn=         5 AccDes= 0.00D+00
 HarFok:  IExCor=  205 AccDes= 0.00D+00 IRadAn=         5 IDoV=-2
 ScaDFX=  1.000000  1.000000  1.000000  1.000000
 DSYEVD returned Info=          93 IAlg= 4 N=    46 NDim=    46 NE2=     4547561 trying DSYEV.
 DSYEVD returned Info=          89 IAlg= 4 N=    59 NDim=    59 NE2=     4547561 trying DSYEV.
 Largest valence mixing into a core orbital is  1.47D-04
 Largest core mixing into a valence orbital is  2.63D-05
 Range of M.O.s used for correlation:    12   197
 NBasis=   197 NAE=    27 NBE=    27 NFC=    11 NFV=     0
 NROrb=    186 NOA=    16 NOB=    16 NVA=   170 NVB=   170

 **** Warning!!: The largest alpha MO coefficient is  0.17310886D+02

 Leave Link  801 at Sat Nov 16 10:36:33 2019, MaxMem=  268435456 cpu:       0.3
 (Enter /home/matheus/.gaussian/g09/l804.exe)
 Closed-shell transformation, MDV=   268435456 ITran=4 ISComp=1.
 Semi-Direct transformation.
 ModeAB=           2 MOrb=            16 LenV=     267323198
 LASXX=     48528660 LTotXX=    48528660 LenRXX=    48528660
 LTotAB=    49298776 MaxLAS=    78372960 LenRXY=    78372960
 NonZer=    97057320 LenScr=   146313216 LnRSAI=           0
 LnScr1=           0 LExtra=           0 Total=    273214836
 MaxDsk=          -1 SrtSym=           F ITran=            4
 DoSDTr:  NPSUse=  2
 JobTyp=0 Pass  1:  I=   1 to  16.
 (rs|ai) integrals will be sorted in core.
 Complete sort for first half transformation.
 First half transformation complete.
 Begin second half transformation for I=  10.
 Begin second half transformation for I=  10.
 Complete sort for second half transformation.
 Second half transformation complete.
 SymMOI:  orbitals are not symmetric.
 Spin components of T(2) and E(2):
     alpha-alpha T2 =       0.2624329897D-01 E2=     -0.1006406455D+00
     alpha-beta  T2 =       0.1424984968D+00 E2=     -0.5583454891D+00
     beta-beta   T2 =       0.2624329897D-01 E2=     -0.1006406455D+00
 ANorm=    0.1093153738D+01
 E2 =    -0.7596267801D+00 EUMP2 =    -0.29036281543103D+04
 Leave Link  804 at Sat Nov 16 10:36:57 2019, MaxMem=  268435456 cpu:      45.3
 (Enter /home/matheus/.gaussian/g09/l913.exe)
 CIDS:  MDV=   268435456.
 Frozen-core window:  NFC=  11 NFV=   0.
 IFCWin=0 IBDFC=1 NFBD=     0     0 NFCmp=     0     0 NFFFC=     0     0
 Using DD3R+UMP44R for 1st iteration, S=T.
 Using DD4RQ for 2nd and later iterations.
 Would need an additional       431206676 words for in-memory AO integral storage.
 MP4(SDTQ)
 =========
 DD1Dir will call FoFDir   1 times, MxPair=       272
 NAB=   136 NAA=     0 NBB=     0 NumPrc=  2.
 Integrals replicated using symmetry in FoFDir.
 MinBra= 0 MaxBra= 3 Meth= 1.
 IRaf=       0 NMat= 272 IRICut=     340 DoRegI=T DoRafI=T ISym2E= 2 JSym2E=2.
 MP4(D)= -0.14913655D-01
 MP4(S)= -0.65920476D-02
 MP4(R+Q)=  0.15697217D-01
 T4(AAA)= -0.10759424D-02
 T4(AAB)= -0.14433094D-01
 Time for triples=     1301.18 seconds.
 MP4(T)=   -0.31018072D-01
 E3=       -0.10915223D-01        EUMP3=      -0.29036390695D+04
 E4(DQ)=    0.78356162D-03        UMP4(DQ)=   -0.29036382860D+04
 E4(SDQ)=  -0.58084860D-02        UMP4(SDQ)=  -0.29036448780D+04
 E4(SDTQ)= -0.36826558D-01        UMP4(SDTQ)= -0.29036758961D+04
 VARIATIONAL ENERGIES WITH THE FIRST-ORDER WAVEFUNCTION:
 E(VAR1)=  -0.29035133406D+04     E(CISD,4)=  -0.29035124593D+04
 Largest amplitude= 2.69D-02
 Leave Link  913 at Sat Nov 16 10:48:50 2019, MaxMem=  268435456 cpu:    1387.7
 (Enter /home/matheus/.gaussian/g09/l601.exe)
 Copying SCF densities to generalized density rwf, IOpCl= 0 IROHF=0.

 **********************************************************************

            Population analysis using the SCF density.

 **********************************************************************

 Orbital symmetries:
       Occupied  (A) (A) (A) (A) (A) (A) (A) (A) (A) (A) (A) (A)
                 (A) (A) (A) (A) (A) (A) (A) (A) (A) (A) (A) (A)
                 (A) (A) (A)
       Virtual   (A) (A) (A) (A) (A) (A) (A) (A) (A) (A) (A) (A)
                 (A) (A) (A) (A) (A) (A) (A) (A) (A) (A) (A) (A)
                 (A) (A) (A) (A) (A) (A) (A) (A) (A) (A) (A) (A)
                 (A) (A) (A) (A) (A) (A) (A) (A) (A) (A) (A) (A)
                 (A) (A) (A) (A) (A) (A) (A) (A) (A) (A) (A) (A)
                 (A) (A) (A) (A) (A) (A) (A) (A) (A) (A) (A) (A)
                 (A) (A) (A) (A) (A) (A) (A) (A) (A) (A) (A) (A)
                 (A) (A) (A) (A) (A) (A) (A) (A) (A) (A) (A) (A)
                 (A) (A) (A) (A) (A) (A) (A) (A) (A) (A) (A) (A)
                 (A) (A) (A) (A) (A) (A) (A) (A) (A) (A) (A) (A)
                 (A) (A) (A) (A) (A) (A) (A) (A) (A) (A) (A) (A)
                 (A) (A) (A) (A) (A) (A) (A) (A) (A) (A) (A) (A)
                 (A) (A) (A) (A) (A) (A) (A) (A) (A) (A) (A) (A)
                 (A) (A) (A) (A) (A) (A) (A) (A) (A) (A) (A) (A)
                 (A) (A)
 The electronic state is 1-A.
 Alpha  occ. eigenvalues -- -520.20549 -69.94307 -63.04964 -63.04963 -63.04961
 Alpha  occ. eigenvalues --  -20.62531 -20.62498 -10.88973  -8.37189  -8.37175
 Alpha  occ. eigenvalues --   -8.37158  -3.86564  -3.86563  -3.86543  -3.86535
 Alpha  occ. eigenvalues --   -3.86531  -1.46675  -1.21400  -1.19706  -0.77020
 Alpha  occ. eigenvalues --   -0.62593  -0.59862  -0.59033  -0.56281  -0.55767
 Alpha  occ. eigenvalues --   -0.54941  -0.45498
 Alpha virt. eigenvalues --    0.03642   0.04617   0.08504   0.09253   0.11298
 Alpha virt. eigenvalues --    0.13550   0.14747   0.17493   0.18171   0.18812
 Alpha virt. eigenvalues --    0.19607   0.19873   0.23841   0.25392   0.25717
 Alpha virt. eigenvalues --    0.26572   0.28548   0.28970   0.33950   0.35855
 Alpha virt. eigenvalues --    0.36340   0.39887   0.40736   0.41350   0.42116
 Alpha virt. eigenvalues --    0.46768   0.49910   0.52386   0.55971   0.57290
 Alpha virt. eigenvalues --    0.64439   0.65742   0.67189   0.68820   0.69545
 Alpha virt. eigenvalues --    0.74576   0.75015   0.76896   0.78519   0.81828
 Alpha virt. eigenvalues --    0.82188   0.82802   0.86360   0.89272   0.91169
 Alpha virt. eigenvalues --    0.91389   0.92428   0.94867   0.97675   0.98170
 Alpha virt. eigenvalues --    1.00076   1.03340   1.04132   1.05128   1.07707
 Alpha virt. eigenvalues --    1.10866   1.13047   1.14298   1.16616   1.17736
 Alpha virt. eigenvalues --    1.20410   1.25612   1.29887   1.35181   1.37003
 Alpha virt. eigenvalues --    1.39003   1.42906   1.47390   1.49400   1.54156
 Alpha virt. eigenvalues --    1.56683   1.59945   1.63759   1.67381   1.69110
 Alpha virt. eigenvalues --    1.74095   1.79166   1.94226   2.06746   2.08449
 Alpha virt. eigenvalues --    2.13052   2.15571   2.26815   2.28370   2.33095
 Alpha virt. eigenvalues --    2.35795   2.38112   2.39236   2.41450   2.45215
 Alpha virt. eigenvalues --    2.48301   2.48812   2.51981   2.52850   2.55040
 Alpha virt. eigenvalues --    2.56196   2.58862   2.60858   2.64615   2.65950
 Alpha virt. eigenvalues --    2.67783   2.69687   2.76846   2.77984   2.80799
 Alpha virt. eigenvalues --    2.81954   2.83963   2.87763   2.88567   2.89951
 Alpha virt. eigenvalues --    2.92926   2.95522   2.99033   3.06581   3.11462
 Alpha virt. eigenvalues --    3.13561   3.31359   3.32552   3.34686   3.76259
 Alpha virt. eigenvalues --    3.97347   4.10376   4.19545   4.28032   4.30254
 Alpha virt. eigenvalues --    4.33243   4.37952   4.40152   4.41206   4.51275
 Alpha virt. eigenvalues --    4.61250   4.77597   4.77655   5.02629   5.04192
 Alpha virt. eigenvalues --    5.22246   5.26693   5.30061   5.33079   5.40644
 Alpha virt. eigenvalues --    5.46650   5.88512   6.14967   6.32420   6.41400
 Alpha virt. eigenvalues --    6.46428   6.67233   6.72688   6.83501   6.93140
 Alpha virt. eigenvalues --    7.04955   7.10961   7.12752   7.18139   7.19113
 Alpha virt. eigenvalues --    7.25834   7.26736   7.27377   7.30813   7.48294
 Alpha virt. eigenvalues --    7.53309   7.60687   7.68509   7.70153   7.99795
 Alpha virt. eigenvalues --    8.37890   8.46259   8.61241  14.45705  15.42104
          Condensed to atoms (all electrons):
              1          2          3          4          5
     1  O    8.143530  -0.112630   0.232630   0.019519  -0.014983
     2  O   -0.112630   8.140530   0.021122   0.236427  -0.013849
     3  H    0.232630   0.021122   0.510987  -0.017091  -0.009338
     4  H    0.019519   0.236427  -0.017091   0.508680  -0.011326
     5  Kr  -0.014983  -0.013849  -0.009338  -0.011326  36.035312
 Mulliken atomic charges:
              1
     1  O   -0.268066
     2  O   -0.271600
     3  H    0.261690
     4  H    0.263792
     5  Kr   0.014184
 Sum of Mulliken atomic charges =   0.00000
 Mulliken charges with hydrogens summed into heavy atoms:
              1
     1  O   -0.006376
     2  O   -0.007808
     5  Kr   0.014184
 Sum of Mulliken charges with hydrogens summed into heavy atoms =   0.00000
 Electronic spatial extent (au):  <R**2>=            475.5762
 Charge=              0.0000 electrons
 Dipole moment (field-independent basis, Debye):
    X=             -3.7935    Y=             -0.0113    Z=              0.2382  Tot=              3.8010
 Quadrupole moment (field-independent basis, Debye-Ang):
   XX=            -39.2532   YY=            -28.1001   ZZ=            -30.3325
   XY=             -0.0344   XZ=              0.2671   YZ=             -0.3156
 Traceless Quadrupole moment (field-independent basis, Debye-Ang):
   XX=             -6.6913   YY=              4.4618   ZZ=              2.2294
   XY=             -0.0344   XZ=              0.2671   YZ=             -0.3156
 Octapole moment (field-independent basis, Debye-Ang**2):
  XXX=            -45.0062  YYY=             -0.0273  ZZZ=              0.0003  XYY=             -7.9768
  XXY=             -0.0796  XXZ=             -0.0118  XZZ=             -8.4556  YZZ=             -0.0559
  YYZ=              0.3599  XYZ=             -0.3451
 Hexadecapole moment (field-independent basis, Debye-Ang**3):
 XXXX=           -455.3841 YYYY=            -62.5562 ZZZZ=            -28.2556 XXXY=             -0.0779
 XXXZ=             -0.4579 YYYX=             -0.0634 YYYZ=             -0.4271 ZZZX=              0.1185
 ZZZY=             -0.1653 XXYY=            -86.4258 XXZZ=            -75.6810 YYZZ=            -16.9728
 XXYZ=             -0.3660 YYXZ=              0.4125 ZZXY=             -0.0707
 N-N= 1.517892858201D+02 E-N=-7.243053735874D+03  KE= 2.902673750343D+03
 Leave Link  601 at Sat Nov 16 10:48:50 2019, MaxMem=  268435456 cpu:       0.2
 (Enter /home/matheus/.gaussian/g09/l108.exe)
 Variable Step   Value    
 -------- ---- -----------
     1       1    5.858151
 Leave Link  108 at Sat Nov 16 10:48:50 2019, MaxMem=  268435456 cpu:       0.0
 (Enter /home/matheus/.gaussian/g09/l202.exe)
 ---------------------------------------------------------------------------------------------------
                            Z-MATRIX (ANGSTROMS AND DEGREES)
   CD    Cent   Atom    N1       Length/X        N2       Alpha/Y        N3        Beta/Z          J
 ---------------------------------------------------------------------------------------------------
      1      1  O        0   0.000000          0.000000          0.725000
      2      2  O        0   0.000000          0.000000         -0.725000
      3      3  H        0   0.159534          0.904763          1.023510
      4      4  H        0   0.000000          0.918721         -1.023510
      5      5  Kr       0   0.000000          3.100000          0.000000
 ---------------------------------------------------------------------------------------------------
                         Z-Matrix orientation:                         
 ---------------------------------------------------------------------
 Center     Atomic      Atomic             Coordinates (Angstroms)
 Number     Number       Type             X           Y           Z
 ---------------------------------------------------------------------
      1          8           0        0.000000    0.000000    0.725000
      2          8           0        0.000000    0.000000   -0.725000
      3          1           0        0.159534    0.904763    1.023510
      4          1           0        0.000000    0.918721   -1.023510
      5         36           0        0.000000    3.100000    0.000000
 ---------------------------------------------------------------------
                    Distance matrix (angstroms):
                    1          2          3          4          5
     1  O    0.000000
     2  O    1.450000   0.000000
     3  H    0.966000   1.975180   0.000000
     4  H    1.975180   0.966000   2.053275   0.000000
     5  Kr   3.183650   3.183650   2.427363   2.409472   0.000000
 Stoichiometry    H2KrO2
 Framework group  C1[X(H2KrO2)]
 Deg. of freedom     9
 Full point group                 C1      NOp   1
 RotChk:  IX=0 Diff= 2.86D-05
 Largest Abelian subgroup         C1      NOp   1
 Largest concise Abelian subgroup C1      NOp   1
                         Standard orientation:                         
 ---------------------------------------------------------------------
 Center     Atomic      Atomic             Coordinates (Angstroms)
 Number     Number       Type             X           Y           Z
 ---------------------------------------------------------------------
      1          8           0        2.100533   -0.724500   -0.017902
      2          8           0        2.100320    0.725325    0.004677
      3          1           0        1.196094   -1.025616    0.138540
      4          1           0        1.181557    1.023639    0.010925
      5         36           0       -0.999569   -0.000128   -0.001213
 ---------------------------------------------------------------------
 Rotational constants (GHZ):     26.6670679      2.2350687      2.0626263
 Leave Link  202 at Sat Nov 16 10:48:50 2019, MaxMem=  268435456 cpu:       0.0
 (Enter /home/matheus/.gaussian/g09/l301.exe)
 Standard basis: Aug-CC-pVTZ (5D, 7F)
 Ernie: Thresh=  0.10000D-02 Tol=  0.10000D-05 Strict=F.
 Ernie:  38 primitive shells out of 205 were deleted.
 There are   197 symmetry adapted basis functions of A   symmetry.
 Integral buffers will be    131072 words long.
 Raffenetti 1 integral format.
 Two-electron integral symmetry is turned on.
   197 basis functions,   415 primitive gaussians,   229 cartesian basis functions
    27 alpha electrons       27 beta electrons
       nuclear repulsion energy       148.1616859534 Hartrees.
 IExCor=    0 DFT=F Ex=HF Corr=None ExCW=0 ScaHFX=  1.000000
 ScaDFX=  1.000000  1.000000  1.000000  1.000000 ScalE2=  1.000000  1.000000
 IRadAn=      5 IRanWt=     -1 IRanGd=            0 ICorTp=0
 NAtoms=    5 NActive=    5 NUniq=    5 SFac= 1.00D+00 NAtFMM=   60 NAOKFM=F Big=F
 Leave Link  301 at Sat Nov 16 10:48:50 2019, MaxMem=  268435456 cpu:       0.1
 (Enter /home/matheus/.gaussian/g09/l302.exe)
 NPDir=0 NMtPBC=     1 NCelOv=     1 NCel=       1 NClECP=     1 NCelD=      1
         NCelK=      1 NCelE2=     1 NClLst=     1 CellRange=     0.0.
 One-electron integrals computed using PRISM.
 NBasis=   197 RedAO= T  NBF=   197
 NBsUse=   197 1.00D-06 NBFU=   197
 Leave Link  302 at Sat Nov 16 10:48:51 2019, MaxMem=  268435456 cpu:       0.2
 (Enter /home/matheus/.gaussian/g09/l303.exe)
 DipDrv:  MaxL=1.
 Leave Link  303 at Sat Nov 16 10:48:51 2019, MaxMem=  268435456 cpu:       0.1
 (Enter /home/matheus/.gaussian/g09/l401.exe)
 Initial guess read from the read-write file.
 B after Tr=     0.000000    0.000000    0.000000
         Rot=    1.000000    0.000000    0.000000    0.000000 Ang=   0.00 deg.
 Guess basis will be translated and rotated to current coordinates.
 Initial guess orbital symmetries:
       Occupied  (A) (A) (A) (A) (A) (A) (A) (A) (A) (A) (A) (A)
                 (A) (A) (A) (A) (A) (A) (A) (A) (A) (A) (A) (A)
                 (A) (A) (A)
       Virtual   (A) (A) (A) (A) (A) (A) (A) (A) (A) (A) (A) (A)
                 (A) (A) (A) (A) (A) (A) (A) (A) (A) (A) (A) (A)
                 (A) (A) (A) (A) (A) (A) (A) (A) (A) (A) (A) (A)
                 (A) (A) (A) (A) (A) (A) (A) (A) (A) (A) (A) (A)
                 (A) (A) (A) (A) (A) (A) (A) (A) (A) (A) (A) (A)
                 (A) (A) (A) (A) (A) (A) (A) (A) (A) (A) (A) (A)
                 (A) (A) (A) (A) (A) (A) (A) (A) (A) (A) (A) (A)
                 (A) (A) (A) (A) (A) (A) (A) (A) (A) (A) (A) (A)
                 (A) (A) (A) (A) (A) (A) (A) (A) (A) (A) (A) (A)
                 (A) (A) (A) (A) (A) (A) (A) (A) (A) (A) (A) (A)
                 (A) (A) (A) (A) (A) (A) (A) (A) (A) (A) (A) (A)
                 (A) (A) (A) (A) (A) (A) (A) (A) (A) (A) (A) (A)
                 (A) (A) (A) (A) (A) (A) (A) (A) (A) (A) (A) (A)
                 (A) (A) (A) (A) (A) (A) (A) (A) (A) (A) (A) (A)
                 (A) (A)
 The electronic state of the initial guess is 1-A.
 Generating alternative initial guess.
 Harris functional with IExCor=  205 diagonalized for initial guess.
 ExpMin= 2.53D-02 ExpMax= 1.17D+07 ExpMxC= 1.33D+04 IAcc=3 IRadAn=         5 AccDes= 0.00D+00
 HarFok:  IExCor=  205 AccDes= 0.00D+00 IRadAn=         5 IDoV= 1
 ScaDFX=  1.000000  1.000000  1.000000  1.000000
 FoFCou: FMM=F IPFlag=           0 FMFlag=      100000 FMFlg1=           0
         NFxFlg=           0 DoJE=T BraDBF=F KetDBF=T FulRan=T
         Omega=  0.000000  0.000000  1.000000  0.000000  0.000000 ICntrl=     500 IOpCl=  0
         NMat0=    1 NMatS0=    1 NMatT0=    0 NMatD0=    1 NMtDS0=    0 NMtDT0=    0
         I1Cent=           4 NGrid=           0.
 Petite list used in FoFCou.
 Harris En= -2901.92582596535    
 Leave Link  401 at Sat Nov 16 10:48:52 2019, MaxMem=  268435456 cpu:       1.4
 (Enter /home/matheus/.gaussian/g09/l502.exe)
 Closed shell SCF:
 Requested convergence on RMS density matrix=1.00D-08 within 128 cycles.
 Requested convergence on MAX density matrix=1.00D-06.
 Requested convergence on             energy=1.00D-06.
 No special actions if energy rises.
 Using DIIS extrapolation, IDIIS=  1040.
 Integral symmetry usage will be decided dynamically.
 IEnd=      178489 IEndB=      178489 NGot=   268435456 MDV=   268326278
 LenX=   268326278 LenY=   268273396
 Fock matrices will be formed incrementally for  20 cycles.

 Cycle   1  Pass 0  IDiag  1:
 FoFCou: FMM=F IPFlag=           0 FMFlag=      100000 FMFlg1=           0
         NFxFlg=           0 DoJE=F BraDBF=F KetDBF=F FulRan=T
         Omega=  0.000000  0.000000  1.000000  0.000000  0.000000 ICntrl=       0 IOpCl=  0
         NMat0=    1 NMatS0=    1 NMatT0=    0 NMatD0=    1 NMtDS0=    0 NMtDT0=    0
         I1Cent=           0 NGrid=           0.
 Symmetry not used in FoFCou.
 E= -2902.87198100536    
 DIIS: error= 9.30D-04 at cycle   1 NSaved=   1.
 NSaved= 1 IEnMin= 1 EnMin= -2902.87198100536     IErMin= 1 ErrMin= 9.30D-04
 ErrMax= 9.30D-04 EMaxC= 1.00D-01 BMatC= 1.06D-04 BMatP= 1.06D-04
 IDIUse=3 WtCom= 9.91D-01 WtEn= 9.30D-03
 Coeff-Com:  0.100D+01
 Coeff-En:   0.100D+01
 Coeff:      0.100D+01
 Gap=     0.494 Goal=   None    Shift=    0.000
 RMSDP=7.50D-05 MaxDP=2.53D-03              OVMax= 3.49D-03

 Cycle   2  Pass 0  IDiag  1:
 RMSU=  5.31D-05    CP:  1.00D+00
 E= -2902.87210299485     Delta-E=       -0.000121989493 Rises=F Damp=F
 DIIS: error= 1.67D-04 at cycle   2 NSaved=   2.
 NSaved= 2 IEnMin= 2 EnMin= -2902.87210299485     IErMin= 2 ErrMin= 1.67D-04
 ErrMax= 1.67D-04 EMaxC= 1.00D-01 BMatC= 3.46D-06 BMatP= 1.06D-04
 IDIUse=3 WtCom= 9.98D-01 WtEn= 1.67D-03
 Coeff-Com: -0.816D-01 0.108D+01
 Coeff-En:   0.000D+00 0.100D+01
 Coeff:     -0.815D-01 0.108D+01
 Gap=     0.492 Goal=   None    Shift=    0.000
 RMSDP=1.39D-05 MaxDP=4.86D-04 DE=-1.22D-04 OVMax= 8.51D-04

 Cycle   3  Pass 0  IDiag  1:
 RMSU=  6.84D-06    CP:  1.00D+00  1.13D+00
 E= -2902.87210792792     Delta-E=       -0.000004933069 Rises=F Damp=F
 DIIS: error= 5.75D-05 at cycle   3 NSaved=   3.
 NSaved= 3 IEnMin= 3 EnMin= -2902.87210792792     IErMin= 3 ErrMin= 5.75D-05
 ErrMax= 5.75D-05 EMaxC= 1.00D-01 BMatC= 4.71D-07 BMatP= 3.46D-06
 IDIUse=1 WtCom= 1.00D+00 WtEn= 0.00D+00
 Coeff-Com: -0.419D-01 0.251D+00 0.790D+00
 Coeff:     -0.419D-01 0.251D+00 0.790D+00
 Gap=     0.493 Goal=   None    Shift=    0.000
 RMSDP=3.15D-06 MaxDP=6.52D-05 DE=-4.93D-06 OVMax= 1.87D-04

 Initial convergence to 1.0D-05 achieved.  Increase integral accuracy.
 Cycle   4  Pass 1  IDiag  1:
 E= -2902.87210837195     Delta-E=       -0.000000444034 Rises=F Damp=F
 DIIS: error= 1.51D-05 at cycle   1 NSaved=   1.
 NSaved= 1 IEnMin= 1 EnMin= -2902.87210837195     IErMin= 1 ErrMin= 1.51D-05
 ErrMax= 1.51D-05 EMaxC= 1.00D-01 BMatC= 2.59D-08 BMatP= 2.59D-08
 IDIUse=1 WtCom= 1.00D+00 WtEn= 0.00D+00
 Coeff-Com:  0.100D+01
 Coeff:      0.100D+01
 Gap=     0.492 Goal=   None    Shift=    0.000
 RMSDP=3.15D-06 MaxDP=6.52D-05 DE=-4.44D-07 OVMax= 7.78D-05

 Cycle   5  Pass 1  IDiag  1:
 RMSU=  7.78D-07    CP:  1.00D+00
 E= -2902.87210841637     Delta-E=       -0.000000044419 Rises=F Damp=F
 DIIS: error= 6.00D-06 at cycle   2 NSaved=   2.
 NSaved= 2 IEnMin= 2 EnMin= -2902.87210841637     IErMin= 2 ErrMin= 6.00D-06
 ErrMax= 6.00D-06 EMaxC= 1.00D-01 BMatC= 6.19D-09 BMatP= 2.59D-08
 IDIUse=1 WtCom= 1.00D+00 WtEn= 0.00D+00
 Coeff-Com:  0.188D+00 0.812D+00
 Coeff:      0.188D+00 0.812D+00
 Gap=     0.492 Goal=   None    Shift=    0.000
 RMSDP=3.36D-07 MaxDP=7.58D-06 DE=-4.44D-08 OVMax= 2.67D-05

 Cycle   6  Pass 1  IDiag  1:
 RMSU=  1.88D-07    CP:  1.00D+00  1.19D+00
 E= -2902.87210842454     Delta-E=       -0.000000008165 Rises=F Damp=F
 DIIS: error= 2.89D-06 at cycle   3 NSaved=   3.
 NSaved= 3 IEnMin= 3 EnMin= -2902.87210842454     IErMin= 3 ErrMin= 2.89D-06
 ErrMax= 2.89D-06 EMaxC= 1.00D-01 BMatC= 1.08D-09 BMatP= 6.19D-09
 IDIUse=1 WtCom= 1.00D+00 WtEn= 0.00D+00
 Coeff-Com: -0.245D+00-0.870D-01 0.133D+01
 Coeff:     -0.245D+00-0.870D-01 0.133D+01
 Gap=     0.492 Goal=   None    Shift=    0.000
 RMSDP=3.23D-07 MaxDP=9.80D-06 DE=-8.16D-09 OVMax= 2.62D-05

 Cycle   7  Pass 1  IDiag  1:
 RMSU=  1.00D-07    CP:  1.00D+00  1.45D+00  1.21D+00
 E= -2902.87210842752     Delta-E=       -0.000000002980 Rises=F Damp=F
 DIIS: error= 5.92D-07 at cycle   4 NSaved=   4.
 NSaved= 4 IEnMin= 4 EnMin= -2902.87210842752     IErMin= 4 ErrMin= 5.92D-07
 ErrMax= 5.92D-07 EMaxC= 1.00D-01 BMatC= 4.31D-11 BMatP= 1.08D-09
 IDIUse=1 WtCom= 1.00D+00 WtEn= 0.00D+00
 Coeff-Com:  0.854D-02-0.193D-01-0.676D-01 0.108D+01
 Coeff:      0.854D-02-0.193D-01-0.676D-01 0.108D+01
 Gap=     0.492 Goal=   None    Shift=    0.000
 RMSDP=6.13D-08 MaxDP=1.71D-06 DE=-2.98D-09 OVMax= 4.19D-06

 Cycle   8  Pass 1  IDiag  1:
 RMSU=  1.75D-08    CP:  1.00D+00  1.44D+00  1.20D+00  1.40D+00
 E= -2902.87210842761     Delta-E=       -0.000000000091 Rises=F Damp=F
 DIIS: error= 3.02D-07 at cycle   5 NSaved=   5.
 NSaved= 5 IEnMin= 5 EnMin= -2902.87210842761     IErMin= 5 ErrMin= 3.02D-07
 ErrMax= 3.02D-07 EMaxC= 1.00D-01 BMatC= 1.54D-11 BMatP= 4.31D-11
 IDIUse=1 WtCom= 1.00D+00 WtEn= 0.00D+00
 Coeff-Com:  0.623D-01 0.144D-01-0.348D+00 0.386D+00 0.885D+00
 Coeff:      0.623D-01 0.144D-01-0.348D+00 0.386D+00 0.885D+00
 Gap=     0.492 Goal=   None    Shift=    0.000
 RMSDP=3.27D-08 MaxDP=8.54D-07 DE=-9.09D-11 OVMax= 2.40D-06

 Cycle   9  Pass 1  IDiag  1:
 RMSU=  8.36D-09    CP:  1.00D+00  1.44D+00  1.20D+00  1.61D+00  1.11D+00
 E= -2902.87210842763     Delta-E=       -0.000000000022 Rises=F Damp=F
 DIIS: error= 1.17D-07 at cycle   6 NSaved=   6.
 NSaved= 6 IEnMin= 6 EnMin= -2902.87210842763     IErMin= 6 ErrMin= 1.17D-07
 ErrMax= 1.17D-07 EMaxC= 1.00D-01 BMatC= 9.41D-13 BMatP= 1.54D-11
 IDIUse=1 WtCom= 1.00D+00 WtEn= 0.00D+00
 Coeff-Com: -0.198D-01-0.137D-02 0.108D+00-0.215D+00-0.242D+00 0.137D+01
 Coeff:     -0.198D-01-0.137D-02 0.108D+00-0.215D+00-0.242D+00 0.137D+01
 Gap=     0.492 Goal=   None    Shift=    0.000
 RMSDP=1.06D-08 MaxDP=2.39D-07 DE=-2.18D-11 OVMax= 9.15D-07

 Cycle  10  Pass 1  IDiag  1:
 RMSU=  2.84D-09    CP:  1.00D+00  1.45D+00  1.20D+00  1.64D+00  1.29D+00
                    CP:  1.54D+00
 E= -2902.87210842763     Delta-E=       -0.000000000006 Rises=F Damp=F
 DIIS: error= 3.29D-08 at cycle   7 NSaved=   7.
 NSaved= 7 IEnMin= 7 EnMin= -2902.87210842763     IErMin= 7 ErrMin= 3.29D-08
 ErrMax= 3.29D-08 EMaxC= 1.00D-01 BMatC= 1.23D-13 BMatP= 9.41D-13
 IDIUse=1 WtCom= 1.00D+00 WtEn= 0.00D+00
 Coeff-Com: -0.854D-02-0.130D-02 0.474D-01-0.559D-01-0.121D+00 0.392D-03
 Coeff-Com:  0.114D+01
 Coeff:     -0.854D-02-0.130D-02 0.474D-01-0.559D-01-0.121D+00 0.392D-03
 Coeff:      0.114D+01
 Gap=     0.492 Goal=   None    Shift=    0.000
 RMSDP=3.76D-09 MaxDP=6.39D-08 DE=-6.37D-12 OVMax= 4.32D-07

 SCF Done:  E(RHF) =  -2902.87210843     A.U. after   10 cycles
             Convg  =    0.3760D-08             -V/T =  2.0001
 KE= 2.902650397447D+03 PE=-7.235829221231D+03 EE= 1.282145029403D+03
 Leave Link  502 at Sat Nov 16 10:49:30 2019, MaxMem=  268435456 cpu:      76.2
 (Enter /home/matheus/.gaussian/g09/l801.exe)
 Windowed orbitals will be sorted by symmetry type.
 ExpMin= 2.53D-02 ExpMax= 1.17D+07 ExpMxC= 1.33D+04 IAcc=3 IRadAn=         5 AccDes= 0.00D+00
 HarFok:  IExCor=  205 AccDes= 0.00D+00 IRadAn=         5 IDoV=-2
 ScaDFX=  1.000000  1.000000  1.000000  1.000000
 DSYEVD returned Info=          89 IAlg= 4 N=    59 NDim=    59 NE2=     4547561 trying DSYEV.
 Largest valence mixing into a core orbital is  1.47D-04
 Largest core mixing into a valence orbital is  2.63D-05
 Range of M.O.s used for correlation:    12   197
 NBasis=   197 NAE=    27 NBE=    27 NFC=    11 NFV=     0
 NROrb=    186 NOA=    16 NOB=    16 NVA=   170 NVB=   170

 **** Warning!!: The largest alpha MO coefficient is  0.17047031D+02

 Leave Link  801 at Sat Nov 16 10:49:30 2019, MaxMem=  268435456 cpu:       0.3
 (Enter /home/matheus/.gaussian/g09/l804.exe)
 Closed-shell transformation, MDV=   268435456 ITran=4 ISComp=1.
 Semi-Direct transformation.
 ModeAB=           2 MOrb=            16 LenV=     267324394
 LASXX=     48528660 LTotXX=    48528660 LenRXX=    48528660
 LTotAB=    49298776 MaxLAS=    78372960 LenRXY=    78372960
 NonZer=    97057320 LenScr=   146313216 LnRSAI=           0
 LnScr1=           0 LExtra=           0 Total=    273214836
 MaxDsk=          -1 SrtSym=           F ITran=            4
 DoSDTr:  NPSUse=  2
 JobTyp=0 Pass  1:  I=   1 to  16.
 (rs|ai) integrals will be sorted in core.
 Complete sort for first half transformation.
 First half transformation complete.
 Begin second half transformation for I=  10.
 Begin second half transformation for I=  10.
 Complete sort for second half transformation.
 Second half transformation complete.
 SymMOI:  orbitals are not symmetric.
 Spin components of T(2) and E(2):
     alpha-alpha T2 =       0.2614380856D-01 E2=     -0.1002973658D+00
     alpha-beta  T2 =       0.1423759480D+00 E2=     -0.5575652075D+00
     beta-beta   T2 =       0.2614380856D-01 E2=     -0.1002973658D+00
 ANorm=    0.1093006663D+01
 E2 =    -0.7581599391D+00 EUMP2 =    -0.29036302683667D+04
 Leave Link  804 at Sat Nov 16 10:49:57 2019, MaxMem=  268435456 cpu:      48.7
 (Enter /home/matheus/.gaussian/g09/l913.exe)
 CIDS:  MDV=   268435456.
 Frozen-core window:  NFC=  11 NFV=   0.
 IFCWin=0 IBDFC=1 NFBD=     0     0 NFCmp=     0     0 NFFFC=     0     0
 Using DD3R+UMP44R for 1st iteration, S=T.
 Using DD4RQ for 2nd and later iterations.
 Would need an additional       431206676 words for in-memory AO integral storage.
 MP4(SDTQ)
 =========
 DD1Dir will call FoFDir   1 times, MxPair=       272
 NAB=   136 NAA=     0 NBB=     0 NumPrc=  2.
 Integrals replicated using symmetry in FoFDir.
 MinBra= 0 MaxBra= 3 Meth= 1.
 IRaf=       0 NMat= 272 IRICut=     340 DoRegI=T DoRafI=T ISym2E= 2 JSym2E=2.
 MP4(D)= -0.14913813D-01
 MP4(S)= -0.65494786D-02
 MP4(R+Q)=  0.15594838D-01
 T4(AAA)= -0.10626393D-02
 T4(AAB)= -0.14346191D-01
 Time for triples=     1302.50 seconds.
 MP4(T)=   -0.30817660D-01
 E3=       -0.11114729D-01        EUMP3=      -0.29036413831D+04
 E4(DQ)=    0.68102487D-03        UMP4(DQ)=   -0.29036407021D+04
 E4(SDQ)=  -0.58684537D-02        UMP4(SDQ)=  -0.29036472515D+04
 E4(SDTQ)= -0.36686114D-01        UMP4(SDTQ)= -0.29036780692D+04
 VARIATIONAL ENERGIES WITH THE FIRST-ORDER WAVEFUNCTION:
 E(VAR1)=  -0.29035160342D+04     E(CISD,4)=  -0.29035152603D+04
 Largest amplitude= 3.07D-02
 Leave Link  913 at Sat Nov 16 11:01:55 2019, MaxMem=  268435456 cpu:    1394.3
 (Enter /home/matheus/.gaussian/g09/l108.exe)
 Variable Step   Value    
 -------- ---- -----------
     1       2    6.047124
 Leave Link  108 at Sat Nov 16 11:01:55 2019, MaxMem=  268435456 cpu:       0.2
 (Enter /home/matheus/.gaussian/g09/l202.exe)
 ---------------------------------------------------------------------------------------------------
                            Z-MATRIX (ANGSTROMS AND DEGREES)
   CD    Cent   Atom    N1       Length/X        N2       Alpha/Y        N3        Beta/Z          J
 ---------------------------------------------------------------------------------------------------
      1      1  O        0   0.000000          0.000000          0.725000
      2      2  O        0   0.000000          0.000000         -0.725000
      3      3  H        0   0.159534          0.904763          1.023510
      4      4  H        0   0.000000          0.918721         -1.023510
      5      5  Kr       0   0.000000          3.200000          0.000000
 ---------------------------------------------------------------------------------------------------
                         Z-Matrix orientation:                         
 ---------------------------------------------------------------------
 Center     Atomic      Atomic             Coordinates (Angstroms)
 Number     Number       Type             X           Y           Z
 ---------------------------------------------------------------------
      1          8           0        0.000000    0.000000    0.725000
      2          8           0        0.000000    0.000000   -0.725000
      3          1           0        0.159534    0.904763    1.023510
      4          1           0        0.000000    0.918721   -1.023510
      5         36           0        0.000000    3.200000    0.000000
 ---------------------------------------------------------------------
                    Distance matrix (angstroms):
                    1          2          3          4          5
     1  O    0.000000
     2  O    1.450000   0.000000
     3  H    0.966000   1.975180   0.000000
     4  H    1.975180   0.966000   2.053275   0.000000
     5  Kr   3.281101   3.281101   2.518161   2.500362   0.000000
 Stoichiometry    H2KrO2
 Framework group  C1[X(H2KrO2)]
 Deg. of freedom     9
 Full point group                 C1      NOp   1
 RotChk:  IX=0 Diff= 2.96D-05
 Largest Abelian subgroup         C1      NOp   1
 Largest concise Abelian subgroup C1      NOp   1
                         Standard orientation:                         
 ---------------------------------------------------------------------
 Center     Atomic      Atomic             Coordinates (Angstroms)
 Number     Number       Type             X           Y           Z
 ---------------------------------------------------------------------
      1          8           0        2.167193   -0.724511   -0.017979
      2          8           0        2.166994    0.725314    0.004600
      3          1           0        1.262747   -1.025617    0.138447
      4          1           0        1.248234    1.023637    0.010832
      5         36           0       -1.032902   -0.000123   -0.001173
 ---------------------------------------------------------------------
 Rotational constants (GHZ):     26.6670795      2.0961637      1.9437584
 Leave Link  202 at Sat Nov 16 11:01:55 2019, MaxMem=  268435456 cpu:       0.0
 (Enter /home/matheus/.gaussian/g09/l301.exe)
 Standard basis: Aug-CC-pVTZ (5D, 7F)
 Ernie: Thresh=  0.10000D-02 Tol=  0.10000D-05 Strict=F.
 Ernie:  38 primitive shells out of 205 were deleted.
 There are   197 symmetry adapted basis functions of A   symmetry.
 Integral buffers will be    131072 words long.
 Raffenetti 1 integral format.
 Two-electron integral symmetry is turned on.
   197 basis functions,   415 primitive gaussians,   229 cartesian basis functions
    27 alpha electrons       27 beta electrons
       nuclear repulsion energy       144.7477002505 Hartrees.
 IExCor=    0 DFT=F Ex=HF Corr=None ExCW=0 ScaHFX=  1.000000
 ScaDFX=  1.000000  1.000000  1.000000  1.000000 ScalE2=  1.000000  1.000000
 IRadAn=      5 IRanWt=     -1 IRanGd=            0 ICorTp=0
 NAtoms=    5 NActive=    5 NUniq=    5 SFac= 1.00D+00 NAtFMM=   60 NAOKFM=F Big=F
 Leave Link  301 at Sat Nov 16 11:01:55 2019, MaxMem=  268435456 cpu:       0.0
 (Enter /home/matheus/.gaussian/g09/l302.exe)
 NPDir=0 NMtPBC=     1 NCelOv=     1 NCel=       1 NClECP=     1 NCelD=      1
         NCelK=      1 NCelE2=     1 NClLst=     1 CellRange=     0.0.
 One-electron integrals computed using PRISM.
 NBasis=   197 RedAO= T  NBF=   197
 NBsUse=   197 1.00D-06 NBFU=   197
 Leave Link  302 at Sat Nov 16 11:01:55 2019, MaxMem=  268435456 cpu:       0.2
 (Enter /home/matheus/.gaussian/g09/l303.exe)
 DipDrv:  MaxL=1.
 Leave Link  303 at Sat Nov 16 11:01:55 2019, MaxMem=  268435456 cpu:       0.0
 (Enter /home/matheus/.gaussian/g09/l401.exe)
 Initial guess read from the read-write file.
 B after Tr=     0.000000    0.000000    0.000000
         Rot=    1.000000    0.000000    0.000000    0.000000 Ang=   0.00 deg.
 Guess basis will be translated and rotated to current coordinates.
 Initial guess orbital symmetries:
       Occupied  (A) (A) (A) (A) (A) (A) (A) (A) (A) (A) (A) (A)
                 (A) (A) (A) (A) (A) (A) (A) (A) (A) (A) (A) (A)
                 (A) (A) (A)
       Virtual   (A) (A) (A) (A) (A) (A) (A) (A) (A) (A) (A) (A)
                 (A) (A) (A) (A) (A) (A) (A) (A) (A) (A) (A) (A)
                 (A) (A) (A) (A) (A) (A) (A) (A) (A) (A) (A) (A)
                 (A) (A) (A) (A) (A) (A) (A) (A) (A) (A) (A) (A)
                 (A) (A) (A) (A) (A) (A) (A) (A) (A) (A) (A) (A)
                 (A) (A) (A) (A) (A) (A) (A) (A) (A) (A) (A) (A)
                 (A) (A) (A) (A) (A) (A) (A) (A) (A) (A) (A) (A)
                 (A) (A) (A) (A) (A) (A) (A) (A) (A) (A) (A) (A)
                 (A) (A) (A) (A) (A) (A) (A) (A) (A) (A) (A) (A)
                 (A) (A) (A) (A) (A) (A) (A) (A) (A) (A) (A) (A)
                 (A) (A) (A) (A) (A) (A) (A) (A) (A) (A) (A) (A)
                 (A) (A) (A) (A) (A) (A) (A) (A) (A) (A) (A) (A)
                 (A) (A) (A) (A) (A) (A) (A) (A) (A) (A) (A) (A)
                 (A) (A) (A) (A) (A) (A) (A) (A) (A) (A) (A) (A)
                 (A) (A)
 The electronic state of the initial guess is 1-A.
 Generating alternative initial guess.
 Harris functional with IExCor=  205 diagonalized for initial guess.
 ExpMin= 2.53D-02 ExpMax= 1.17D+07 ExpMxC= 1.33D+04 IAcc=3 IRadAn=         5 AccDes= 0.00D+00
 HarFok:  IExCor=  205 AccDes= 0.00D+00 IRadAn=         5 IDoV= 1
 ScaDFX=  1.000000  1.000000  1.000000  1.000000
 FoFCou: FMM=F IPFlag=           0 FMFlag=      100000 FMFlg1=           0
         NFxFlg=           0 DoJE=T BraDBF=F KetDBF=T FulRan=T
         Omega=  0.000000  0.000000  1.000000  0.000000  0.000000 ICntrl=     500 IOpCl=  0
         NMat0=    1 NMatS0=    1 NMatT0=    0 NMatD0=    1 NMtDS0=    0 NMtDT0=    0
         I1Cent=           4 NGrid=           0.
 Petite list used in FoFCou.
 Harris En= -2901.92731439910    
 Leave Link  401 at Sat Nov 16 11:01:56 2019, MaxMem=  268435456 cpu:       1.3
 (Enter /home/matheus/.gaussian/g09/l502.exe)
 Closed shell SCF:
 Requested convergence on RMS density matrix=1.00D-08 within 128 cycles.
 Requested convergence on MAX density matrix=1.00D-06.
 Requested convergence on             energy=1.00D-06.
 No special actions if energy rises.
 Using DIIS extrapolation, IDIIS=  1040.
 Integral symmetry usage will be decided dynamically.
 IEnd=      178489 IEndB=      178489 NGot=   268435456 MDV=   268326278
 LenX=   268326278 LenY=   268273396
 Fock matrices will be formed incrementally for  20 cycles.

 Cycle   1  Pass 0  IDiag  1:
 FoFCou: FMM=F IPFlag=           0 FMFlag=      100000 FMFlg1=           0
         NFxFlg=           0 DoJE=F BraDBF=F KetDBF=F FulRan=T
         Omega=  0.000000  0.000000  1.000000  0.000000  0.000000 ICntrl=       0 IOpCl=  0
         NMat0=    1 NMatS0=    1 NMatT0=    0 NMatD0=    1 NMtDS0=    0 NMtDT0=    0
         I1Cent=           0 NGrid=           0.
 Symmetry not used in FoFCou.
 E= -2902.87456435053    
 DIIS: error= 8.47D-04 at cycle   1 NSaved=   1.
 NSaved= 1 IEnMin= 1 EnMin= -2902.87456435053     IErMin= 1 ErrMin= 8.47D-04
 ErrMax= 8.47D-04 EMaxC= 1.00D-01 BMatC= 7.92D-05 BMatP= 7.92D-05
 IDIUse=3 WtCom= 9.92D-01 WtEn= 8.47D-03
 Coeff-Com:  0.100D+01
 Coeff-En:   0.100D+01
 Coeff:      0.100D+01
 Gap=     0.495 Goal=   None    Shift=    0.000
 RMSDP=6.61D-05 MaxDP=1.99D-03              OVMax= 2.76D-03

 Cycle   2  Pass 0  IDiag  1:
 RMSU=  4.67D-05    CP:  1.00D+00
 E= -2902.87465668348     Delta-E=       -0.000092332948 Rises=F Damp=F
 DIIS: error= 1.41D-04 at cycle   2 NSaved=   2.
 NSaved= 2 IEnMin= 2 EnMin= -2902.87465668348     IErMin= 2 ErrMin= 1.41D-04
 ErrMax= 1.41D-04 EMaxC= 1.00D-01 BMatC= 2.35D-06 BMatP= 7.92D-05
 IDIUse=3 WtCom= 9.99D-01 WtEn= 1.41D-03
 Coeff-Com: -0.889D-01 0.109D+01
 Coeff-En:   0.000D+00 0.100D+01
 Coeff:     -0.887D-01 0.109D+01
 Gap=     0.493 Goal=   None    Shift=    0.000
 RMSDP=1.23D-05 MaxDP=4.10D-04 DE=-9.23D-05 OVMax= 6.35D-04

 Cycle   3  Pass 0  IDiag  1:
 RMSU=  5.81D-06    CP:  1.00D+00  1.14D+00
 E= -2902.87466031616     Delta-E=       -0.000003632675 Rises=F Damp=F
 DIIS: error= 4.56D-05 at cycle   3 NSaved=   3.
 NSaved= 3 IEnMin= 3 EnMin= -2902.87466031616     IErMin= 3 ErrMin= 4.56D-05
 ErrMax= 4.56D-05 EMaxC= 1.00D-01 BMatC= 2.75D-07 BMatP= 2.35D-06
 IDIUse=1 WtCom= 1.00D+00 WtEn= 0.00D+00
 Coeff-Com: -0.378D-01 0.227D+00 0.811D+00
 Coeff:     -0.378D-01 0.227D+00 0.811D+00
 Gap=     0.493 Goal=   None    Shift=    0.000
 RMSDP=2.66D-06 MaxDP=5.23D-05 DE=-3.63D-06 OVMax= 1.45D-04

 Initial convergence to 1.0D-05 achieved.  Increase integral accuracy.
 Cycle   4  Pass 1  IDiag  1:
 E= -2902.87466060096     Delta-E=       -0.000000284798 Rises=F Damp=F
 DIIS: error= 1.28D-05 at cycle   1 NSaved=   1.
 NSaved= 1 IEnMin= 1 EnMin= -2902.87466060096     IErMin= 1 ErrMin= 1.28D-05
 ErrMax= 1.28D-05 EMaxC= 1.00D-01 BMatC= 2.00D-08 BMatP= 2.00D-08
 IDIUse=1 WtCom= 1.00D+00 WtEn= 0.00D+00
 Coeff-Com:  0.100D+01
 Coeff:      0.100D+01
 Gap=     0.493 Goal=   None    Shift=    0.000
 RMSDP=2.66D-06 MaxDP=5.23D-05 DE=-2.85D-07 OVMax= 7.33D-05

 Cycle   5  Pass 1  IDiag  1:
 RMSU=  6.92D-07    CP:  1.00D+00
 E= -2902.87466063501     Delta-E=       -0.000000034056 Rises=F Damp=F
 DIIS: error= 5.17D-06 at cycle   2 NSaved=   2.
 NSaved= 2 IEnMin= 2 EnMin= -2902.87466063501     IErMin= 2 ErrMin= 5.17D-06
 ErrMax= 5.17D-06 EMaxC= 1.00D-01 BMatC= 4.89D-09 BMatP= 2.00D-08
 IDIUse=1 WtCom= 1.00D+00 WtEn= 0.00D+00
 Coeff-Com:  0.197D+00 0.803D+00
 Coeff:      0.197D+00 0.803D+00
 Gap=     0.493 Goal=   None    Shift=    0.000
 RMSDP=2.91D-07 MaxDP=6.77D-06 DE=-3.41D-08 OVMax= 2.43D-05

 Cycle   6  Pass 1  IDiag  1:
 RMSU=  1.66D-07    CP:  1.00D+00  1.18D+00
 E= -2902.87466064140     Delta-E=       -0.000000006390 Rises=F Damp=F
 DIIS: error= 2.56D-06 at cycle   3 NSaved=   3.
 NSaved= 3 IEnMin= 3 EnMin= -2902.87466064140     IErMin= 3 ErrMin= 2.56D-06
 ErrMax= 2.56D-06 EMaxC= 1.00D-01 BMatC= 8.41D-10 BMatP= 4.89D-09
 IDIUse=1 WtCom= 1.00D+00 WtEn= 0.00D+00
 Coeff-Com: -0.251D+00-0.105D+00 0.136D+01
 Coeff:     -0.251D+00-0.105D+00 0.136D+01
 Gap=     0.493 Goal=   None    Shift=    0.000
 RMSDP=2.89D-07 MaxDP=8.86D-06 DE=-6.39D-09 OVMax= 2.54D-05

 Cycle   7  Pass 1  IDiag  1:
 RMSU=  8.82D-08    CP:  1.00D+00  1.44D+00  1.23D+00
 E= -2902.87466064377     Delta-E=       -0.000000002367 Rises=F Damp=F
 DIIS: error= 4.87D-07 at cycle   4 NSaved=   4.
 NSaved= 4 IEnMin= 4 EnMin= -2902.87466064377     IErMin= 4 ErrMin= 4.87D-07
 ErrMax= 4.87D-07 EMaxC= 1.00D-01 BMatC= 3.49D-11 BMatP= 8.41D-10
 IDIUse=1 WtCom= 1.00D+00 WtEn= 0.00D+00
 Coeff-Com: -0.101D-01-0.250D-01 0.321D-01 0.100D+01
 Coeff:     -0.101D-01-0.250D-01 0.321D-01 0.100D+01
 Gap=     0.493 Goal=   None    Shift=    0.000
 RMSDP=5.02D-08 MaxDP=1.49D-06 DE=-2.37D-09 OVMax= 3.65D-06

 Cycle   8  Pass 1  IDiag  1:
 RMSU=  1.56D-08    CP:  1.00D+00  1.43D+00  1.22D+00  1.36D+00
 E= -2902.87466064382     Delta-E=       -0.000000000052 Rises=F Damp=F
 DIIS: error= 2.78D-07 at cycle   5 NSaved=   5.
 NSaved= 5 IEnMin= 5 EnMin= -2902.87466064382     IErMin= 5 ErrMin= 2.78D-07
 ErrMax= 2.78D-07 EMaxC= 1.00D-01 BMatC= 1.21D-11 BMatP= 3.49D-11
 IDIUse=1 WtCom= 1.00D+00 WtEn= 0.00D+00
 Coeff-Com:  0.674D-01 0.216D-01-0.372D+00 0.336D+00 0.947D+00
 Coeff:      0.674D-01 0.216D-01-0.372D+00 0.336D+00 0.947D+00
 Gap=     0.493 Goal=   None    Shift=    0.000
 RMSDP=3.17D-08 MaxDP=7.71D-07 DE=-5.18D-11 OVMax= 2.46D-06

 Cycle   9  Pass 1  IDiag  1:
 RMSU=  7.52D-09    CP:  1.00D+00  1.43D+00  1.21D+00  1.60D+00  1.14D+00
 E= -2902.87466064386     Delta-E=       -0.000000000040 Rises=F Damp=F
 DIIS: error= 1.01D-07 at cycle   6 NSaved=   6.
 NSaved= 6 IEnMin= 6 EnMin= -2902.87466064386     IErMin= 6 ErrMin= 1.01D-07
 ErrMax= 1.01D-07 EMaxC= 1.00D-01 BMatC= 6.40D-13 BMatP= 1.21D-11
 IDIUse=1 WtCom= 1.00D+00 WtEn= 0.00D+00
 Coeff-Com: -0.326D-01-0.700D-02 0.178D+00-0.248D+00-0.444D+00 0.155D+01
 Coeff:     -0.326D-01-0.700D-02 0.178D+00-0.248D+00-0.444D+00 0.155D+01
 Gap=     0.493 Goal=   None    Shift=    0.000
 RMSDP=9.90D-09 MaxDP=2.14D-07 DE=-4.05D-11 OVMax= 8.85D-07

 SCF Done:  E(RHF) =  -2902.87466064     A.U. after    9 cycles
             Convg  =    0.9898D-08             -V/T =  2.0001
 KE= 2.902633049514D+03 PE=-7.229036647503D+03 EE= 1.278781237095D+03
 Leave Link  502 at Sat Nov 16 11:02:29 2019, MaxMem=  268435456 cpu:      66.4
 (Enter /home/matheus/.gaussian/g09/l801.exe)
 Windowed orbitals will be sorted by symmetry type.
 ExpMin= 2.53D-02 ExpMax= 1.17D+07 ExpMxC= 1.33D+04 IAcc=3 IRadAn=         5 AccDes= 0.00D+00
 HarFok:  IExCor=  205 AccDes= 0.00D+00 IRadAn=         5 IDoV=-2
 ScaDFX=  1.000000  1.000000  1.000000  1.000000
 DSYEVD returned Info=          93 IAlg= 4 N=    46 NDim=    46 NE2=     4547561 trying DSYEV.
 DSYEVD returned Info=          89 IAlg= 4 N=    59 NDim=    59 NE2=     4547561 trying DSYEV.
 Largest valence mixing into a core orbital is  1.47D-04
 Largest core mixing into a valence orbital is  2.64D-05
 Range of M.O.s used for correlation:    12   197
 NBasis=   197 NAE=    27 NBE=    27 NFC=    11 NFV=     0
 NROrb=    186 NOA=    16 NOB=    16 NVA=   170 NVB=   170

 **** Warning!!: The largest alpha MO coefficient is  0.16424092D+02

 Leave Link  801 at Sat Nov 16 11:02:29 2019, MaxMem=  268435456 cpu:       0.2
 (Enter /home/matheus/.gaussian/g09/l804.exe)
 Closed-shell transformation, MDV=   268435456 ITran=4 ISComp=1.
 Semi-Direct transformation.
 ModeAB=           2 MOrb=            16 LenV=     267325540
 LASXX=     48528660 LTotXX=    48528660 LenRXX=    48528660
 LTotAB=    49298776 MaxLAS=    78372960 LenRXY=    78372960
 NonZer=    97057320 LenScr=   146313216 LnRSAI=           0
 LnScr1=           0 LExtra=           0 Total=    273214836
 MaxDsk=          -1 SrtSym=           F ITran=            4
 DoSDTr:  NPSUse=  2
 JobTyp=0 Pass  1:  I=   1 to  16.
 (rs|ai) integrals will be sorted in core.
 Complete sort for first half transformation.
 First half transformation complete.
 Begin second half transformation for I=  10.
 Begin second half transformation for I=  10.
 Complete sort for second half transformation.
 Second half transformation complete.
 SymMOI:  orbitals are not symmetric.
 Spin components of T(2) and E(2):
     alpha-alpha T2 =       0.2605889821D-01 E2=     -0.1000072412D+00
     alpha-beta  T2 =       0.1422653089D+00 E2=     -0.5568923055D+00
     beta-beta   T2 =       0.2605889821D-01 E2=     -0.1000072412D+00
 ANorm=    0.1092878358D+01
 E2 =    -0.7569067880D+00 EUMP2 =    -0.29036315674318D+04
 Leave Link  804 at Sat Nov 16 11:02:55 2019, MaxMem=  268435456 cpu:      48.1
 (Enter /home/matheus/.gaussian/g09/l913.exe)
 CIDS:  MDV=   268435456.
 Frozen-core window:  NFC=  11 NFV=   0.
 IFCWin=0 IBDFC=1 NFBD=     0     0 NFCmp=     0     0 NFFFC=     0     0
 Using DD3R+UMP44R for 1st iteration, S=T.
 Using DD4RQ for 2nd and later iterations.
 Would need an additional       431206676 words for in-memory AO integral storage.
 MP4(SDTQ)
 =========
 DD1Dir will call FoFDir   1 times, MxPair=       272
 NAB=   136 NAA=     0 NBB=     0 NumPrc=  2.
 Integrals replicated using symmetry in FoFDir.
 MinBra= 0 MaxBra= 3 Meth= 1.
 IRaf=       0 NMat= 272 IRICut=     340 DoRegI=T DoRafI=T ISym2E= 2 JSym2E=2.
 MP4(D)= -0.14914077D-01
 MP4(S)= -0.65131845D-02
 MP4(R+Q)=  0.15507075D-01
 T4(AAA)= -0.10513586D-02
 T4(AAB)= -0.14272169D-01
 Time for triples=     1301.13 seconds.
 MP4(T)=   -0.30647056D-01
 E3=       -0.11271317D-01        EUMP3=      -0.29036428387D+04
 E4(DQ)=    0.59299761D-03        UMP4(DQ)=   -0.29036422458D+04
 E4(SDQ)=  -0.59201869D-02        UMP4(SDQ)=  -0.29036487589D+04
 E4(SDTQ)= -0.36567243D-01        UMP4(SDTQ)= -0.29036794060D+04
 VARIATIONAL ENERGIES WITH THE FIRST-ORDER WAVEFUNCTION:
 E(VAR1)=  -0.29035178195D+04     E(CISD,4)=  -0.29035171361D+04
 Largest amplitude= 3.86D-02
 Leave Link  913 at Sat Nov 16 11:14:50 2019, MaxMem=  268435456 cpu:    1390.8
 (Enter /home/matheus/.gaussian/g09/l108.exe)
 Variable Step   Value    
 -------- ---- -----------
     1       3    6.236096
 Leave Link  108 at Sat Nov 16 11:14:50 2019, MaxMem=  268435456 cpu:       0.1
 (Enter /home/matheus/.gaussian/g09/l202.exe)
 ---------------------------------------------------------------------------------------------------
                            Z-MATRIX (ANGSTROMS AND DEGREES)
   CD    Cent   Atom    N1       Length/X        N2       Alpha/Y        N3        Beta/Z          J
 ---------------------------------------------------------------------------------------------------
      1      1  O        0   0.000000          0.000000          0.725000
      2      2  O        0   0.000000          0.000000         -0.725000
      3      3  H        0   0.159534          0.904763          1.023510
      4      4  H        0   0.000000          0.918721         -1.023510
      5      5  Kr       0   0.000000          3.300000          0.000000
 ---------------------------------------------------------------------------------------------------
                         Z-Matrix orientation:                         
 ---------------------------------------------------------------------
 Center     Atomic      Atomic             Coordinates (Angstroms)
 Number     Number       Type             X           Y           Z
 ---------------------------------------------------------------------
      1          8           0        0.000000    0.000000    0.725000
      2          8           0        0.000000    0.000000   -0.725000
      3          1           0        0.159534    0.904763    1.023510
      4          1           0        0.000000    0.918721   -1.023510
      5         36           0        0.000000    3.300000    0.000000
 ---------------------------------------------------------------------
                    Distance matrix (angstroms):
                    1          2          3          4          5
     1  O    0.000000
     2  O    1.450000   0.000000
     3  H    0.966000   1.975180   0.000000
     4  H    1.975180   0.966000   2.053275   0.000000
     5  Kr   3.378702   3.378702   2.609633   2.591923   0.000000
 Stoichiometry    H2KrO2
 Framework group  C1[X(H2KrO2)]
 Deg. of freedom     9
 Full point group                 C1      NOp   1
 RotChk:  IX=0 Diff= 3.03D-05
 Largest Abelian subgroup         C1      NOp   1
 Largest concise Abelian subgroup C1      NOp   1
                         Standard orientation:                         
 ---------------------------------------------------------------------
 Center     Atomic      Atomic             Coordinates (Angstroms)
 Number     Number       Type             X           Y           Z
 ---------------------------------------------------------------------
      1          8           0        2.233853   -0.724521   -0.018051
      2          8           0        2.233667    0.725303    0.004528
      3          1           0        1.329401   -1.025619    0.138357
      4          1           0        1.314910    1.023636    0.010742
      5         36           0       -1.066235   -0.000119   -0.001136
 ---------------------------------------------------------------------
 Rotational constants (GHZ):     26.6670906      1.9697910      1.8346155
 Leave Link  202 at Sat Nov 16 11:14:50 2019, MaxMem=  268435456 cpu:       0.0
 (Enter /home/matheus/.gaussian/g09/l301.exe)
 Standard basis: Aug-CC-pVTZ (5D, 7F)
 Ernie: Thresh=  0.10000D-02 Tol=  0.10000D-05 Strict=F.
 Ernie:  38 primitive shells out of 205 were deleted.
 There are   197 symmetry adapted basis functions of A   symmetry.
 Integral buffers will be    131072 words long.
 Raffenetti 1 integral format.
 Two-electron integral symmetry is turned on.
   197 basis functions,   415 primitive gaussians,   229 cartesian basis functions
    27 alpha electrons       27 beta electrons
       nuclear repulsion energy       141.5298533775 Hartrees.
 IExCor=    0 DFT=F Ex=HF Corr=None ExCW=0 ScaHFX=  1.000000
 ScaDFX=  1.000000  1.000000  1.000000  1.000000 ScalE2=  1.000000  1.000000
 IRadAn=      5 IRanWt=     -1 IRanGd=            0 ICorTp=0
 NAtoms=    5 NActive=    5 NUniq=    5 SFac= 1.00D+00 NAtFMM=   60 NAOKFM=F Big=F
 Leave Link  301 at Sat Nov 16 11:14:50 2019, MaxMem=  268435456 cpu:       0.0
 (Enter /home/matheus/.gaussian/g09/l302.exe)
 NPDir=0 NMtPBC=     1 NCelOv=     1 NCel=       1 NClECP=     1 NCelD=      1
         NCelK=      1 NCelE2=     1 NClLst=     1 CellRange=     0.0.
 One-electron integrals computed using PRISM.
 NBasis=   197 RedAO= T  NBF=   197
 NBsUse=   197 1.00D-06 NBFU=   197
 Leave Link  302 at Sat Nov 16 11:14:50 2019, MaxMem=  268435456 cpu:       0.2
 (Enter /home/matheus/.gaussian/g09/l303.exe)
 DipDrv:  MaxL=1.
 Leave Link  303 at Sat Nov 16 11:14:50 2019, MaxMem=  268435456 cpu:       0.0
 (Enter /home/matheus/.gaussian/g09/l401.exe)
 Initial guess read from the read-write file.
 B after Tr=     0.000000    0.000000    0.000000
         Rot=    1.000000    0.000000    0.000000    0.000000 Ang=   0.00 deg.
 Guess basis will be translated and rotated to current coordinates.
 Initial guess orbital symmetries:
       Occupied  (A) (A) (A) (A) (A) (A) (A) (A) (A) (A) (A) (A)
                 (A) (A) (A) (A) (A) (A) (A) (A) (A) (A) (A) (A)
                 (A) (A) (A)
       Virtual   (A) (A) (A) (A) (A) (A) (A) (A) (A) (A) (A) (A)
                 (A) (A) (A) (A) (A) (A) (A) (A) (A) (A) (A) (A)
                 (A) (A) (A) (A) (A) (A) (A) (A) (A) (A) (A) (A)
                 (A) (A) (A) (A) (A) (A) (A) (A) (A) (A) (A) (A)
                 (A) (A) (A) (A) (A) (A) (A) (A) (A) (A) (A) (A)
                 (A) (A) (A) (A) (A) (A) (A) (A) (A) (A) (A) (A)
                 (A) (A) (A) (A) (A) (A) (A) (A) (A) (A) (A) (A)
                 (A) (A) (A) (A) (A) (A) (A) (A) (A) (A) (A) (A)
                 (A) (A) (A) (A) (A) (A) (A) (A) (A) (A) (A) (A)
                 (A) (A) (A) (A) (A) (A) (A) (A) (A) (A) (A) (A)
                 (A) (A) (A) (A) (A) (A) (A) (A) (A) (A) (A) (A)
                 (A) (A) (A) (A) (A) (A) (A) (A) (A) (A) (A) (A)
                 (A) (A) (A) (A) (A) (A) (A) (A) (A) (A) (A) (A)
                 (A) (A) (A) (A) (A) (A) (A) (A) (A) (A) (A) (A)
                 (A) (A)
 The electronic state of the initial guess is 1-A.
 Generating alternative initial guess.
 Harris functional with IExCor=  205 diagonalized for initial guess.
 ExpMin= 2.53D-02 ExpMax= 1.17D+07 ExpMxC= 1.33D+04 IAcc=3 IRadAn=         5 AccDes= 0.00D+00
 HarFok:  IExCor=  205 AccDes= 0.00D+00 IRadAn=         5 IDoV= 1
 ScaDFX=  1.000000  1.000000  1.000000  1.000000
 FoFCou: FMM=F IPFlag=           0 FMFlag=      100000 FMFlg1=           0
         NFxFlg=           0 DoJE=T BraDBF=F KetDBF=T FulRan=T
         Omega=  0.000000  0.000000  1.000000  0.000000  0.000000 ICntrl=     500 IOpCl=  0
         NMat0=    1 NMatS0=    1 NMatT0=    0 NMatD0=    1 NMtDS0=    0 NMtDT0=    0
         I1Cent=           4 NGrid=           0.
 Petite list used in FoFCou.
 Harris En= -2901.92833484533    
 Leave Link  401 at Sat Nov 16 11:14:51 2019, MaxMem=  268435456 cpu:       1.3
 (Enter /home/matheus/.gaussian/g09/l502.exe)
 Closed shell SCF:
 Requested convergence on RMS density matrix=1.00D-08 within 128 cycles.
 Requested convergence on MAX density matrix=1.00D-06.
 Requested convergence on             energy=1.00D-06.
 No special actions if energy rises.
 Using DIIS extrapolation, IDIIS=  1040.
 Integral symmetry usage will be decided dynamically.
 IEnd=      178489 IEndB=      178489 NGot=   268435456 MDV=   268326278
 LenX=   268326278 LenY=   268273396
 Fock matrices will be formed incrementally for  20 cycles.

 Cycle   1  Pass 0  IDiag  1:
 FoFCou: FMM=F IPFlag=           0 FMFlag=      100000 FMFlg1=           0
         NFxFlg=           0 DoJE=F BraDBF=F KetDBF=F FulRan=T
         Omega=  0.000000  0.000000  1.000000  0.000000  0.000000 ICntrl=       0 IOpCl=  0
         NMat0=    1 NMatS0=    1 NMatT0=    0 NMatD0=    1 NMtDS0=    0 NMtDT0=    0
         I1Cent=           0 NGrid=           0.
 Symmetry not used in FoFCou.
 E= -2902.87639237837    
 DIIS: error= 7.50D-04 at cycle   1 NSaved=   1.
 NSaved= 1 IEnMin= 1 EnMin= -2902.87639237837     IErMin= 1 ErrMin= 7.50D-04
 ErrMax= 7.50D-04 EMaxC= 1.00D-01 BMatC= 5.96D-05 BMatP= 5.96D-05
 IDIUse=3 WtCom= 9.92D-01 WtEn= 7.50D-03
 Coeff-Com:  0.100D+01
 Coeff-En:   0.100D+01
 Coeff:      0.100D+01
 Gap=     0.496 Goal=   None    Shift=    0.000
 RMSDP=5.91D-05 MaxDP=1.56D-03              OVMax= 2.92D-03

 Cycle   2  Pass 0  IDiag  1:
 RMSU=  4.18D-05    CP:  1.00D+00
 E= -2902.87646261409     Delta-E=       -0.000070235724 Rises=F Damp=F
 DIIS: error= 1.27D-04 at cycle   2 NSaved=   2.
 NSaved= 2 IEnMin= 2 EnMin= -2902.87646261409     IErMin= 2 ErrMin= 1.27D-04
 ErrMax= 1.27D-04 EMaxC= 1.00D-01 BMatC= 1.63D-06 BMatP= 5.96D-05
 IDIUse=3 WtCom= 9.99D-01 WtEn= 1.27D-03
 Coeff-Com: -0.940D-01 0.109D+01
 Coeff-En:   0.000D+00 0.100D+01
 Coeff:     -0.938D-01 0.109D+01
 Gap=     0.494 Goal=   None    Shift=    0.000
 RMSDP=1.09D-05 MaxDP=3.39D-04 DE=-7.02D-05 OVMax= 6.69D-04

 Cycle   3  Pass 0  IDiag  1:
 RMSU=  5.14D-06    CP:  1.00D+00  1.14D+00
 E= -2902.87646532465     Delta-E=       -0.000002710558 Rises=F Damp=F
 DIIS: error= 3.42D-05 at cycle   3 NSaved=   3.
 NSaved= 3 IEnMin= 3 EnMin= -2902.87646532465     IErMin= 3 ErrMin= 3.42D-05
 ErrMax= 3.42D-05 EMaxC= 1.00D-01 BMatC= 1.60D-07 BMatP= 1.63D-06
 IDIUse=1 WtCom= 1.00D+00 WtEn= 0.00D+00
 Coeff-Com: -0.330D-01 0.193D+00 0.840D+00
 Coeff:     -0.330D-01 0.193D+00 0.840D+00
 Gap=     0.494 Goal=   None    Shift=    0.000
 RMSDP=2.29D-06 MaxDP=5.21D-05 DE=-2.71D-06 OVMax= 1.28D-04

 Initial convergence to 1.0D-05 achieved.  Increase integral accuracy.
 Cycle   4  Pass 1  IDiag  1:
 E= -2902.87646551249     Delta-E=       -0.000000187838 Rises=F Damp=F
 DIIS: error= 1.06D-05 at cycle   1 NSaved=   1.
 NSaved= 1 IEnMin= 1 EnMin= -2902.87646551249     IErMin= 1 ErrMin= 1.06D-05
 ErrMax= 1.06D-05 EMaxC= 1.00D-01 BMatC= 1.51D-08 BMatP= 1.51D-08
 IDIUse=1 WtCom= 1.00D+00 WtEn= 0.00D+00
 Coeff-Com:  0.100D+01
 Coeff:      0.100D+01
 Gap=     0.494 Goal=   None    Shift=    0.000
 RMSDP=2.29D-06 MaxDP=5.21D-05 DE=-1.88D-07 OVMax= 6.73D-05

 Cycle   5  Pass 1  IDiag  1:
 RMSU=  6.05D-07    CP:  1.00D+00
 E= -2902.87646553832     Delta-E=       -0.000000025831 Rises=F Damp=F
 DIIS: error= 5.10D-06 at cycle   2 NSaved=   2.
 NSaved= 2 IEnMin= 2 EnMin= -2902.87646553832     IErMin= 2 ErrMin= 5.10D-06
 ErrMax= 5.10D-06 EMaxC= 1.00D-01 BMatC= 3.74D-09 BMatP= 1.51D-08
 IDIUse=1 WtCom= 1.00D+00 WtEn= 0.00D+00
 Coeff-Com:  0.200D+00 0.800D+00
 Coeff:      0.200D+00 0.800D+00
 Gap=     0.494 Goal=   None    Shift=    0.000
 RMSDP=2.49D-07 MaxDP=5.99D-06 DE=-2.58D-08 OVMax= 2.20D-05

 Cycle   6  Pass 1  IDiag  1:
 RMSU=  1.44D-07    CP:  1.00D+00  1.17D+00
 E= -2902.87646554322     Delta-E=       -0.000000004898 Rises=F Damp=F
 DIIS: error= 2.20D-06 at cycle   3 NSaved=   3.
 NSaved= 3 IEnMin= 3 EnMin= -2902.87646554322     IErMin= 3 ErrMin= 2.20D-06
 ErrMax= 2.20D-06 EMaxC= 1.00D-01 BMatC= 6.47D-10 BMatP= 3.74D-09
 IDIUse=1 WtCom= 1.00D+00 WtEn= 0.00D+00
 Coeff-Com: -0.255D+00-0.111D+00 0.137D+01
 Coeff:     -0.255D+00-0.111D+00 0.137D+01
 Gap=     0.494 Goal=   None    Shift=    0.000
 RMSDP=2.54D-07 MaxDP=7.96D-06 DE=-4.90D-09 OVMax= 2.38D-05

 Cycle   7  Pass 1  IDiag  1:
 RMSU=  7.76D-08    CP:  1.00D+00  1.43D+00  1.25D+00
 E= -2902.87646554506     Delta-E=       -0.000000001837 Rises=F Damp=F
 DIIS: error= 4.05D-07 at cycle   4 NSaved=   4.
 NSaved= 4 IEnMin= 4 EnMin= -2902.87646554506     IErMin= 4 ErrMin= 4.05D-07
 ErrMax= 4.05D-07 EMaxC= 1.00D-01 BMatC= 2.95D-11 BMatP= 6.47D-10
 IDIUse=1 WtCom= 1.00D+00 WtEn= 0.00D+00
 Coeff-Com: -0.353D-01-0.363D-01 0.164D+00 0.908D+00
 Coeff:     -0.353D-01-0.363D-01 0.164D+00 0.908D+00
 Gap=     0.494 Goal=   None    Shift=    0.000
 RMSDP=4.00D-08 MaxDP=1.28D-06 DE=-1.84D-09 OVMax= 3.10D-06

 Cycle   8  Pass 1  IDiag  1:
 RMSU=  1.42D-08    CP:  1.00D+00  1.43D+00  1.24D+00  1.31D+00
 E= -2902.87646554511     Delta-E=       -0.000000000056 Rises=F Damp=F
 DIIS: error= 2.41D-07 at cycle   5 NSaved=   5.
 NSaved= 5 IEnMin= 5 EnMin= -2902.87646554511     IErMin= 5 ErrMin= 2.41D-07
 ErrMax= 2.41D-07 EMaxC= 1.00D-01 BMatC= 8.74D-12 BMatP= 2.95D-11
 IDIUse=1 WtCom= 1.00D+00 WtEn= 0.00D+00
 Coeff-Com:  0.670D-01 0.242D-01-0.365D+00 0.228D+00 0.105D+01
 Coeff:      0.670D-01 0.242D-01-0.365D+00 0.228D+00 0.105D+01
 Gap=     0.494 Goal=   None    Shift=    0.000
 RMSDP=2.99D-08 MaxDP=6.81D-07 DE=-5.64D-11 OVMax= 2.47D-06

 Cycle   9  Pass 1  IDiag  1:
 RMSU=  6.87D-09    CP:  1.00D+00  1.43D+00  1.23D+00  1.57D+00  1.20D+00
 E= -2902.87646554513     Delta-E=       -0.000000000016 Rises=F Damp=F
 DIIS: error= 8.58D-08 at cycle   6 NSaved=   6.
 NSaved= 6 IEnMin= 6 EnMin= -2902.87646554513     IErMin= 6 ErrMin= 8.58D-08
 ErrMax= 8.58D-08 EMaxC= 1.00D-01 BMatC= 5.20D-13 BMatP= 8.74D-12
 IDIUse=1 WtCom= 1.00D+00 WtEn= 0.00D+00
 Coeff-Com: -0.111D-01-0.613D-03 0.603D-01-0.120D+00-0.201D+00 0.127D+01
[...]
      2      2  O        0   0.000000          0.000000         -0.725000
      3      3  H        0   0.159534          0.904763          1.023510
      4      4  H        0   0.000000          0.918721         -1.023510
      5      5  Kr       0   0.000000          5.000000          0.000000
 ---------------------------------------------------------------------------------------------------
                         Z-Matrix orientation:                         
 ---------------------------------------------------------------------
 Center     Atomic      Atomic             Coordinates (Angstroms)
 Number     Number       Type             X           Y           Z
 ---------------------------------------------------------------------
      1          8           0        0.000000    0.000000    0.725000
      2          8           0        0.000000    0.000000   -0.725000
      3          1           0        0.159534    0.904763    1.023510
      4          1           0        0.000000    0.918721   -1.023510
      5         36           0        0.000000    5.000000    0.000000
 ---------------------------------------------------------------------
                    Distance matrix (angstroms):
                    1          2          3          4          5
     1  O    0.000000
     2  O    1.450000   0.000000
     3  H    0.966000   1.975180   0.000000
     4  H    1.975180   0.966000   2.053275   0.000000
     5  Kr   5.052289   5.052289   4.224215   4.207661   0.000000
 Stoichiometry    H2KrO2
 Framework group  C1[X(H2KrO2)]
 Deg. of freedom     9
 Full point group                 C1      NOp   1
 RotChk:  IX=0 Diff= 2.65D-05
 Largest Abelian subgroup         C1      NOp   1
 Largest concise Abelian subgroup C1      NOp   1
                         Standard orientation:                         
 ---------------------------------------------------------------------
 Center     Atomic      Atomic             Coordinates (Angstroms)
 Number     Number       Type             X           Y           Z
 ---------------------------------------------------------------------
      1          8           0        3.367132   -0.724620   -0.018811
      2          8           0        3.367057    0.725204    0.003769
      3          1           0        2.462602   -1.025644    0.137283
      4          1           0        2.448321    1.023611    0.009663
      5         36           0       -1.632901   -0.000073   -0.000739
 ---------------------------------------------------------------------
 Rotational constants (GHZ):     26.6672245      0.8514319      0.8251523
 Leave Link  202 at Sat Nov 16 15:10:24 2019, MaxMem=  268435456 cpu:       0.0
 (Enter /home/matheus/.gaussian/g09/l301.exe)
 Standard basis: Aug-CC-pVTZ (5D, 7F)
 Ernie: Thresh=  0.10000D-02 Tol=  0.10000D-05 Strict=F.
 Ernie:  38 primitive shells out of 205 were deleted.
 There are   197 symmetry adapted basis functions of A   symmetry.
 Integral buffers will be    131072 words long.
 Raffenetti 1 integral format.
 Two-electron integral symmetry is turned on.
   197 basis functions,   415 primitive gaussians,   229 cartesian basis functions
    27 alpha electrons       27 beta electrons
       nuclear repulsion energy       106.0336057185 Hartrees.
 IExCor=    0 DFT=F Ex=HF Corr=None ExCW=0 ScaHFX=  1.000000
 ScaDFX=  1.000000  1.000000  1.000000  1.000000 ScalE2=  1.000000  1.000000
 IRadAn=      5 IRanWt=     -1 IRanGd=            0 ICorTp=0
 NAtoms=    5 NActive=    5 NUniq=    5 SFac= 1.00D+00 NAtFMM=   60 NAOKFM=F Big=F
 Leave Link  301 at Sat Nov 16 15:10:24 2019, MaxMem=  268435456 cpu:       0.1
 (Enter /home/matheus/.gaussian/g09/l302.exe)
 NPDir=0 NMtPBC=     1 NCelOv=     1 NCel=       1 NClECP=     1 NCelD=      1
         NCelK=      1 NCelE2=     1 NClLst=     1 CellRange=     0.0.
 One-electron integrals computed using PRISM.
 NBasis=   197 RedAO= T  NBF=   197
 NBsUse=   197 1.00D-06 NBFU=   197
 Leave Link  302 at Sat Nov 16 15:10:24 2019, MaxMem=  268435456 cpu:       0.3
 (Enter /home/matheus/.gaussian/g09/l303.exe)
 DipDrv:  MaxL=1.
 Leave Link  303 at Sat Nov 16 15:10:24 2019, MaxMem=  268435456 cpu:       0.1
 (Enter /home/matheus/.gaussian/g09/l401.exe)
 Initial guess read from the read-write file.
 B after Tr=     0.000000    0.000000    0.000000
         Rot=    1.000000    0.000000    0.000000    0.000000 Ang=   0.00 deg.
 Guess basis will be translated and rotated to current coordinates.
 Initial guess orbital symmetries:
       Occupied  (A) (A) (A) (A) (A) (A) (A) (A) (A) (A) (A) (A)
                 (A) (A) (A) (A) (A) (A) (A) (A) (A) (A) (A) (A)
                 (A) (A) (A)
       Virtual   (A) (A) (A) (A) (A) (A) (A) (A) (A) (A) (A) (A)
                 (A) (A) (A) (A) (A) (A) (A) (A) (A) (A) (A) (A)
                 (A) (A) (A) (A) (A) (A) (A) (A) (A) (A) (A) (A)
                 (A) (A) (A) (A) (A) (A) (A) (A) (A) (A) (A) (A)
                 (A) (A) (A) (A) (A) (A) (A) (A) (A) (A) (A) (A)
                 (A) (A) (A) (A) (A) (A) (A) (A) (A) (A) (A) (A)
                 (A) (A) (A) (A) (A) (A) (A) (A) (A) (A) (A) (A)
                 (A) (A) (A) (A) (A) (A) (A) (A) (A) (A) (A) (A)
                 (A) (A) (A) (A) (A) (A) (A) (A) (A) (A) (A) (A)
                 (A) (A) (A) (A) (A) (A) (A) (A) (A) (A) (A) (A)
                 (A) (A) (A) (A) (A) (A) (A) (A) (A) (A) (A) (A)
                 (A) (A) (A) (A) (A) (A) (A) (A) (A) (A) (A) (A)
                 (A) (A) (A) (A) (A) (A) (A) (A) (A) (A) (A) (A)
                 (A) (A) (A) (A) (A) (A) (A) (A) (A) (A) (A) (A)
                 (A) (A)
 The electronic state of the initial guess is 1-A.
 Generating alternative initial guess.
 Harris functional with IExCor=  205 diagonalized for initial guess.
 ExpMin= 2.53D-02 ExpMax= 1.17D+07 ExpMxC= 1.33D+04 IAcc=3 IRadAn=         5 AccDes= 0.00D+00
 HarFok:  IExCor=  205 AccDes= 0.00D+00 IRadAn=         5 IDoV= 1
 ScaDFX=  1.000000  1.000000  1.000000  1.000000
 FoFCou: FMM=F IPFlag=           0 FMFlag=      100000 FMFlg1=           0
         NFxFlg=           0 DoJE=T BraDBF=F KetDBF=T FulRan=T
         Omega=  0.000000  0.000000  1.000000  0.000000  0.000000 ICntrl=     500 IOpCl=  0
         NMat0=    1 NMatS0=    1 NMatT0=    0 NMatD0=    1 NMtDS0=    0 NMtDT0=    0
         I1Cent=           4 NGrid=           0.
 Petite list used in FoFCou.
 Harris En= -2901.93039423423    
 Leave Link  401 at Sat Nov 16 15:10:25 2019, MaxMem=  268435456 cpu:       1.4
 (Enter /home/matheus/.gaussian/g09/l502.exe)
 Closed shell SCF:
 Requested convergence on RMS density matrix=1.00D-08 within 128 cycles.
 Requested convergence on MAX density matrix=1.00D-06.
 Requested convergence on             energy=1.00D-06.
 No special actions if energy rises.
 Using DIIS extrapolation, IDIIS=  1040.
 Integral symmetry usage will be decided dynamically.
 IEnd=      178489 IEndB=      178489 NGot=   268435456 MDV=   268326278
 LenX=   268326278 LenY=   268273396
 Fock matrices will be formed incrementally for  20 cycles.

 Cycle   1  Pass 0  IDiag  1:
 FoFCou: FMM=F IPFlag=           0 FMFlag=      100000 FMFlg1=           0
         NFxFlg=           0 DoJE=F BraDBF=F KetDBF=F FulRan=T
         Omega=  0.000000  0.000000  1.000000  0.000000  0.000000 ICntrl=       0 IOpCl=  0
         NMat0=    1 NMatS0=    1 NMatT0=    0 NMatD0=    1 NMtDS0=    0 NMtDT0=    0
         I1Cent=           0 NGrid=           0.
 Symmetry not used in FoFCou.
 E= -2902.88021926159    
 DIIS: error= 6.24D-05 at cycle   1 NSaved=   1.
 NSaved= 1 IEnMin= 1 EnMin= -2902.88021926159     IErMin= 1 ErrMin= 6.24D-05
 ErrMax= 6.24D-05 EMaxC= 1.00D-01 BMatC= 8.02D-07 BMatP= 8.02D-07
 IDIUse=1 WtCom= 1.00D+00 WtEn= 0.00D+00
 Coeff-Com:  0.100D+01
 Coeff:      0.100D+01
 Gap=     0.494 Goal=   None    Shift=    0.000
 RMSDP=1.30D-05 MaxDP=2.86D-04              OVMax= 4.51D-04

 Cycle   2  Pass 0  IDiag  1:
 RMSU=  9.21D-06    CP:  1.00D+00
 E= -2902.88022016633     Delta-E=       -0.000000904744 Rises=F Damp=F
 DIIS: error= 1.82D-05 at cycle   2 NSaved=   2.
 NSaved= 2 IEnMin= 2 EnMin= -2902.88022016633     IErMin= 2 ErrMin= 1.82D-05
 ErrMax= 1.82D-05 EMaxC= 1.00D-01 BMatC= 2.97D-08 BMatP= 8.02D-07
 IDIUse=1 WtCom= 1.00D+00 WtEn= 0.00D+00
 Coeff-Com:  0.919D-02 0.991D+00
 Coeff:      0.919D-02 0.991D+00
 Gap=     0.494 Goal=   None    Shift=    0.000
 RMSDP=1.54D-06 MaxDP=4.27D-05 DE=-9.05D-07 OVMax= 7.82D-05

 Initial convergence to 1.0D-05 achieved.  Increase integral accuracy.
 Cycle   3  Pass 1  IDiag  1:
 E= -2902.88022020078     Delta-E=       -0.000000034443 Rises=F Damp=F
 DIIS: error= 3.87D-06 at cycle   1 NSaved=   1.
 NSaved= 1 IEnMin= 1 EnMin= -2902.88022020078     IErMin= 1 ErrMin= 3.87D-06
 ErrMax= 3.87D-06 EMaxC= 1.00D-01 BMatC= 1.88D-09 BMatP= 1.88D-09
 IDIUse=1 WtCom= 1.00D+00 WtEn= 0.00D+00
 Coeff-Com:  0.100D+01
 Coeff:      0.100D+01
 Gap=     0.494 Goal=   None    Shift=    0.000
 RMSDP=1.54D-06 MaxDP=4.27D-05 DE=-3.44D-08 OVMax= 3.40D-05

 Cycle   4  Pass 1  IDiag  1:
 RMSU=  2.33D-07    CP:  1.00D+00
 E= -2902.88022020374     Delta-E=       -0.000000002960 Rises=F Damp=F
 DIIS: error= 2.06D-06 at cycle   2 NSaved=   2.
 NSaved= 2 IEnMin= 2 EnMin= -2902.88022020374     IErMin= 2 ErrMin= 2.06D-06
 ErrMax= 2.06D-06 EMaxC= 1.00D-01 BMatC= 2.01D-10 BMatP= 1.88D-09
 IDIUse=1 WtCom= 1.00D+00 WtEn= 0.00D+00
 Coeff-Com:  0.138D+00 0.862D+00
 Coeff:      0.138D+00 0.862D+00
 Gap=     0.494 Goal=   None    Shift=    0.000
 RMSDP=9.00D-08 MaxDP=4.15D-06 DE=-2.96D-09 OVMax= 7.46D-06

 Cycle   5  Pass 1  IDiag  1:
 RMSU=  4.70D-08    CP:  1.00D+00  1.18D+00
 E= -2902.88022020405     Delta-E=       -0.000000000316 Rises=F Damp=F
 DIIS: error= 4.05D-07 at cycle   3 NSaved=   3.
 NSaved= 3 IEnMin= 3 EnMin= -2902.88022020405     IErMin= 3 ErrMin= 4.05D-07
 ErrMax= 4.05D-07 EMaxC= 1.00D-01 BMatC= 2.18D-11 BMatP= 2.01D-10
 IDIUse=1 WtCom= 1.00D+00 WtEn= 0.00D+00
 Coeff-Com: -0.117D+00-0.181D+00 0.130D+01
 Coeff:     -0.117D+00-0.181D+00 0.130D+01
 Gap=     0.494 Goal=   None    Shift=    0.000
 RMSDP=5.86D-08 MaxDP=3.24D-06 DE=-3.16D-10 OVMax= 6.43D-06

 Cycle   6  Pass 1  IDiag  1:
 RMSU=  1.23D-08    CP:  1.00D+00  1.34D+00  1.35D+00
 E= -2902.88022020411     Delta-E=       -0.000000000057 Rises=F Damp=F
 DIIS: error= 9.14D-08 at cycle   4 NSaved=   4.
 NSaved= 4 IEnMin= 4 EnMin= -2902.88022020411     IErMin= 4 ErrMin= 9.14D-08
 ErrMax= 9.14D-08 EMaxC= 1.00D-01 BMatC= 1.37D-12 BMatP= 2.18D-11
 IDIUse=1 WtCom= 1.00D+00 WtEn= 0.00D+00
 Coeff-Com: -0.357D-01-0.699D-01 0.329D+00 0.776D+00
 Coeff:     -0.357D-01-0.699D-01 0.329D+00 0.776D+00
 Gap=     0.494 Goal=   None    Shift=    0.000
 RMSDP=5.56D-09 MaxDP=2.48D-07 DE=-5.73D-11 OVMax= 5.36D-07

 SCF Done:  E(RHF) =  -2902.88022020     A.U. after    6 cycles
             Convg  =    0.5562D-08             -V/T =  2.0001
 KE= 2.902593478632D+03 PE=-7.152245354633D+03 EE= 1.240738050079D+03
 Leave Link  502 at Sat Nov 16 15:10:43 2019, MaxMem=  268435456 cpu:      34.3
 (Enter /home/matheus/.gaussian/g09/l801.exe)
 Windowed orbitals will be sorted by symmetry type.
 ExpMin= 2.53D-02 ExpMax= 1.17D+07 ExpMxC= 1.33D+04 IAcc=3 IRadAn=         5 AccDes= 0.00D+00
 HarFok:  IExCor=  205 AccDes= 0.00D+00 IRadAn=         5 IDoV=-2
 ScaDFX=  1.000000  1.000000  1.000000  1.000000
 DSYEVD returned Info=          93 IAlg= 4 N=    46 NDim=    46 NE2=     4547561 trying DSYEV.
 DSYEVD returned Info=          89 IAlg= 4 N=    59 NDim=    59 NE2=     4547561 trying DSYEV.
 Largest valence mixing into a core orbital is  1.48D-04
 Largest core mixing into a valence orbital is  2.65D-05
 Range of M.O.s used for correlation:    12   197
 NBasis=   197 NAE=    27 NBE=    27 NFC=    11 NFV=     0
 NROrb=    186 NOA=    16 NOB=    16 NVA=   170 NVB=   170

 **** Warning!!: The largest alpha MO coefficient is  0.18053608D+02

 Leave Link  801 at Sat Nov 16 15:10:43 2019, MaxMem=  268435456 cpu:       0.3
 (Enter /home/matheus/.gaussian/g09/l804.exe)
 Closed-shell transformation, MDV=   268435456 ITran=4 ISComp=1.
 Semi-Direct transformation.
 ModeAB=           4 MOrb=            16 LenV=     267347598
 LASXX=     48528660 LTotXX=    48528660 LenRXX=    97827436
 LTotAB=    49298776 MaxLAS=    72926880 LenRXY=           0
 NonZer=   146356096 LenScr=   220395520 LnRSAI=    72926880
 LnScr1=   110164992 LExtra=           0 Total=    501314828
 MaxDsk=          -1 SrtSym=           T ITran=            4
 DoSDTr:  NPSUse=  2
 JobTyp=0 Pass  1:  I=   1 to  16.
 (rs|ai) integrals will be sorted in core.
 Complete sort for first half transformation.
 First half transformation complete.
 Begin second half transformation for I=  10.
 Complete sort for second half transformation.
 Second half transformation complete.
 SymMOI:  orbitals are not symmetric.
 Spin components of T(2) and E(2):
     alpha-alpha T2 =       0.2558704966D-01 E2=     -0.9849838070D-01
     alpha-beta  T2 =       0.1414493520D+00 E2=     -0.5530173180D+00
     beta-beta   T2 =       0.2558704966D-01 E2=     -0.9849838070D-01
 ANorm=    0.1092073006D+01
 E2 =    -0.7500140794D+00 EUMP2 =    -0.29036302342835D+04
 Leave Link  804 at Sat Nov 16 15:11:08 2019, MaxMem=  268435456 cpu:      46.1
 (Enter /home/matheus/.gaussian/g09/l913.exe)
 CIDS:  MDV=   268435456.
 Frozen-core window:  NFC=  11 NFV=   0.
 IFCWin=0 IBDFC=1 NFBD=     0     0 NFCmp=     0     0 NFFFC=     0     0
 Using DD3R+UMP44R for 1st iteration, S=T.
 Using DD4RQ for 2nd and later iterations.
 Would need an additional       431206676 words for in-memory AO integral storage.
 MP4(SDTQ)
 =========
 DD1Dir will call FoFDir   1 times, MxPair=       272
 NAB=   136 NAA=     0 NBB=     0 NumPrc=  2.
 Integrals replicated using symmetry in FoFDir.
 MinBra= 0 MaxBra= 3 Meth= 1.
 IRaf=       0 NMat= 272 IRICut=     340 DoRegI=T DoRafI=T ISym2E= 2 JSym2E=2.
 MP4(D)= -0.14902864D-01
 MP4(S)= -0.63001639D-02
 MP4(R+Q)=  0.15052308D-01
 T4(AAA)= -0.99193450D-03
 T4(AAB)= -0.13869241D-01
 Time for triples=     1504.08 seconds.
 MP4(T)=   -0.29722352D-01
 E3=       -0.11942621D-01        EUMP3=      -0.29036421769D+04
 E4(DQ)=    0.14944373D-03        UMP4(DQ)=   -0.29036420275D+04
 E4(SDQ)=  -0.61507202D-02        UMP4(SDQ)=  -0.29036483276D+04
 E4(SDTQ)= -0.35873072D-01        UMP4(SDTQ)= -0.29036780500D+04
 VARIATIONAL ENERGIES WITH THE FIRST-ORDER WAVEFUNCTION:
 E(VAR1)=  -0.29035191115D+04     E(CISD,4)=  -0.29035189096D+04
 Largest amplitude= 2.36D-02
 Leave Link  913 at Sat Nov 16 15:24:52 2019, MaxMem=  268435456 cpu:    1593.1
 (Enter /home/matheus/.gaussian/g09/l108.exe)
 Scan completed.

 Summary of the potential surface scan:
   N      R1          SCF          MP2          MP3         MP4DQ       MP4SDQ       MP4SDTQ  
 ----  ---------  -----------  -----------  -----------  -----------  -----------  -----------
    1     3.0000  -2902.86853  -2903.62815  -2903.63907  -2903.63829  -2903.64488  -2903.67590
    2     3.1000  -2902.87211  -2903.63027  -2903.64138  -2903.64070  -2903.64725  -2903.67807
    3     3.2000  -2902.87466  -2903.63157  -2903.64284  -2903.64225  -2903.64876  -2903.67941
    4     3.3000  -2902.87647  -2903.63230  -2903.64369  -2903.64317  -2903.64966  -2903.68016
    5     3.4000  -2902.87773  -2903.63264  -2903.64413  -2903.64367  -2903.65013  -2903.68051
    6     3.5000  -2902.87861  -2903.63272  -2903.64429  -2903.64389  -2903.65032  -2903.68059
    7     3.6000  -2902.87921  -2903.63263  -2903.64427  -2903.64391  -2903.65032  -2903.68050
    8     3.7000  -2902.87962  -2903.63245  -2903.64414  -2903.64382  -2903.65022  -2903.68032
    9     3.8000  -2902.87988  -2903.63222  -2903.64396  -2903.64367  -2903.65005  -2903.68008
   10     3.9000  -2902.88006  -2903.63198  -2903.64374  -2903.64348  -2903.64985  -2903.67983
   11     4.0000  -2902.88016  -2903.63173  -2903.64353  -2903.64329  -2903.64965  -2903.67958
   12     4.1000  -2902.88023  -2903.63150  -2903.64332  -2903.64310  -2903.64945  -2903.67934
   13     4.2000  -2902.88026  -2903.63128  -2903.64313  -2903.64293  -2903.64926  -2903.67912
   14     4.3000  -2902.88028  -2903.63109  -2903.64296  -2903.64277  -2903.64909  -2903.67892
   15     4.4000  -2902.88028  -2903.63092  -2903.64280  -2903.64262  -2903.64894  -2903.67875
   16     4.5000  -2902.88028  -2903.63077  -2903.64266  -2903.64249  -2903.64881  -2903.67859
   17     4.6000  -2902.88027  -2903.63063  -2903.64254  -2903.64237  -2903.64869  -2903.67845
   18     4.7000  -2902.88026  -2903.63051  -2903.64243  -2903.64227  -2903.64858  -2903.67833
   19     4.8000  -2902.88024  -2903.63041  -2903.64234  -2903.64218  -2903.64849  -2903.67823
   20     4.9000  -2902.88023  -2903.63032  -2903.64225  -2903.64210  -2903.64840  -2903.67813
   21     5.0000  -2902.88022  -2903.63023  -2903.64218  -2903.64203  -2903.64833  -2903.67805
 ----  ---------  -----------  -----------  -----------  -----------  -----------  -----------
  
 Leave Link  108 at Sat Nov 16 15:24:53 2019, MaxMem=  268435456 cpu:       0.5
 (Enter /home/matheus/.gaussian/g09/l9999.exe)
 1\1\GINC-REDGIANT\Scan\RMP4SDTQ-FC\Aug-CC-pVTZ\H2Kr1O2\MATHEUS\16-Nov-
 2019\1\\#p mp4/aug-cc-PVTz int=ultrafine Scan\\PTCC\\0,1\O,0,0.,0.,0.7
 25\O,0,0.,0.,-0.725\H,0,0.1595341571,0.9047631646,1.0235104166\H,0,0.,
 0.9187205947,-1.0235104166\Kr,0,0.,R1,0.\\R1=3.,s,20,0.1\\Version=EM64
 L-G09RevC.01\State=1-A\HF=-2902.8685275,-2902.8721084,-2902.8746606,-2
 902.8764655,-2902.8777308,-2902.8786086,-2902.8792101,-2902.8796157,-2
 902.8798839,-2902.8800565,-2902.8801637,-2902.8802269,-2902.880261,-29
 02.8802763,-2902.8802798,-2902.8802759,-2902.8802676,-2902.8802567,-29
 02.8802446,-2902.8802323,-2902.8802202\MP2=-2903.6281543,-2903.6302684
 ,-2903.6315674,-2903.6322967,-2903.6326359,-2903.6327161,-2903.6326324
 ,-2903.6324525,-2903.6322232,-2903.6319756,-2903.6317297,-2903.6314968
 ,-2903.631283,-2903.6310903,-2903.6309186,-2903.6307663,-2903.6306318,
 -2903.630513,-2903.6304082,-2903.6303158,-2903.6302343\MP3=-2903.63906
 95,-2903.6413831,-2903.6428387,-2903.6436915,-2903.6441287,-2903.64428
 77,-2903.6442681,-2903.6441409,-2903.6439554,-2903.6437445,-2903.64352
 95,-2903.6433228,-2903.6431312,-2903.6429573,-2903.6428017,-2903.64266
 33,-2903.6425406,-2903.6424321,-2903.6423362,-2903.6422516,-2903.64217
 69\MP4D=-2903.6539832,-2903.6562969,-2903.6577528,-2903.6586055,-2903.
 6590422,-2903.6592003,-2903.6591797,-2903.6590514,-2903.6588648,-2903.
 6586531,-2903.6584373,-2903.6582299,-2903.6580377,-2903.6578633,-2903.
 6577071,-2903.6575682,-2903.6574451,-2903.6573361,-2903.6572398,-2903.
 6571548,-2903.6570798\MP4DQ=-2903.638286,-2903.6407021,-2903.6422458,-
 2903.6431735,-2903.6436742,-2903.6438868,-2903.6439123,-2903.6438229,-
 2903.643669,-2903.6434846,-2903.6432915,-2903.6431031,-2903.6429266,-2
 903.6427652,-2903.6426197,-2903.6424897,-2903.6423739,-2903.642271,-29
 03.6421798,-2903.6420989,-2903.6420275\MP4SDQ=-2903.644878,-2903.64725
 15,-2903.6487589,-2903.6496555,-2903.6501293,-2903.6503186,-2903.65032
 37,-2903.6502167,-2903.6500476,-2903.6498499,-2903.6496454,-2903.64944
 72,-2903.6492622,-2903.6490935,-2903.6489419,-2903.6488066,-2903.64868
 63,-2903.6485796,-2903.6484851,-2903.6484015,-2903.6483276\MP4SDTQ=-29
 03.6758961,-2903.6780692,-2903.679406,-2903.6801569,-2903.6805062,-290
 3.6805889,-2903.680503,-2903.6803183,-2903.6800831,-2903.6798294,-2903
 .6795775,-2903.6793391,-2903.6791203,-2903.6789232,-2903.6787476,-2903
 .678592,-2903.6784546,-2903.6783335,-2903.6782267,-2903.6781327,-2903.
 67805\RMSD=6.837e-09,3.760e-09,9.898e-09,7.240e-09,9.002e-09,7.787e-09
 ,6.654e-09,8.985e-09,6.801e-09,5.212e-09,4.100e-09,3.307e-09,2.716e-09
 ,2.247e-09,9.741e-09,7.471e-09,5.758e-09,8.843e-09,7.578e-09,6.453e-09
 ,5.562e-09\PG=C01 [X(H2Kr1O2)]\\@


 REALITY IS FOR PEOPLE WHO CAN'T FACE SCIENCE FICTION.
 Job cpu time:  0 days  9 hours 17 minutes  2.5 seconds.
 File lengths (MBytes):  RWF=   3950 Int=      0 D2E=      0 Chk=      4 Scr=      1
 Normal termination of Gaussian 09 at Sat Nov 16 15:24:54 2019.
