 Entering Gaussian System, Link 0=g09
 Input=/home/matheus/.ptcc/Inputs/H2O2-Kr_9.com
 Output=/home/matheus/.ptcc/Logs-MP4/H2O2-Kr_9.log
 Initial command:
 /home/matheus/.gaussian/g09/l1.exe /home/matheus/.gaussian/g09/scratch/Gau-3240.inp -scrdir=/home/matheus/.gaussian/g09/scratch/
 Entering Link 1 = /home/matheus/.gaussian/g09/l1.exe PID=      3244.
  
 Copyright (c) 1988,1990,1992,1993,1995,1998,2003,2009,2011,
            Gaussian, Inc.  All Rights Reserved.
  
 This is part of the Gaussian(R) 09 program.  It is based on
 the Gaussian(R) 03 system (copyright 2003, Gaussian, Inc.),
 the Gaussian(R) 98 system (copyright 1998, Gaussian, Inc.),
 the Gaussian(R) 94 system (copyright 1995, Gaussian, Inc.),
 the Gaussian 92(TM) system (copyright 1992, Gaussian, Inc.),
 the Gaussian 90(TM) system (copyright 1990, Gaussian, Inc.),
 the Gaussian 88(TM) system (copyright 1988, Gaussian, Inc.),
 the Gaussian 86(TM) system (copyright 1986, Carnegie Mellon
 University), and the Gaussian 82(TM) system (copyright 1983,
 Carnegie Mellon University). Gaussian is a federally registered
 trademark of Gaussian, Inc.
  
 This software contains proprietary and confidential information,
 including trade secrets, belonging to Gaussian, Inc.
  
 This software is provided under written license and may be
 used, copied, transmitted, or stored only in accord with that
 written license.
  
 The following legend is applicable only to US Government
 contracts under FAR:
  
                    RESTRICTED RIGHTS LEGEND
  
 Use, reproduction and disclosure by the US Government is
 subject to restrictions as set forth in subparagraphs (a)
 and (c) of the Commercial Computer Software - Restricted
 Rights clause in FAR 52.227-19.
  
 Gaussian, Inc.
 340 Quinnipiac St., Bldg. 40, Wallingford CT 06492
  
  
 ---------------------------------------------------------------
 Warning -- This program may not be used in any manner that
 competes with the business of Gaussian, Inc. or will provide
 assistance to any competitor of Gaussian, Inc.  The licensee
 of this program is prohibited from giving any competitor of
 Gaussian, Inc. access to this program.  By using this program,
 the user acknowledges that Gaussian, Inc. is engaged in the
 business of creating and licensing software in the field of
 computational chemistry and represents and warrants to the
 licensee that it is not a competitor of Gaussian, Inc. and that
 it will not use this program in any manner prohibited above.
 ---------------------------------------------------------------
  

 Cite this work as:
 Gaussian 09, Revision C.01,
 M. J. Frisch, G. W. Trucks, H. B. Schlegel, G. E. Scuseria, 
 M. A. Robb, J. R. Cheeseman, G. Scalmani, V. Barone, B. Mennucci, 
 G. A. Petersson, H. Nakatsuji, M. Caricato, X. Li, H. P. Hratchian, 
 A. F. Izmaylov, J. Bloino, G. Zheng, J. L. Sonnenberg, M. Hada, 
 M. Ehara, K. Toyota, R. Fukuda, J. Hasegawa, M. Ishida, T. Nakajima, 
 Y. Honda, O. Kitao, H. Nakai, T. Vreven, J. A. Montgomery, Jr., 
 J. E. Peralta, F. Ogliaro, M. Bearpark, J. J. Heyd, E. Brothers, 
 K. N. Kudin, V. N. Staroverov, T. Keith, R. Kobayashi, J. Normand, 
 K. Raghavachari, A. Rendell, J. C. Burant, S. S. Iyengar, J. Tomasi, 
 M. Cossi, N. Rega, J. M. Millam, M. Klene, J. E. Knox, J. B. Cross, 
 V. Bakken, C. Adamo, J. Jaramillo, R. Gomperts, R. E. Stratmann, 
 O. Yazyev, A. J. Austin, R. Cammi, C. Pomelli, J. W. Ochterski, 
 R. L. Martin, K. Morokuma, V. G. Zakrzewski, G. A. Voth, 
 P. Salvador, J. J. Dannenberg, S. Dapprich, A. D. Daniels, 
 O. Farkas, J. B. Foresman, J. V. Ortiz, J. Cioslowski, 
 and D. J. Fox, Gaussian, Inc., Wallingford CT, 2010.
 
 ******************************************
 Gaussian 09:  EM64L-G09RevC.01 23-Sep-2011
                 1-Dec-2019 
 ******************************************
 %mem=2GB
 %nproc=2
 Will use up to    2 processors via shared memory.
 -------------------------------------
 #p mp4/aug-cc-PVTz int=ultrafine Scan
 -------------------------------------
 1/38=1,60=1/1,8;
 2/12=2,17=6,18=5,29=3,40=1/2;
 3/5=16,6=1,7=10,11=9,16=1,25=1,30=1,75=-5/1,2,3;
 4//1;
 5/5=2,38=5/2;
 8/6=4,9=120000,10=1/1,4;
 9/5=5/13;
 6/7=2,8=2,9=2,10=2,18=1/1;
 1/60=1/8(1);
 99/9=1/99;
 2/29=3/2;
 3/5=16,6=1,7=10,11=9,16=1,25=1,30=1,75=-5/1,2,3;
 4/5=5,16=3/1;
 5/5=2,38=5/2;
 8/6=4,9=120000,10=1/1,4;
 9/5=5/13;
 1/60=1/8(-6);
 99/9=1/99;
 Leave Link    1 at Sun Dec  1 14:29:50 2019, MaxMem=  268435456 cpu:       0.0
 (Enter /home/matheus/.gaussian/g09/l101.exe)
 ----
 PTCC
 ----
 Charge =  0 Multiplicity = 1
 Symbolic Z-Matrix:
 O                     0.        0.        0.725 
 O                     0.        0.       -0.725 
 H                     0.91872   0.        1.02351 
 H                     0.        0.91872  -1.02351 
 Kr                    0.       R1        0. 
       Variables:
  R1                    3.     Scan 20    0.1    
 
 NAtoms=      5 NQM=        0 NQMF=       0 NMMI=      5 NMMIF=      0
                NMic=       0 NMicF=      0.
                    Isotopes and Nuclear Properties:
 (Nuclear quadrupole moments (NQMom) in fm**2, nuclear magnetic moments (NMagM)
  in nuclear magnetons)

  Atom         1           2           3           4           5
 IAtWgt=          16          16           1           1          84
 AtmWgt=  15.9949146  15.9949146   1.0078250   1.0078250  83.9115064
 NucSpn=           0           0           1           1           0
 AtZEff=   0.0000000   0.0000000   0.0000000   0.0000000   0.0000000
 NQMom=    0.0000000   0.0000000   0.0000000   0.0000000   0.0000000
 NMagM=    0.0000000   0.0000000   2.7928460   2.7928460   0.0000000
 Leave Link  101 at Sun Dec  1 14:29:50 2019, MaxMem=  268435456 cpu:       0.1
 (Enter /home/matheus/.gaussian/g09/l108.exe)
 Scan the potential surface.
 Variable   Value     No. Steps Step-Size
 -------- ----------- --------- ---------
     1       3.000000      20      0.1000
 A total of     21 points will be computed.
 Leave Link  108 at Sun Dec  1 14:29:50 2019, MaxMem=  268435456 cpu:       0.0
 (Enter /home/matheus/.gaussian/g09/l202.exe)
 ---------------------------------------------------------------------------------------------------
                            Z-MATRIX (ANGSTROMS AND DEGREES)
   CD    Cent   Atom    N1       Length/X        N2       Alpha/Y        N3        Beta/Z          J
 ---------------------------------------------------------------------------------------------------
      1      1  O        0   0.000000          0.000000          0.725000
      2      2  O        0   0.000000          0.000000         -0.725000
      3      3  H        0   0.918721          0.000000          1.023510
      4      4  H        0   0.000000          0.918721         -1.023510
      5      5  Kr       0   0.000000          3.000000          0.000000
 ---------------------------------------------------------------------------------------------------
                         Z-Matrix orientation:                         
 ---------------------------------------------------------------------
 Center     Atomic      Atomic             Coordinates (Angstroms)
 Number     Number       Type             X           Y           Z
 ---------------------------------------------------------------------
      1          8           0        0.000000    0.000000    0.725000
      2          8           0        0.000000    0.000000   -0.725000
      3          1           0        0.918721    0.000000    1.023510
      4          1           0        0.000000    0.918721   -1.023510
      5         36           0        0.000000    3.000000    0.000000
 ---------------------------------------------------------------------
                    Distance matrix (angstroms):
                    1          2          3          4          5
     1  O    0.000000
     2  O    1.450000   0.000000
     3  H    0.966000   1.975180   0.000000
     4  H    1.975180   0.966000   2.424539   0.000000
     5  Kr   3.086361   3.086361   3.300246   2.319331   0.000000
 Stoichiometry    H2KrO2
 Framework group  C1[X(H2KrO2)]
 Deg. of freedom     9
 Full point group                 C1      NOp   1
 Largest Abelian subgroup         C1      NOp   1
 Largest concise Abelian subgroup C1      NOp   1
                         Standard orientation:                         
 ---------------------------------------------------------------------
 Center     Atomic      Atomic             Coordinates (Angstroms)
 Number     Number       Type             X           Y           Z
 ---------------------------------------------------------------------
      1          8           0        2.023612   -0.696492   -0.118952
      2          8           0        2.008959    0.747023    0.017247
      3          1           0        2.043021   -1.079789    0.767536
      4          1           0        1.087415    1.033416    0.060735
      5         36           0       -0.983084   -0.009941   -0.000406
 ---------------------------------------------------------------------
 Rotational constants (GHZ):     25.5933462      2.3453767      2.1627661
 Leave Link  202 at Sun Dec  1 14:29:51 2019, MaxMem=  268435456 cpu:       0.0
 (Enter /home/matheus/.gaussian/g09/l301.exe)
 Standard basis: Aug-CC-pVTZ (5D, 7F)
 Ernie: Thresh=  0.10000D-02 Tol=  0.10000D-05 Strict=F.
 Ernie:  38 primitive shells out of 205 were deleted.
 There are   197 symmetry adapted basis functions of A   symmetry.
 Integral buffers will be    131072 words long.
 Raffenetti 1 integral format.
 Two-electron integral symmetry is turned on.
   197 basis functions,   415 primitive gaussians,   229 cartesian basis functions
    27 alpha electrons       27 beta electrons
       nuclear repulsion energy       149.3716944117 Hartrees.
 IExCor=    0 DFT=F Ex=HF Corr=None ExCW=0 ScaHFX=  1.000000
 ScaDFX=  1.000000  1.000000  1.000000  1.000000 ScalE2=  1.000000  1.000000
 IRadAn=      5 IRanWt=     -1 IRanGd=            0 ICorTp=0
 NAtoms=    5 NActive=    5 NUniq=    5 SFac= 1.00D+00 NAtFMM=   60 NAOKFM=F Big=F
 Leave Link  301 at Sun Dec  1 14:29:51 2019, MaxMem=  268435456 cpu:       0.1
 (Enter /home/matheus/.gaussian/g09/l302.exe)
 NPDir=0 NMtPBC=     1 NCelOv=     1 NCel=       1 NClECP=     1 NCelD=      1
         NCelK=      1 NCelE2=     1 NClLst=     1 CellRange=     0.0.
 One-electron integrals computed using PRISM.
 NBasis=   197 RedAO= T  NBF=   197
 NBsUse=   197 1.00D-06 NBFU=   197
 Leave Link  302 at Sun Dec  1 14:29:51 2019, MaxMem=  268435456 cpu:       0.2
 (Enter /home/matheus/.gaussian/g09/l303.exe)
 DipDrv:  MaxL=1.
 Leave Link  303 at Sun Dec  1 14:29:51 2019, MaxMem=  268435456 cpu:       0.1
 (Enter /home/matheus/.gaussian/g09/l401.exe)
 Harris functional with IExCor=  205 diagonalized for initial guess.
 ExpMin= 2.53D-02 ExpMax= 1.17D+07 ExpMxC= 1.33D+04 IAcc=3 IRadAn=         5 AccDes= 0.00D+00
 HarFok:  IExCor=  205 AccDes= 0.00D+00 IRadAn=         5 IDoV= 1
 ScaDFX=  1.000000  1.000000  1.000000  1.000000
 FoFCou: FMM=F IPFlag=           0 FMFlag=      100000 FMFlg1=           0
         NFxFlg=           0 DoJE=T BraDBF=F KetDBF=T FulRan=T
         Omega=  0.000000  0.000000  1.000000  0.000000  0.000000 ICntrl=     500 IOpCl=  0
         NMat0=    1 NMatS0=    1 NMatT0=    0 NMatD0=    1 NMtDS0=    0 NMtDT0=    0
         I1Cent=           4 NGrid=           0.
 Petite list used in FoFCou.
 Harris En= -2901.93266409096    
 Initial guess orbital symmetries:
       Occupied  (A) (A) (A) (A) (A) (A) (A) (A) (A) (A) (A) (A)
                 (A) (A) (A) (A) (A) (A) (A) (A) (A) (A) (A) (A)
                 (A) (A) (A)
       Virtual   (A) (A) (A) (A) (A) (A) (A) (A) (A) (A) (A) (A)
                 (A) (A) (A) (A) (A) (A) (A) (A) (A) (A) (A) (A)
                 (A) (A) (A) (A) (A) (A) (A) (A) (A) (A) (A) (A)
                 (A) (A) (A) (A) (A) (A) (A) (A) (A) (A) (A) (A)
                 (A) (A) (A) (A) (A) (A) (A) (A) (A) (A) (A) (A)
                 (A) (A) (A) (A) (A) (A) (A) (A) (A) (A) (A) (A)
                 (A) (A) (A) (A) (A) (A) (A) (A) (A) (A) (A) (A)
                 (A) (A) (A) (A) (A) (A) (A) (A) (A) (A) (A) (A)
                 (A) (A) (A) (A) (A) (A) (A) (A) (A) (A) (A) (A)
                 (A) (A) (A) (A) (A) (A) (A) (A) (A) (A) (A) (A)
                 (A) (A) (A) (A) (A) (A) (A) (A) (A) (A) (A) (A)
                 (A) (A) (A) (A) (A) (A) (A) (A) (A) (A) (A) (A)
                 (A) (A) (A) (A) (A) (A) (A) (A) (A) (A) (A) (A)
                 (A) (A) (A) (A) (A) (A) (A) (A) (A) (A) (A) (A)
                 (A) (A)
 The electronic state of the initial guess is 1-A.
 Leave Link  401 at Sun Dec  1 14:29:52 2019, MaxMem=  268435456 cpu:       1.2
 (Enter /home/matheus/.gaussian/g09/l502.exe)
 Closed shell SCF:
 Requested convergence on RMS density matrix=1.00D-08 within 128 cycles.
 Requested convergence on MAX density matrix=1.00D-06.
 Requested convergence on             energy=1.00D-06.
 No special actions if energy rises.
 Using DIIS extrapolation, IDIIS=  1040.
 Integral symmetry usage will be decided dynamically.
 IEnd=      178489 IEndB=      178489 NGot=   268435456 MDV=   268326278
 LenX=   268326278 LenY=   268273396
 Fock matrices will be formed incrementally for  20 cycles.

 Cycle   1  Pass 0  IDiag  1:
 FoFCou: FMM=F IPFlag=           0 FMFlag=      100000 FMFlg1=           0
         NFxFlg=           0 DoJE=F BraDBF=F KetDBF=F FulRan=T
         Omega=  0.000000  0.000000  1.000000  0.000000  0.000000 ICntrl=       0 IOpCl=  0
         NMat0=    1 NMatS0=    1 NMatT0=    0 NMatD0=    1 NMtDS0=    0 NMtDT0=    0
         I1Cent=           0 NGrid=           0.
 Symmetry not used in FoFCou.
 E= -2902.75980413512    
 DIIS: error= 3.84D-02 at cycle   1 NSaved=   1.
 NSaved= 1 IEnMin= 1 EnMin= -2902.75980413512     IErMin= 1 ErrMin= 3.84D-02
 ErrMax= 3.84D-02 EMaxC= 1.00D-01 BMatC= 6.92D-01 BMatP= 6.92D-01
 IDIUse=3 WtCom= 6.16D-01 WtEn= 3.84D-01
 Coeff-Com:  0.100D+01
 Coeff-En:   0.100D+01
 Coeff:      0.100D+01
 Gap=     0.719 Goal=   None    Shift=    0.000
 GapD=    0.719 DampG=2.000 DampE=0.500 DampFc=1.0000 IDamp=-1.
 RMSDP=2.24D-03 MaxDP=1.50D-01              OVMax= 5.24D-02

 Cycle   2  Pass 0  IDiag  1:
 RMSU=  1.56D-03    CP:  1.01D+00
 E= -2902.86457011641     Delta-E=       -0.104765981289 Rises=F Damp=F
 DIIS: error= 7.53D-03 at cycle   2 NSaved=   2.
 NSaved= 2 IEnMin= 2 EnMin= -2902.86457011641     IErMin= 2 ErrMin= 7.53D-03
 ErrMax= 7.53D-03 EMaxC= 1.00D-01 BMatC= 4.03D-02 BMatP= 6.92D-01
 IDIUse=3 WtCom= 9.25D-01 WtEn= 7.53D-02
 Coeff-Com:  0.151D+00 0.849D+00
 Coeff-En:   0.000D+00 0.100D+01
 Coeff:      0.140D+00 0.860D+00
 Gap=     0.547 Goal=   None    Shift=    0.000
 RMSDP=7.97D-04 MaxDP=4.21D-02 DE=-1.05D-01 OVMax= 2.40D-02

 Cycle   3  Pass 0  IDiag  1:
 RMSU=  4.35D-04    CP:  1.01D+00  7.81D-01
 E= -2902.87833462116     Delta-E=       -0.013764504758 Rises=F Damp=F
 DIIS: error= 2.16D-03 at cycle   3 NSaved=   3.
 NSaved= 3 IEnMin= 3 EnMin= -2902.87833462116     IErMin= 3 ErrMin= 2.16D-03
 ErrMax= 2.16D-03 EMaxC= 1.00D-01 BMatC= 2.33D-03 BMatP= 4.03D-02
 IDIUse=3 WtCom= 9.78D-01 WtEn= 2.16D-02
 Coeff-Com: -0.619D-02 0.170D+00 0.836D+00
 Coeff-En:   0.000D+00 0.000D+00 0.100D+01
 Coeff:     -0.606D-02 0.167D+00 0.839D+00
 Gap=     0.530 Goal=   None    Shift=    0.000
 RMSDP=1.25D-04 MaxDP=4.97D-03 DE=-1.38D-02 OVMax= 7.60D-03

 Cycle   4  Pass 0  IDiag  1:
 RMSU=  4.93D-05    CP:  1.01D+00  8.13D-01  8.82D-01
 E= -2902.87946719968     Delta-E=       -0.001132578519 Rises=F Damp=F
 DIIS: error= 3.26D-04 at cycle   4 NSaved=   4.
 NSaved= 4 IEnMin= 4 EnMin= -2902.87946719968     IErMin= 4 ErrMin= 3.26D-04
 ErrMax= 3.26D-04 EMaxC= 1.00D-01 BMatC= 4.88D-05 BMatP= 2.33D-03
 IDIUse=3 WtCom= 9.97D-01 WtEn= 3.26D-03
 Coeff-Com: -0.434D-02 0.104D-01 0.151D+00 0.843D+00
 Coeff-En:   0.000D+00 0.000D+00 0.000D+00 0.100D+01
 Coeff:     -0.433D-02 0.103D-01 0.151D+00 0.843D+00
 Gap=     0.528 Goal=   None    Shift=    0.000
 RMSDP=2.16D-05 MaxDP=7.16D-04 DE=-1.13D-03 OVMax= 1.72D-03

 Cycle   5  Pass 0  IDiag  1:
 RMSU=  1.35D-05    CP:  1.01D+00  8.14D-01  8.98D-01  9.86D-01
 E= -2902.87950937431     Delta-E=       -0.000042174630 Rises=F Damp=F
 DIIS: error= 9.55D-05 at cycle   5 NSaved=   5.
 NSaved= 5 IEnMin= 5 EnMin= -2902.87950937431     IErMin= 5 ErrMin= 9.55D-05
 ErrMax= 9.55D-05 EMaxC= 1.00D-01 BMatC= 3.93D-06 BMatP= 4.88D-05
 IDIUse=1 WtCom= 1.00D+00 WtEn= 0.00D+00
 Coeff-Com:  0.854D-03-0.155D-01-0.743D-01 0.978D-02 0.108D+01
 Coeff:      0.854D-03-0.155D-01-0.743D-01 0.978D-02 0.108D+01
 Gap=     0.527 Goal=   None    Shift=    0.000
 RMSDP=1.14D-05 MaxDP=3.00D-04 DE=-4.22D-05 OVMax= 8.16D-04

 Cycle   6  Pass 0  IDiag  1:
 RMSU=  5.24D-06    CP:  1.01D+00  8.13D-01  8.95D-01  1.07D+00  1.26D+00
 E= -2902.87951559730     Delta-E=       -0.000006222986 Rises=F Damp=F
 DIIS: error= 3.25D-05 at cycle   6 NSaved=   6.
 NSaved= 6 IEnMin= 6 EnMin= -2902.87951559730     IErMin= 6 ErrMin= 3.25D-05
 ErrMax= 3.25D-05 EMaxC= 1.00D-01 BMatC= 3.20D-07 BMatP= 3.93D-06
 IDIUse=1 WtCom= 1.00D+00 WtEn= 0.00D+00
 Coeff-Com:  0.259D-03-0.521D-03-0.110D-01-0.597D-01 0.214D-01 0.105D+01
 Coeff:      0.259D-03-0.521D-03-0.110D-01-0.597D-01 0.214D-01 0.105D+01
 Gap=     0.527 Goal=   None    Shift=    0.000
 RMSDP=3.89D-06 MaxDP=1.38D-04 DE=-6.22D-06 OVMax= 3.92D-04

 Initial convergence to 1.0D-05 achieved.  Increase integral accuracy.
 Cycle   7  Pass 1  IDiag  1:
 E= -2902.87951626404     Delta-E=       -0.000000666744 Rises=F Damp=F
 DIIS: error= 1.58D-05 at cycle   1 NSaved=   1.
 NSaved= 1 IEnMin= 1 EnMin= -2902.87951626404     IErMin= 1 ErrMin= 1.58D-05
 ErrMax= 1.58D-05 EMaxC= 1.00D-01 BMatC= 6.46D-08 BMatP= 6.46D-08
 IDIUse=1 WtCom= 1.00D+00 WtEn= 0.00D+00
 Coeff-Com:  0.100D+01
 Coeff:      0.100D+01
 Gap=     0.527 Goal=   None    Shift=    0.000
 RMSDP=3.89D-06 MaxDP=1.38D-04 DE=-6.67D-07 OVMax= 1.51D-04

 Cycle   8  Pass 1  IDiag  1:
 RMSU=  9.63D-07    CP:  1.00D+00
 E= -2902.87951636481     Delta-E=       -0.000000100773 Rises=F Damp=F
 DIIS: error= 1.11D-05 at cycle   2 NSaved=   2.
 NSaved= 2 IEnMin= 2 EnMin= -2902.87951636481     IErMin= 2 ErrMin= 1.11D-05
 ErrMax= 1.11D-05 EMaxC= 1.00D-01 BMatC= 3.24D-08 BMatP= 6.46D-08
 IDIUse=1 WtCom= 1.00D+00 WtEn= 0.00D+00
 Coeff-Com:  0.361D+00 0.639D+00
 Coeff:      0.361D+00 0.639D+00
 Gap=     0.527 Goal=   None    Shift=    0.000
 RMSDP=6.15D-07 MaxDP=2.57D-05 DE=-1.01D-07 OVMax= 6.76D-05

 Cycle   9  Pass 1  IDiag  1:
 RMSU=  4.09D-07    CP:  1.00D+00  1.15D+00
 E= -2902.87951640006     Delta-E=       -0.000000035247 Rises=F Damp=F
 DIIS: error= 4.45D-06 at cycle   3 NSaved=   3.
 NSaved= 3 IEnMin= 3 EnMin= -2902.87951640006     IErMin= 3 ErrMin= 4.45D-06
 ErrMax= 4.45D-06 EMaxC= 1.00D-01 BMatC= 6.14D-09 BMatP= 3.24D-08
 IDIUse=1 WtCom= 1.00D+00 WtEn= 0.00D+00
 Coeff-Com: -0.528D+00-0.361D+00 0.189D+01
 Coeff:     -0.528D+00-0.361D+00 0.189D+01
 Gap=     0.528 Goal=   None    Shift=    0.000
 RMSDP=1.11D-06 MaxDP=2.24D-05 DE=-3.52D-08 OVMax= 1.55D-04

 Cycle  10  Pass 1  IDiag  1:
 RMSU=  1.33D-07    CP:  1.00D+00  1.85D+00  1.92D+00
 E= -2902.87951642802     Delta-E=       -0.000000027963 Rises=F Damp=F
 DIIS: error= 1.01D-06 at cycle   4 NSaved=   4.
 NSaved= 4 IEnMin= 4 EnMin= -2902.87951642802     IErMin= 4 ErrMin= 1.01D-06
 ErrMax= 1.01D-06 EMaxC= 1.00D-01 BMatC= 3.16D-10 BMatP= 6.14D-09
 IDIUse=1 WtCom= 1.00D+00 WtEn= 0.00D+00
 Coeff-Com:  0.114D+00 0.524D-01-0.472D+00 0.131D+01
 Coeff:      0.114D+00 0.524D-01-0.472D+00 0.131D+01
 Gap=     0.528 Goal=   None    Shift=    0.000
 RMSDP=1.83D-07 MaxDP=4.36D-06 DE=-2.80D-08 OVMax= 2.91D-05

 Cycle  11  Pass 1  IDiag  1:
 RMSU=  4.03D-08    CP:  1.00D+00  1.93D+00  2.04D+00  1.61D+00
 E= -2902.87951642927     Delta-E=       -0.000000001246 Rises=F Damp=F
 DIIS: error= 4.25D-07 at cycle   5 NSaved=   5.
 NSaved= 5 IEnMin= 5 EnMin= -2902.87951642927     IErMin= 5 ErrMin= 4.25D-07
 ErrMax= 4.25D-07 EMaxC= 1.00D-01 BMatC= 6.52D-11 BMatP= 3.16D-10
 IDIUse=1 WtCom= 1.00D+00 WtEn= 0.00D+00
 Coeff-Com:  0.130D+00 0.855D-01-0.475D+00 0.164D+00 0.110D+01
 Coeff:      0.130D+00 0.855D-01-0.475D+00 0.164D+00 0.110D+01
 Gap=     0.528 Goal=   None    Shift=    0.000
 RMSDP=8.23D-08 MaxDP=1.91D-06 DE=-1.25D-09 OVMax= 1.28D-05

 Cycle  12  Pass 1  IDiag  1:
 RMSU=  1.48D-08    CP:  1.00D+00  1.96D+00  2.08D+00  1.94D+00  1.35D+00
 E= -2902.87951642948     Delta-E=       -0.000000000212 Rises=F Damp=F
 DIIS: error= 1.37D-07 at cycle   6 NSaved=   6.
 NSaved= 6 IEnMin= 6 EnMin= -2902.87951642948     IErMin= 6 ErrMin= 1.37D-07
 ErrMax= 1.37D-07 EMaxC= 1.00D-01 BMatC= 4.25D-12 BMatP= 6.52D-11
 IDIUse=1 WtCom= 1.00D+00 WtEn= 0.00D+00
 Coeff-Com: -0.848D-02-0.345D-02 0.352D-01-0.107D+00-0.320D-01 0.112D+01
 Coeff:     -0.848D-02-0.345D-02 0.352D-01-0.107D+00-0.320D-01 0.112D+01
 Gap=     0.528 Goal=   None    Shift=    0.000
 RMSDP=1.90D-08 MaxDP=4.05D-07 DE=-2.12D-10 OVMax= 2.75D-06

 Cycle  13  Pass 1  IDiag  1:
 RMSU=  3.87D-09    CP:  1.00D+00  1.97D+00  2.09D+00  2.00D+00  1.54D+00
                    CP:  1.23D+00
 E= -2902.87951642950     Delta-E=       -0.000000000022 Rises=F Damp=F
 DIIS: error= 3.11D-08 at cycle   7 NSaved=   7.
 NSaved= 7 IEnMin= 7 EnMin= -2902.87951642950     IErMin= 7 ErrMin= 3.11D-08
 ErrMax= 3.11D-08 EMaxC= 1.00D-01 BMatC= 3.39D-13 BMatP= 4.25D-12
 IDIUse=1 WtCom= 1.00D+00 WtEn= 0.00D+00
 Coeff-Com: -0.127D-01-0.797D-02 0.465D-01-0.187D-01-0.123D+00 0.809D-01
 Coeff-Com:  0.104D+01
 Coeff:     -0.127D-01-0.797D-02 0.465D-01-0.187D-01-0.123D+00 0.809D-01
 Coeff:      0.104D+01
 Gap=     0.528 Goal=   None    Shift=    0.000
 RMSDP=4.46D-09 MaxDP=9.54D-08 DE=-2.23D-11 OVMax= 5.47D-07

 SCF Done:  E(RHF) =  -2902.87951643     A.U. after   13 cycles
             Convg  =    0.4456D-08             -V/T =  2.0001
 KE= 2.902635045474D+03 PE=-7.239074090368D+03 EE= 1.284187834053D+03
 Leave Link  502 at Sun Dec  1 14:30:42 2019, MaxMem=  268435456 cpu:      99.0
 (Enter /home/matheus/.gaussian/g09/l801.exe)
 Windowed orbitals will be sorted by symmetry type.
 ExpMin= 2.53D-02 ExpMax= 1.17D+07 ExpMxC= 1.33D+04 IAcc=3 IRadAn=         5 AccDes= 0.00D+00
 HarFok:  IExCor=  205 AccDes= 0.00D+00 IRadAn=         5 IDoV=-2
 ScaDFX=  1.000000  1.000000  1.000000  1.000000
 DSYEVD returned Info=          93 IAlg= 4 N=    46 NDim=    46 NE2=     4547561 trying DSYEV.
 DSYEVD returned Info=          93 IAlg= 4 N=    46 NDim=    46 NE2=     4547561 trying DSYEV.
 DSYEVD returned Info=          89 IAlg= 4 N=    59 NDim=    59 NE2=     4547561 trying DSYEV.
 Largest valence mixing into a core orbital is  1.44D-04
 Largest core mixing into a valence orbital is  2.60D-05
 Range of M.O.s used for correlation:    12   197
 NBasis=   197 NAE=    27 NBE=    27 NFC=    11 NFV=     0
 NROrb=    186 NOA=    16 NOB=    16 NVA=   170 NVB=   170

 **** Warning!!: The largest alpha MO coefficient is  0.14784149D+02

 Leave Link  801 at Sun Dec  1 14:30:42 2019, MaxMem=  268435456 cpu:       0.3
 (Enter /home/matheus/.gaussian/g09/l804.exe)
 Closed-shell transformation, MDV=   268435456 ITran=4 ISComp=1.
 Semi-Direct transformation.
 ModeAB=           2 MOrb=            16 LenV=     267326022
 LASXX=     48528660 LTotXX=    48528660 LenRXX=    48528660
 LTotAB=    49298776 MaxLAS=    78372960 LenRXY=    78372960
 NonZer=    97057320 LenScr=   146313216 LnRSAI=           0
 LnScr1=           0 LExtra=           0 Total=    273214836
 MaxDsk=          -1 SrtSym=           F ITran=            4
 DoSDTr:  NPSUse=  2
 JobTyp=0 Pass  1:  I=   1 to  16.
 (rs|ai) integrals will be sorted in core.
 Complete sort for first half transformation.
 First half transformation complete.
 Begin second half transformation for I=  10.
 Begin second half transformation for I=  10.
 Complete sort for second half transformation.
 Second half transformation complete.
 SymMOI:  orbitals are not symmetric.
 Spin components of T(2) and E(2):
     alpha-alpha T2 =       0.2604075500D-01 E2=     -0.1000917620D+00
     alpha-beta  T2 =       0.1421762778D+00 E2=     -0.5570861954D+00
     beta-beta   T2 =       0.2604075500D-01 E2=     -0.1000917620D+00
 ANorm=    0.1092821023D+01
 E2 =    -0.7572697194D+00 EUMP2 =    -0.29036367861489D+04
 Leave Link  804 at Sun Dec  1 14:31:07 2019, MaxMem=  268435456 cpu:      47.3
 (Enter /home/matheus/.gaussian/g09/l913.exe)
 CIDS:  MDV=   268435456.
 Frozen-core window:  NFC=  11 NFV=   0.
 IFCWin=0 IBDFC=1 NFBD=     0     0 NFCmp=     0     0 NFFFC=     0     0
 Using DD3R+UMP44R for 1st iteration, S=T.
 Using DD4RQ for 2nd and later iterations.
 Would need an additional       431206676 words for in-memory AO integral storage.
 MP4(SDTQ)
 =========
 DD1Dir will call FoFDir   1 times, MxPair=       272
 NAB=   136 NAA=     0 NBB=     0 NumPrc=  2.
 Integrals replicated using symmetry in FoFDir.
 MinBra= 0 MaxBra= 3 Meth= 1.
 IRaf=       0 NMat= 272 IRICut=     340 DoRegI=T DoRafI=T ISym2E= 2 JSym2E=2.
 MP4(D)= -0.14980129D-01
 MP4(S)= -0.65162404D-02
 MP4(R+Q)=  0.15469208D-01
 T4(AAA)= -0.10512890D-02
 T4(AAB)= -0.14243388D-01
 Time for triples=     1356.53 seconds.
 MP4(T)=   -0.30589354D-01
 E3=       -0.11159341D-01        EUMP3=      -0.29036479455D+04
 E4(DQ)=    0.48907860D-03        UMP4(DQ)=   -0.29036474564D+04
 E4(SDQ)=  -0.60271618D-02        UMP4(SDQ)=  -0.29036539727D+04
 E4(SDTQ)= -0.36616516D-01        UMP4(SDTQ)= -0.29036845620D+04
 VARIATIONAL ENERGIES WITH THE FIRST-ORDER WAVEFUNCTION:
 E(VAR1)=  -0.29035229529D+04     E(CISD,4)=  -0.29035223363D+04
 Largest amplitude= 2.21D-02
 Leave Link  913 at Sun Dec  1 14:43:26 2019, MaxMem=  268435456 cpu:    1447.4
 (Enter /home/matheus/.gaussian/g09/l601.exe)
 Copying SCF densities to generalized density rwf, IOpCl= 0 IROHF=0.

 **********************************************************************

            Population analysis using the SCF density.

 **********************************************************************

 Orbital symmetries:
       Occupied  (A) (A) (A) (A) (A) (A) (A) (A) (A) (A) (A) (A)
                 (A) (A) (A) (A) (A) (A) (A) (A) (A) (A) (A) (A)
                 (A) (A) (A)
       Virtual   (A) (A) (A) (A) (A) (A) (A) (A) (A) (A) (A) (A)
                 (A) (A) (A) (A) (A) (A) (A) (A) (A) (A) (A) (A)
                 (A) (A) (A) (A) (A) (A) (A) (A) (A) (A) (A) (A)
                 (A) (A) (A) (A) (A) (A) (A) (A) (A) (A) (A) (A)
                 (A) (A) (A) (A) (A) (A) (A) (A) (A) (A) (A) (A)
                 (A) (A) (A) (A) (A) (A) (A) (A) (A) (A) (A) (A)
                 (A) (A) (A) (A) (A) (A) (A) (A) (A) (A) (A) (A)
                 (A) (A) (A) (A) (A) (A) (A) (A) (A) (A) (A) (A)
                 (A) (A) (A) (A) (A) (A) (A) (A) (A) (A) (A) (A)
                 (A) (A) (A) (A) (A) (A) (A) (A) (A) (A) (A) (A)
                 (A) (A) (A) (A) (A) (A) (A) (A) (A) (A) (A) (A)
                 (A) (A) (A) (A) (A) (A) (A) (A) (A) (A) (A) (A)
                 (A) (A) (A) (A) (A) (A) (A) (A) (A) (A) (A) (A)
                 (A) (A) (A) (A) (A) (A) (A) (A) (A) (A) (A) (A)
                 (A) (A)
 The electronic state is 1-A.
 Alpha  occ. eigenvalues -- -520.17980 -69.91736 -63.02394 -63.02392 -63.02388
 Alpha  occ. eigenvalues --  -20.63084 -20.62790 -10.86402  -8.34623  -8.34601
 Alpha  occ. eigenvalues --   -8.34583  -3.84004  -3.84000  -3.83976  -3.83954
 Alpha  occ. eigenvalues --   -3.83950  -1.46788  -1.21797  -1.17005  -0.74167
 Alpha  occ. eigenvalues --   -0.68862  -0.60400  -0.54543  -0.53939  -0.53380
 Alpha  occ. eigenvalues --   -0.50123  -0.49307
 Alpha virt. eigenvalues --    0.03444   0.04526   0.08822   0.09866   0.11655
 Alpha virt. eigenvalues --    0.12619   0.14469   0.15695   0.17808   0.18823
 Alpha virt. eigenvalues --    0.19077   0.21194   0.22918   0.25706   0.26814
 Alpha virt. eigenvalues --    0.27864   0.28329   0.31014   0.33541   0.35030
 Alpha virt. eigenvalues --    0.35942   0.37679   0.39022   0.41750   0.41999
 Alpha virt. eigenvalues --    0.43994   0.46661   0.51482   0.56809   0.59135
 Alpha virt. eigenvalues --    0.59904   0.65398   0.66248   0.69347   0.73738
 Alpha virt. eigenvalues --    0.76335   0.77610   0.78893   0.81647   0.81881
 Alpha virt. eigenvalues --    0.82414   0.83835   0.86124   0.86798   0.88972
 Alpha virt. eigenvalues --    0.90085   0.91560   0.94042   0.94456   0.96706
 Alpha virt. eigenvalues --    0.98619   0.99264   1.00940   1.02321   1.04584
 Alpha virt. eigenvalues --    1.06097   1.10307   1.14024   1.14732   1.16383
 Alpha virt. eigenvalues --    1.17185   1.22998   1.24534   1.30140   1.30597
 Alpha virt. eigenvalues --    1.32605   1.35815   1.44775   1.47196   1.50192
 Alpha virt. eigenvalues --    1.52567   1.57752   1.60360   1.63026   1.69254
 Alpha virt. eigenvalues --    1.78969   1.84285   1.95821   2.06211   2.10258
 Alpha virt. eigenvalues --    2.13371   2.18138   2.20053   2.26567   2.32813
 Alpha virt. eigenvalues --    2.34172   2.36754   2.38115   2.41524   2.43089
 Alpha virt. eigenvalues --    2.44904   2.46401   2.48599   2.52299   2.53279
 Alpha virt. eigenvalues --    2.56406   2.58035   2.62475   2.63977   2.66757
 Alpha virt. eigenvalues --    2.69073   2.69429   2.69618   2.74206   2.76962
 Alpha virt. eigenvalues --    2.78456   2.80072   2.83328   2.84147   2.89557
 Alpha virt. eigenvalues --    2.93319   2.93615   2.95539   3.03091   3.07621
 Alpha virt. eigenvalues --    3.13008   3.24425   3.31004   3.32451   3.83250
 Alpha virt. eigenvalues --    3.86804   4.09198   4.19694   4.27526   4.34031
 Alpha virt. eigenvalues --    4.37213   4.39598   4.41907   4.48626   4.50102
 Alpha virt. eigenvalues --    4.54729   4.76126   4.80889   4.84694   4.95003
 Alpha virt. eigenvalues --    5.16294   5.21797   5.23686   5.42504   5.44259
 Alpha virt. eigenvalues --    5.48852   5.80187   6.17992   6.38423   6.47284
 Alpha virt. eigenvalues --    6.53311   6.62011   6.64513   6.80758   6.83015
 Alpha virt. eigenvalues --    6.94530   7.16656   7.17898   7.19429   7.22511
 Alpha virt. eigenvalues --    7.24635   7.28115   7.31407   7.34262   7.38608
 Alpha virt. eigenvalues --    7.47834   7.52134   7.61246   7.84155   8.00946
 Alpha virt. eigenvalues --    8.20092   8.50899   8.53528  14.70564  15.33137
          Condensed to atoms (all electrons):
              1          2          3          4          5
     1  O    8.123918  -0.075480   0.244773  -0.010062  -0.021818
     2  O   -0.075480   8.147973   0.002153   0.241131  -0.014064
     3  H    0.244773   0.002153   0.489375   0.000550  -0.002651
     4  H   -0.010062   0.241131   0.000550   0.487257  -0.003618
     5  Kr  -0.021818  -0.014064  -0.002651  -0.003618  36.029649
 Mulliken atomic charges:
              1
     1  O   -0.261331
     2  O   -0.301712
     3  H    0.265799
     4  H    0.284743
     5  Kr   0.012502
 Sum of Mulliken atomic charges =   0.00000
 Mulliken charges with hydrogens summed into heavy atoms:
              1
     1  O    0.004468
     2  O   -0.016970
     5  Kr   0.012502
 Sum of Mulliken charges with hydrogens summed into heavy atoms =   0.00000
 Electronic spatial extent (au):  <R**2>=            484.1325
 Charge=              0.0000 electrons
 Dipole moment (field-independent basis, Debye):
    X=             -1.8020    Y=             -0.3829    Z=              1.5666  Tot=              2.4182
 Quadrupole moment (field-independent basis, Debye-Ang):
   XX=            -34.9945   YY=            -27.8294   ZZ=            -28.8395
   XY=             -2.3599   XZ=              3.3963   YZ=             -1.9257
 Traceless Quadrupole moment (field-independent basis, Debye-Ang):
   XX=             -4.4401   YY=              2.7251   ZZ=              1.7150
   XY=             -2.3599   XZ=              3.3963   YZ=             -1.9257
 Octapole moment (field-independent basis, Debye-Ang**2):
  XXX=            -33.6217  YYY=             -1.0688  ZZZ=              1.3350  XYY=             -4.8763
  XXY=             -7.4343  XXZ=              6.7216  XZZ=             -4.7973  YZZ=             -1.8974
  YYZ=              2.4113  XYZ=             -4.1014
 Hexadecapole moment (field-independent basis, Debye-Ang**3):
 XXXX=           -449.0338 YYYY=            -62.1247 ZZZZ=            -28.8693 XXXY=            -16.2906
 XXXZ=             14.8938 YYYX=             -4.3592 YYYZ=             -2.8396 ZZZX=              3.2746
 ZZZY=             -2.1128 XXYY=            -80.1964 XXZZ=            -70.7192 YYZZ=            -15.4630
 XXYZ=             -8.8503 YYXZ=              4.9563 ZZXY=             -3.7172
 N-N= 1.493716944117D+02 E-N=-7.239074091674D+03  KE= 2.902635045474D+03
 Leave Link  601 at Sun Dec  1 14:43:26 2019, MaxMem=  268435456 cpu:       0.2
 (Enter /home/matheus/.gaussian/g09/l108.exe)
 Variable Step   Value    
 -------- ---- -----------
     1       1    5.858151
 Leave Link  108 at Sun Dec  1 14:43:26 2019, MaxMem=  268435456 cpu:       0.1
 (Enter /home/matheus/.gaussian/g09/l202.exe)
 ---------------------------------------------------------------------------------------------------
                            Z-MATRIX (ANGSTROMS AND DEGREES)
   CD    Cent   Atom    N1       Length/X        N2       Alpha/Y        N3        Beta/Z          J
 ---------------------------------------------------------------------------------------------------
      1      1  O        0   0.000000          0.000000          0.725000
      2      2  O        0   0.000000          0.000000         -0.725000
      3      3  H        0   0.918721          0.000000          1.023510
      4      4  H        0   0.000000          0.918721         -1.023510
      5      5  Kr       0   0.000000          3.100000          0.000000
 ---------------------------------------------------------------------------------------------------
                         Z-Matrix orientation:                         
 ---------------------------------------------------------------------
 Center     Atomic      Atomic             Coordinates (Angstroms)
 Number     Number       Type             X           Y           Z
 ---------------------------------------------------------------------
      1          8           0        0.000000    0.000000    0.725000
      2          8           0        0.000000    0.000000   -0.725000
      3          1           0        0.918721    0.000000    1.023510
      4          1           0        0.000000    0.918721   -1.023510
      5         36           0        0.000000    3.100000    0.000000
 ---------------------------------------------------------------------
                    Distance matrix (angstroms):
                    1          2          3          4          5
     1  O    0.000000
     2  O    1.450000   0.000000
     3  H    0.966000   1.975180   0.000000
     4  H    1.975180   0.966000   2.424539   0.000000
     5  Kr   3.183650   3.183650   3.391404   2.409472   0.000000
 Stoichiometry    H2KrO2
 Framework group  C1[X(H2KrO2)]
 Deg. of freedom     9
 Full point group                 C1      NOp   1
 RotChk:  IX=0 Diff= 1.33D-03
 Largest Abelian subgroup         C1      NOp   1
 Largest concise Abelian subgroup C1      NOp   1
                         Standard orientation:                         
 ---------------------------------------------------------------------
 Center     Atomic      Atomic             Coordinates (Angstroms)
 Number     Number       Type             X           Y           Z
 ---------------------------------------------------------------------
      1          8           0        2.089791   -0.697319   -0.118989
      2          8           0        2.076180    0.746199    0.017285
      3          1           0        2.108426   -1.080682    0.767488
      4          1           0        1.154835    1.033303    0.060294
      5         36           0       -1.016417   -0.009546   -0.000393
 ---------------------------------------------------------------------
 Rotational constants (GHZ):     25.5929020      2.1962691      2.0353398
 Leave Link  202 at Sun Dec  1 14:43:26 2019, MaxMem=  268435456 cpu:       0.0
 (Enter /home/matheus/.gaussian/g09/l301.exe)
 Standard basis: Aug-CC-pVTZ (5D, 7F)
 Ernie: Thresh=  0.10000D-02 Tol=  0.10000D-05 Strict=F.
 Ernie:  38 primitive shells out of 205 were deleted.
 There are   197 symmetry adapted basis functions of A   symmetry.
 Integral buffers will be    131072 words long.
 Raffenetti 1 integral format.
 Two-electron integral symmetry is turned on.
   197 basis functions,   415 primitive gaussians,   229 cartesian basis functions
    27 alpha electrons       27 beta electrons
       nuclear repulsion energy       145.8912957769 Hartrees.
 IExCor=    0 DFT=F Ex=HF Corr=None ExCW=0 ScaHFX=  1.000000
 ScaDFX=  1.000000  1.000000  1.000000  1.000000 ScalE2=  1.000000  1.000000
 IRadAn=      5 IRanWt=     -1 IRanGd=            0 ICorTp=0
 NAtoms=    5 NActive=    5 NUniq=    5 SFac= 1.00D+00 NAtFMM=   60 NAOKFM=F Big=F
 Leave Link  301 at Sun Dec  1 14:43:27 2019, MaxMem=  268435456 cpu:       0.1
 (Enter /home/matheus/.gaussian/g09/l302.exe)
 NPDir=0 NMtPBC=     1 NCelOv=     1 NCel=       1 NClECP=     1 NCelD=      1
         NCelK=      1 NCelE2=     1 NClLst=     1 CellRange=     0.0.
 One-electron integrals computed using PRISM.
 NBasis=   197 RedAO= T  NBF=   197
 NBsUse=   197 1.00D-06 NBFU=   197
 Leave Link  302 at Sun Dec  1 14:43:27 2019, MaxMem=  268435456 cpu:       0.3
 (Enter /home/matheus/.gaussian/g09/l303.exe)
 DipDrv:  MaxL=1.
 Leave Link  303 at Sun Dec  1 14:43:27 2019, MaxMem=  268435456 cpu:       0.1
 (Enter /home/matheus/.gaussian/g09/l401.exe)
 Initial guess read from the read-write file.
 B after Tr=     0.000000    0.000000    0.000000
         Rot=    1.000000    0.000000    0.000000    0.000000 Ang=   0.00 deg.
 Guess basis will be translated and rotated to current coordinates.
 Initial guess orbital symmetries:
       Occupied  (A) (A) (A) (A) (A) (A) (A) (A) (A) (A) (A) (A)
                 (A) (A) (A) (A) (A) (A) (A) (A) (A) (A) (A) (A)
                 (A) (A) (A)
       Virtual   (A) (A) (A) (A) (A) (A) (A) (A) (A) (A) (A) (A)
                 (A) (A) (A) (A) (A) (A) (A) (A) (A) (A) (A) (A)
                 (A) (A) (A) (A) (A) (A) (A) (A) (A) (A) (A) (A)
                 (A) (A) (A) (A) (A) (A) (A) (A) (A) (A) (A) (A)
                 (A) (A) (A) (A) (A) (A) (A) (A) (A) (A) (A) (A)
                 (A) (A) (A) (A) (A) (A) (A) (A) (A) (A) (A) (A)
                 (A) (A) (A) (A) (A) (A) (A) (A) (A) (A) (A) (A)
                 (A) (A) (A) (A) (A) (A) (A) (A) (A) (A) (A) (A)
                 (A) (A) (A) (A) (A) (A) (A) (A) (A) (A) (A) (A)
                 (A) (A) (A) (A) (A) (A) (A) (A) (A) (A) (A) (A)
                 (A) (A) (A) (A) (A) (A) (A) (A) (A) (A) (A) (A)
                 (A) (A) (A) (A) (A) (A) (A) (A) (A) (A) (A) (A)
                 (A) (A) (A) (A) (A) (A) (A) (A) (A) (A) (A) (A)
                 (A) (A) (A) (A) (A) (A) (A) (A) (A) (A) (A) (A)
                 (A) (A)
 The electronic state of the initial guess is 1-A.
 Generating alternative initial guess.
 Harris functional with IExCor=  205 diagonalized for initial guess.
 ExpMin= 2.53D-02 ExpMax= 1.17D+07 ExpMxC= 1.33D+04 IAcc=3 IRadAn=         5 AccDes= 0.00D+00
 HarFok:  IExCor=  205 AccDes= 0.00D+00 IRadAn=         5 IDoV= 1
 ScaDFX=  1.000000  1.000000  1.000000  1.000000
 FoFCou: FMM=F IPFlag=           0 FMFlag=      100000 FMFlg1=           0
         NFxFlg=           0 DoJE=T BraDBF=F KetDBF=T FulRan=T
         Omega=  0.000000  0.000000  1.000000  0.000000  0.000000 ICntrl=     500 IOpCl=  0
         NMat0=    1 NMatS0=    1 NMatT0=    0 NMatD0=    1 NMtDS0=    0 NMtDT0=    0
         I1Cent=           4 NGrid=           0.
 Petite list used in FoFCou.
 Harris En= -2901.93377875092    
 Leave Link  401 at Sun Dec  1 14:43:28 2019, MaxMem=  268435456 cpu:       1.4
 (Enter /home/matheus/.gaussian/g09/l502.exe)
 Closed shell SCF:
 Requested convergence on RMS density matrix=1.00D-08 within 128 cycles.
 Requested convergence on MAX density matrix=1.00D-06.
 Requested convergence on             energy=1.00D-06.
 No special actions if energy rises.
 Using DIIS extrapolation, IDIIS=  1040.
 Integral symmetry usage will be decided dynamically.
 IEnd=      178489 IEndB=      178489 NGot=   268435456 MDV=   268326278
 LenX=   268326278 LenY=   268273396
 Fock matrices will be formed incrementally for  20 cycles.

 Cycle   1  Pass 0  IDiag  1:
 FoFCou: FMM=F IPFlag=           0 FMFlag=      100000 FMFlg1=           0
         NFxFlg=           0 DoJE=F BraDBF=F KetDBF=F FulRan=T
         Omega=  0.000000  0.000000  1.000000  0.000000  0.000000 ICntrl=       0 IOpCl=  0
         NMat0=    1 NMatS0=    1 NMatT0=    0 NMatD0=    1 NMtDS0=    0 NMtDT0=    0
         I1Cent=           0 NGrid=           0.
 Symmetry not used in FoFCou.
 E= -2902.88199976118    
 DIIS: error= 4.82D-04 at cycle   1 NSaved=   1.
 NSaved= 1 IEnMin= 1 EnMin= -2902.88199976118     IErMin= 1 ErrMin= 4.82D-04
 ErrMax= 4.82D-04 EMaxC= 1.00D-01 BMatC= 6.81D-05 BMatP= 6.81D-05
 IDIUse=3 WtCom= 9.95D-01 WtEn= 4.82D-03
 Coeff-Com:  0.100D+01
 Coeff-En:   0.100D+01
 Coeff:      0.100D+01
 Gap=     0.530 Goal=   None    Shift=    0.000
 RMSDP=6.62D-05 MaxDP=2.95D-03              OVMax= 2.85D-03

 Cycle   2  Pass 0  IDiag  1:
 RMSU=  4.68D-05    CP:  1.00D+00
 E= -2902.88207998309     Delta-E=       -0.000080221912 Rises=F Damp=F
 DIIS: error= 7.76D-05 at cycle   2 NSaved=   2.
 NSaved= 2 IEnMin= 2 EnMin= -2902.88207998309     IErMin= 2 ErrMin= 7.76D-05
 ErrMax= 7.76D-05 EMaxC= 1.00D-01 BMatC= 2.38D-06 BMatP= 6.81D-05
 IDIUse=1 WtCom= 1.00D+00 WtEn= 0.00D+00
 Coeff-Com: -0.746D-01 0.107D+01
 Coeff:     -0.746D-01 0.107D+01
 Gap=     0.528 Goal=   None    Shift=    0.000
 RMSDP=1.24D-05 MaxDP=4.81D-04 DE=-8.02D-05 OVMax= 6.43D-04

 Cycle   3  Pass 0  IDiag  1:
 RMSU=  5.98D-06    CP:  1.00D+00  1.14D+00
 E= -2902.88208336320     Delta-E=       -0.000003380109 Rises=F Damp=F
 DIIS: error= 3.29D-05 at cycle   3 NSaved=   3.
 NSaved= 3 IEnMin= 3 EnMin= -2902.88208336320     IErMin= 3 ErrMin= 3.29D-05
 ErrMax= 3.29D-05 EMaxC= 1.00D-01 BMatC= 3.92D-07 BMatP= 2.38D-06
 IDIUse=1 WtCom= 1.00D+00 WtEn= 0.00D+00
 Coeff-Com: -0.442D-01 0.266D+00 0.778D+00
 Coeff:     -0.442D-01 0.266D+00 0.778D+00
 Gap=     0.528 Goal=   None    Shift=    0.000
 RMSDP=2.42D-06 MaxDP=6.87D-05 DE=-3.38D-06 OVMax= 1.55D-04

 Initial convergence to 1.0D-05 achieved.  Increase integral accuracy.
 Cycle   4  Pass 1  IDiag  1:
 E= -2902.88208372296     Delta-E=       -0.000000359759 Rises=F Damp=F
 DIIS: error= 1.00D-05 at cycle   1 NSaved=   1.
 NSaved= 1 IEnMin= 1 EnMin= -2902.88208372296     IErMin= 1 ErrMin= 1.00D-05
 ErrMax= 1.00D-05 EMaxC= 1.00D-01 BMatC= 3.60D-08 BMatP= 3.60D-08
 IDIUse=1 WtCom= 1.00D+00 WtEn= 0.00D+00
 Coeff-Com:  0.100D+01
 Coeff:      0.100D+01
 Gap=     0.528 Goal=   None    Shift=    0.000
 RMSDP=2.42D-06 MaxDP=6.87D-05 DE=-3.60D-07 OVMax= 6.53D-05

 Cycle   5  Pass 1  IDiag  1:
 RMSU=  8.14D-07    CP:  1.00D+00
 E= -2902.88208377133     Delta-E=       -0.000000048366 Rises=F Damp=F
 DIIS: error= 6.07D-06 at cycle   2 NSaved=   2.
 NSaved= 2 IEnMin= 2 EnMin= -2902.88208377133     IErMin= 2 ErrMin= 6.07D-06
 ErrMax= 6.07D-06 EMaxC= 1.00D-01 BMatC= 1.33D-08 BMatP= 3.60D-08
 IDIUse=1 WtCom= 1.00D+00 WtEn= 0.00D+00
 Coeff-Com:  0.315D+00 0.685D+00
 Coeff:      0.315D+00 0.685D+00
 Gap=     0.528 Goal=   None    Shift=    0.000
 RMSDP=3.49D-07 MaxDP=1.29D-05 DE=-4.84D-08 OVMax= 3.57D-05

 Cycle   6  Pass 1  IDiag  1:
 RMSU=  2.39D-07    CP:  1.00D+00  1.08D+00
 E= -2902.88208378447     Delta-E=       -0.000000013147 Rises=F Damp=F
 DIIS: error= 2.51D-06 at cycle   3 NSaved=   3.
 NSaved= 3 IEnMin= 3 EnMin= -2902.88208378447     IErMin= 3 ErrMin= 2.51D-06
 ErrMax= 2.51D-06 EMaxC= 1.00D-01 BMatC= 2.19D-09 BMatP= 1.33D-08
 IDIUse=1 WtCom= 1.00D+00 WtEn= 0.00D+00
 Coeff-Com: -0.326D+00-0.889D-01 0.141D+01
 Coeff:     -0.326D+00-0.889D-01 0.141D+01
 Gap=     0.528 Goal=   None    Shift=    0.000
 RMSDP=4.34D-07 MaxDP=1.19D-05 DE=-1.31D-08 OVMax= 2.89D-05

 Cycle   7  Pass 1  IDiag  1:
 RMSU=  1.03D-07    CP:  1.00D+00  1.41D+00  1.38D+00
 E= -2902.88208378980     Delta-E=       -0.000000005329 Rises=F Damp=F
 DIIS: error= 5.47D-07 at cycle   4 NSaved=   4.
 NSaved= 4 IEnMin= 4 EnMin= -2902.88208378980     IErMin= 4 ErrMin= 5.47D-07
 ErrMax= 5.47D-07 EMaxC= 1.00D-01 BMatC= 1.01D-10 BMatP= 2.19D-09
 IDIUse=1 WtCom= 1.00D+00 WtEn= 0.00D+00
 Coeff-Com: -0.877D-01-0.427D-01 0.298D+00 0.832D+00
 Coeff:     -0.877D-01-0.427D-01 0.298D+00 0.832D+00
 Gap=     0.528 Goal=   None    Shift=    0.000
 RMSDP=5.81D-08 MaxDP=2.01D-06 DE=-5.33D-09 OVMax= 4.36D-06

 Cycle   8  Pass 1  IDiag  1:
 RMSU=  2.68D-08    CP:  1.00D+00  1.43D+00  1.42D+00  1.25D+00
 E= -2902.88208378997     Delta-E=       -0.000000000173 Rises=F Damp=F
 DIIS: error= 2.22D-07 at cycle   5 NSaved=   5.
 NSaved= 5 IEnMin= 5 EnMin= -2902.88208378997     IErMin= 5 ErrMin= 2.22D-07
 ErrMax= 2.22D-07 EMaxC= 1.00D-01 BMatC= 1.56D-11 BMatP= 1.01D-10
 IDIUse=1 WtCom= 1.00D+00 WtEn= 0.00D+00
 Coeff-Com:  0.655D-01 0.290D-01-0.290D+00-0.852D-01 0.128D+01
 Coeff:      0.655D-01 0.290D-01-0.290D+00-0.852D-01 0.128D+01
 Gap=     0.528 Goal=   None    Shift=    0.000
 RMSDP=3.96D-08 MaxDP=9.90D-07 DE=-1.73D-10 OVMax= 3.19D-06

 Cycle   9  Pass 1  IDiag  1:
 RMSU=  1.00D-08    CP:  1.00D+00  1.43D+00  1.42D+00  1.49D+00  1.33D+00
 E= -2902.88208379002     Delta-E=       -0.000000000045 Rises=F Damp=F
 DIIS: error= 5.37D-08 at cycle   6 NSaved=   6.
 NSaved= 6 IEnMin= 6 EnMin= -2902.88208379002     IErMin= 6 ErrMin= 5.37D-08
 ErrMax= 5.37D-08 EMaxC= 1.00D-01 BMatC= 1.03D-12 BMatP= 1.56D-11
 IDIUse=1 WtCom= 1.00D+00 WtEn= 0.00D+00
 Coeff-Com: -0.450D-02 0.704D-03 0.207D-01-0.310D-01-0.179D+00 0.119D+01
 Coeff:     -0.450D-02 0.704D-03 0.207D-01-0.310D-01-0.179D+00 0.119D+01
 Gap=     0.528 Goal=   None    Shift=    0.000
 RMSDP=8.50D-09 MaxDP=1.72D-07 DE=-4.55D-11 OVMax= 1.14D-06

 SCF Done:  E(RHF) =  -2902.88208379     A.U. after    9 cycles
             Convg  =    0.8500D-08             -V/T =  2.0001
 KE= 2.902616276077D+03 PE=-7.232104808624D+03 EE= 1.280715152981D+03
 Leave Link  502 at Sun Dec  1 14:44:04 2019, MaxMem=  268435456 cpu:      70.4
 (Enter /home/matheus/.gaussian/g09/l801.exe)
 Windowed orbitals will be sorted by symmetry type.
 ExpMin= 2.53D-02 ExpMax= 1.17D+07 ExpMxC= 1.33D+04 IAcc=3 IRadAn=         5 AccDes= 0.00D+00
 HarFok:  IExCor=  205 AccDes= 0.00D+00 IRadAn=         5 IDoV=-2
 ScaDFX=  1.000000  1.000000  1.000000  1.000000
 DSYEVD returned Info=          93 IAlg= 4 N=    46 NDim=    46 NE2=     4547561 trying DSYEV.
 Largest valence mixing into a core orbital is  1.44D-04
 Largest core mixing into a valence orbital is  2.60D-05
 Range of M.O.s used for correlation:    12   197
 NBasis=   197 NAE=    27 NBE=    27 NFC=    11 NFV=     0
 NROrb=    186 NOA=    16 NOB=    16 NVA=   170 NVB=   170

 **** Warning!!: The largest alpha MO coefficient is  0.16032749D+02

 Leave Link  801 at Sun Dec  1 14:44:04 2019, MaxMem=  268435456 cpu:       0.3
 (Enter /home/matheus/.gaussian/g09/l804.exe)
 Closed-shell transformation, MDV=   268435456 ITran=4 ISComp=1.
 Semi-Direct transformation.
 ModeAB=           2 MOrb=            16 LenV=     267327190
 LASXX=     48528660 LTotXX=    48528660 LenRXX=    48528660
 LTotAB=    49298776 MaxLAS=    78372960 LenRXY=    78372960
 NonZer=    97057320 LenScr=   146313216 LnRSAI=           0
 LnScr1=           0 LExtra=           0 Total=    273214836
 MaxDsk=          -1 SrtSym=           F ITran=            4
 DoSDTr:  NPSUse=  2
 JobTyp=0 Pass  1:  I=   1 to  16.
 (rs|ai) integrals will be sorted in core.
 Complete sort for first half transformation.
 First half transformation complete.
 Begin second half transformation for I=  10.
 Begin second half transformation for I=  10.
 Complete sort for second half transformation.
 Second half transformation complete.
 SymMOI:  orbitals are not symmetric.
 Spin components of T(2) and E(2):
     alpha-alpha T2 =       0.2596640216D-01 E2=     -0.9983131986D-01
     alpha-beta  T2 =       0.1420839887D+00 E2=     -0.5564943345D+00
     beta-beta   T2 =       0.2596640216D-01 E2=     -0.9983131986D-01
 ANorm=    0.1092710755D+01
 E2 =    -0.7561569742D+00 EUMP2 =    -0.29036382407642D+04
 Leave Link  804 at Sun Dec  1 14:44:31 2019, MaxMem=  268435456 cpu:      50.3
 (Enter /home/matheus/.gaussian/g09/l913.exe)
 CIDS:  MDV=   268435456.
 Frozen-core window:  NFC=  11 NFV=   0.
 IFCWin=0 IBDFC=1 NFBD=     0     0 NFCmp=     0     0 NFFFC=     0     0
 Using DD3R+UMP44R for 1st iteration, S=T.
 Using DD4RQ for 2nd and later iterations.
 Would need an additional       431206676 words for in-memory AO integral storage.
 MP4(SDTQ)
 =========
 DD1Dir will call FoFDir   1 times, MxPair=       272
 NAB=   136 NAA=     0 NBB=     0 NumPrc=  2.
 Integrals replicated using symmetry in FoFDir.
 MinBra= 0 MaxBra= 3 Meth= 1.
 IRaf=       0 NMat= 272 IRICut=     340 DoRegI=T DoRafI=T ISym2E= 2 JSym2E=2.
 MP4(D)= -0.14980082D-01
 MP4(S)= -0.64871754D-02
 MP4(R+Q)=  0.15395423D-01
 T4(AAA)= -0.10412033D-02
 T4(AAB)= -0.14179454D-01
 Time for triples=     1357.43 seconds.
 MP4(T)=   -0.30441314D-01
 E3=       -0.11305172D-01        EUMP3=      -0.29036495459D+04
 E4(DQ)=    0.41534087D-03        UMP4(DQ)=   -0.29036491306D+04
 E4(SDQ)=  -0.60718345D-02        UMP4(SDQ)=  -0.29036556178D+04
 E4(SDTQ)= -0.36513149D-01        UMP4(SDTQ)= -0.29036860591D+04
 VARIATIONAL ENERGIES WITH THE FIRST-ORDER WAVEFUNCTION:
 E(VAR1)=  -0.29035248404D+04     E(CISD,4)=  -0.29035243060D+04
 Largest amplitude= 2.59D-02
 Leave Link  913 at Sun Dec  1 14:56:57 2019, MaxMem=  268435456 cpu:    1454.8
 (Enter /home/matheus/.gaussian/g09/l108.exe)
 Variable Step   Value    
 -------- ---- -----------
     1       2    6.047124
 Leave Link  108 at Sun Dec  1 14:56:58 2019, MaxMem=  268435456 cpu:       0.2
 (Enter /home/matheus/.gaussian/g09/l202.exe)
 ---------------------------------------------------------------------------------------------------
                            Z-MATRIX (ANGSTROMS AND DEGREES)
   CD    Cent   Atom    N1       Length/X        N2       Alpha/Y        N3        Beta/Z          J
 ---------------------------------------------------------------------------------------------------
      1      1  O        0   0.000000          0.000000          0.725000
      2      2  O        0   0.000000          0.000000         -0.725000
      3      3  H        0   0.918721          0.000000          1.023510
      4      4  H        0   0.000000          0.918721         -1.023510
      5      5  Kr       0   0.000000          3.200000          0.000000
 ---------------------------------------------------------------------------------------------------
                         Z-Matrix orientation:                         
 ---------------------------------------------------------------------
 Center     Atomic      Atomic             Coordinates (Angstroms)
 Number     Number       Type             X           Y           Z
 ---------------------------------------------------------------------
      1          8           0        0.000000    0.000000    0.725000
      2          8           0        0.000000    0.000000   -0.725000
      3          1           0        0.918721    0.000000    1.023510
      4          1           0        0.000000    0.918721   -1.023510
      5         36           0        0.000000    3.200000    0.000000
 ---------------------------------------------------------------------
                    Distance matrix (angstroms):
                    1          2          3          4          5
     1  O    0.000000
     2  O    1.450000   0.000000
     3  H    0.966000   1.975180   0.000000
     4  H    1.975180   0.966000   2.424539   0.000000
     5  Kr   3.281101   3.281101   3.483048   2.500362   0.000000
 Stoichiometry    H2KrO2
 Framework group  C1[X(H2KrO2)]
 Deg. of freedom     9
 Full point group                 C1      NOp   1
 RotChk:  IX=0 Diff= 1.22D-03
 Largest Abelian subgroup         C1      NOp   1
 Largest concise Abelian subgroup C1      NOp   1
                         Standard orientation:                         
 ---------------------------------------------------------------------
 Center     Atomic      Atomic             Coordinates (Angstroms)
 Number     Number       Type             X           Y           Z
 ---------------------------------------------------------------------
      1          8           0        2.156021   -0.698078   -0.119024
      2          8           0        2.143344    0.745442    0.017321
      3          1           0        2.173943   -1.081500    0.767442
      4          1           0        1.222176    1.033183    0.059880
      5         36           0       -1.049751   -0.009183   -0.000381
 ---------------------------------------------------------------------
 Rotational constants (GHZ):     25.5925032      2.0609114      1.9185620
 Leave Link  202 at Sun Dec  1 14:56:58 2019, MaxMem=  268435456 cpu:       0.0
 (Enter /home/matheus/.gaussian/g09/l301.exe)
 Standard basis: Aug-CC-pVTZ (5D, 7F)
 Ernie: Thresh=  0.10000D-02 Tol=  0.10000D-05 Strict=F.
 Ernie:  38 primitive shells out of 205 were deleted.
 There are   197 symmetry adapted basis functions of A   symmetry.
 Integral buffers will be    131072 words long.
 Raffenetti 1 integral format.
 Two-electron integral symmetry is turned on.
   197 basis functions,   415 primitive gaussians,   229 cartesian basis functions
    27 alpha electrons       27 beta electrons
       nuclear repulsion energy       142.6124987325 Hartrees.
 IExCor=    0 DFT=F Ex=HF Corr=None ExCW=0 ScaHFX=  1.000000
 ScaDFX=  1.000000  1.000000  1.000000  1.000000 ScalE2=  1.000000  1.000000
 IRadAn=      5 IRanWt=     -1 IRanGd=            0 ICorTp=0
 NAtoms=    5 NActive=    5 NUniq=    5 SFac= 1.00D+00 NAtFMM=   60 NAOKFM=F Big=F
 Leave Link  301 at Sun Dec  1 14:56:58 2019, MaxMem=  268435456 cpu:       0.1
 (Enter /home/matheus/.gaussian/g09/l302.exe)
 NPDir=0 NMtPBC=     1 NCelOv=     1 NCel=       1 NClECP=     1 NCelD=      1
         NCelK=      1 NCelE2=     1 NClLst=     1 CellRange=     0.0.
 One-electron integrals computed using PRISM.
 NBasis=   197 RedAO= T  NBF=   197
 NBsUse=   197 1.00D-06 NBFU=   197
 Leave Link  302 at Sun Dec  1 14:56:58 2019, MaxMem=  268435456 cpu:       0.3
 (Enter /home/matheus/.gaussian/g09/l303.exe)
 DipDrv:  MaxL=1.
 Leave Link  303 at Sun Dec  1 14:56:58 2019, MaxMem=  268435456 cpu:       0.1
 (Enter /home/matheus/.gaussian/g09/l401.exe)
 Initial guess read from the read-write file.
 B after Tr=     0.000000    0.000000    0.000000
         Rot=    1.000000    0.000000    0.000000    0.000000 Ang=   0.00 deg.
 Guess basis will be translated and rotated to current coordinates.
 Initial guess orbital symmetries:
       Occupied  (A) (A) (A) (A) (A) (A) (A) (A) (A) (A) (A) (A)
                 (A) (A) (A) (A) (A) (A) (A) (A) (A) (A) (A) (A)
                 (A) (A) (A)
       Virtual   (A) (A) (A) (A) (A) (A) (A) (A) (A) (A) (A) (A)
                 (A) (A) (A) (A) (A) (A) (A) (A) (A) (A) (A) (A)
                 (A) (A) (A) (A) (A) (A) (A) (A) (A) (A) (A) (A)
                 (A) (A) (A) (A) (A) (A) (A) (A) (A) (A) (A) (A)
                 (A) (A) (A) (A) (A) (A) (A) (A) (A) (A) (A) (A)
                 (A) (A) (A) (A) (A) (A) (A) (A) (A) (A) (A) (A)
                 (A) (A) (A) (A) (A) (A) (A) (A) (A) (A) (A) (A)
                 (A) (A) (A) (A) (A) (A) (A) (A) (A) (A) (A) (A)
                 (A) (A) (A) (A) (A) (A) (A) (A) (A) (A) (A) (A)
                 (A) (A) (A) (A) (A) (A) (A) (A) (A) (A) (A) (A)
                 (A) (A) (A) (A) (A) (A) (A) (A) (A) (A) (A) (A)
                 (A) (A) (A) (A) (A) (A) (A) (A) (A) (A) (A) (A)
                 (A) (A) (A) (A) (A) (A) (A) (A) (A) (A) (A) (A)
                 (A) (A) (A) (A) (A) (A) (A) (A) (A) (A) (A) (A)
                 (A) (A)
 The electronic state of the initial guess is 1-A.
 Generating alternative initial guess.
 Harris functional with IExCor=  205 diagonalized for initial guess.
 ExpMin= 2.53D-02 ExpMax= 1.17D+07 ExpMxC= 1.33D+04 IAcc=3 IRadAn=         5 AccDes= 0.00D+00
 HarFok:  IExCor=  205 AccDes= 0.00D+00 IRadAn=         5 IDoV= 1
 ScaDFX=  1.000000  1.000000  1.000000  1.000000
 FoFCou: FMM=F IPFlag=           0 FMFlag=      100000 FMFlg1=           0
         NFxFlg=           0 DoJE=T BraDBF=F KetDBF=T FulRan=T
         Omega=  0.000000  0.000000  1.000000  0.000000  0.000000 ICntrl=     500 IOpCl=  0
         NMat0=    1 NMatS0=    1 NMatT0=    0 NMatD0=    1 NMtDS0=    0 NMtDT0=    0
         I1Cent=           4 NGrid=           0.
 Petite list used in FoFCou.
 Harris En= -2901.93444083177    
 Leave Link  401 at Sun Dec  1 14:56:59 2019, MaxMem=  268435456 cpu:       1.4
 (Enter /home/matheus/.gaussian/g09/l502.exe)
 Closed shell SCF:
 Requested convergence on RMS density matrix=1.00D-08 within 128 cycles.
 Requested convergence on MAX density matrix=1.00D-06.
 Requested convergence on             energy=1.00D-06.
 No special actions if energy rises.
 Using DIIS extrapolation, IDIIS=  1040.
 Integral symmetry usage will be decided dynamically.
 IEnd=      178489 IEndB=      178489 NGot=   268435456 MDV=   268326278
 LenX=   268326278 LenY=   268273396
 Fock matrices will be formed incrementally for  20 cycles.

 Cycle   1  Pass 0  IDiag  1:
 FoFCou: FMM=F IPFlag=           0 FMFlag=      100000 FMFlg1=           0
         NFxFlg=           0 DoJE=F BraDBF=F KetDBF=F FulRan=T
         Omega=  0.000000  0.000000  1.000000  0.000000  0.000000 ICntrl=       0 IOpCl=  0
         NMat0=    1 NMatS0=    1 NMatT0=    0 NMatD0=    1 NMtDS0=    0 NMtDT0=    0
         I1Cent=           0 NGrid=           0.
 Symmetry not used in FoFCou.
 E= -2902.88384735509    
 DIIS: error= 3.90D-04 at cycle   1 NSaved=   1.
 NSaved= 1 IEnMin= 1 EnMin= -2902.88384735509     IErMin= 1 ErrMin= 3.90D-04
 ErrMax= 3.90D-04 EMaxC= 1.00D-01 BMatC= 5.09D-05 BMatP= 5.09D-05
 IDIUse=3 WtCom= 9.96D-01 WtEn= 3.90D-03
 Coeff-Com:  0.100D+01
 Coeff-En:   0.100D+01
 Coeff:      0.100D+01
 Gap=     0.530 Goal=   None    Shift=    0.000
 RMSDP=5.80D-05 MaxDP=2.07D-03              OVMax= 2.59D-03

 Cycle   2  Pass 0  IDiag  1:
 RMSU=  4.10D-05    CP:  1.00D+00
 E= -2902.88390766247     Delta-E=       -0.000060307377 Rises=F Damp=F
 DIIS: error= 6.86D-05 at cycle   2 NSaved=   2.
 NSaved= 2 IEnMin= 2 EnMin= -2902.88390766247     IErMin= 2 ErrMin= 6.86D-05
 ErrMax= 6.86D-05 EMaxC= 1.00D-01 BMatC= 1.62D-06 BMatP= 5.09D-05
 IDIUse=1 WtCom= 1.00D+00 WtEn= 0.00D+00
 Coeff-Com: -0.813D-01 0.108D+01
 Coeff:     -0.813D-01 0.108D+01
 Gap=     0.529 Goal=   None    Shift=    0.000
 RMSDP=1.07D-05 MaxDP=3.97D-04 DE=-6.03D-05 OVMax= 5.71D-04

 Cycle   3  Pass 0  IDiag  1:
 RMSU=  4.99D-06    CP:  1.00D+00  1.14D+00
 E= -2902.88391010390     Delta-E=       -0.000002441435 Rises=F Damp=F
 DIIS: error= 2.65D-05 at cycle   3 NSaved=   3.
 NSaved= 3 IEnMin= 3 EnMin= -2902.88391010390     IErMin= 3 ErrMin= 2.65D-05
 ErrMax= 2.65D-05 EMaxC= 1.00D-01 BMatC= 2.38D-07 BMatP= 1.62D-06
 IDIUse=1 WtCom= 1.00D+00 WtEn= 0.00D+00
 Coeff-Com: -0.408D-01 0.251D+00 0.790D+00
 Coeff:     -0.408D-01 0.251D+00 0.790D+00
 Gap=     0.529 Goal=   None    Shift=    0.000
 RMSDP=2.04D-06 MaxDP=6.60D-05 DE=-2.44D-06 OVMax= 1.35D-04

 Initial convergence to 1.0D-05 achieved.  Increase integral accuracy.
 Cycle   4  Pass 1  IDiag  1:
 E= -2902.88391033483     Delta-E=       -0.000000230920 Rises=F Damp=F
 DIIS: error= 8.10D-06 at cycle   1 NSaved=   1.
 NSaved= 1 IEnMin= 1 EnMin= -2902.88391033483     IErMin= 1 ErrMin= 8.10D-06
 ErrMax= 8.10D-06 EMaxC= 1.00D-01 BMatC= 2.52D-08 BMatP= 2.52D-08
 IDIUse=1 WtCom= 1.00D+00 WtEn= 0.00D+00
 Coeff-Com:  0.100D+01
 Coeff:      0.100D+01
 Gap=     0.529 Goal=   None    Shift=    0.000
 RMSDP=2.04D-06 MaxDP=6.60D-05 DE=-2.31D-07 OVMax= 5.48D-05

 Cycle   5  Pass 1  IDiag  1:
 RMSU=  7.06D-07    CP:  1.00D+00
 E= -2902.88391036886     Delta-E=       -0.000000034033 Rises=F Damp=F
 DIIS: error= 5.35D-06 at cycle   2 NSaved=   2.
 NSaved= 2 IEnMin= 2 EnMin= -2902.88391036886     IErMin= 2 ErrMin= 5.35D-06
 ErrMax= 5.35D-06 EMaxC= 1.00D-01 BMatC= 9.37D-09 BMatP= 2.52D-08
 IDIUse=1 WtCom= 1.00D+00 WtEn= 0.00D+00
 Coeff-Com:  0.316D+00 0.684D+00
 Coeff:      0.316D+00 0.684D+00
 Gap=     0.529 Goal=   None    Shift=    0.000
 RMSDP=2.95D-07 MaxDP=1.07D-05 DE=-3.40D-08 OVMax= 2.92D-05

 Cycle   6  Pass 1  IDiag  1:
 RMSU=  2.00D-07    CP:  1.00D+00  1.08D+00
 E= -2902.88391037806     Delta-E=       -0.000000009198 Rises=F Damp=F
 DIIS: error= 2.17D-06 at cycle   3 NSaved=   3.
 NSaved= 3 IEnMin= 3 EnMin= -2902.88391037806     IErMin= 3 ErrMin= 2.17D-06
 ErrMax= 2.17D-06 EMaxC= 1.00D-01 BMatC= 1.51D-09 BMatP= 9.37D-09
 IDIUse=1 WtCom= 1.00D+00 WtEn= 0.00D+00
 Coeff-Com: -0.323D+00-0.943D-01 0.142D+01
 Coeff:     -0.323D+00-0.943D-01 0.142D+01
 Gap=     0.529 Goal=   None    Shift=    0.000
 RMSDP=3.66D-07 MaxDP=1.11D-05 DE=-9.20D-09 OVMax= 2.46D-05

 Cycle   7  Pass 1  IDiag  1:
 RMSU=  8.81D-08    CP:  1.00D+00  1.41D+00  1.37D+00
 E= -2902.88391038180     Delta-E=       -0.000000003743 Rises=F Damp=F
 DIIS: error= 4.97D-07 at cycle   4 NSaved=   4.
 NSaved= 4 IEnMin= 4 EnMin= -2902.88391038180     IErMin= 4 ErrMin= 4.97D-07
 ErrMax= 4.97D-07 EMaxC= 1.00D-01 BMatC= 7.57D-11 BMatP= 1.51D-09
 IDIUse=1 WtCom= 1.00D+00 WtEn= 0.00D+00
 Coeff-Com: -0.924D-01-0.471D-01 0.320D+00 0.819D+00
 Coeff:     -0.924D-01-0.471D-01 0.320D+00 0.819D+00
 Gap=     0.529 Goal=   None    Shift=    0.000
 RMSDP=4.90D-08 MaxDP=1.73D-06 DE=-3.74D-09 OVMax= 3.94D-06

 Cycle   8  Pass 1  IDiag  1:
 RMSU=  2.32D-08    CP:  1.00D+00  1.42D+00  1.41D+00  1.25D+00
 E= -2902.88391038190     Delta-E=       -0.000000000106 Rises=F Damp=F
 DIIS: error= 2.07D-07 at cycle   5 NSaved=   5.
 NSaved= 5 IEnMin= 5 EnMin= -2902.88391038190     IErMin= 5 ErrMin= 2.07D-07
 ErrMax= 2.07D-07 EMaxC= 1.00D-01 BMatC= 1.14D-11 BMatP= 7.57D-11
 IDIUse=1 WtCom= 1.00D+00 WtEn= 0.00D+00
 Coeff-Com:  0.704D-01 0.328D-01-0.311D+00-0.110D+00 0.132D+01
 Coeff:      0.704D-01 0.328D-01-0.311D+00-0.110D+00 0.132D+01
 Gap=     0.529 Goal=   None    Shift=    0.000
 RMSDP=3.54D-08 MaxDP=9.42D-07 DE=-1.06D-10 OVMax= 3.00D-06

 Cycle   9  Pass 1  IDiag  1:
 RMSU=  8.69D-09    CP:  1.00D+00  1.42D+00  1.41D+00  1.50D+00  1.35D+00
 E= -2902.88391038196     Delta-E=       -0.000000000054 Rises=F Damp=F
 DIIS: error= 4.37D-08 at cycle   6 NSaved=   6.
 NSaved= 6 IEnMin= 6 EnMin= -2902.88391038196     IErMin= 6 ErrMin= 4.37D-08
 ErrMax= 4.37D-08 EMaxC= 1.00D-01 BMatC= 7.37D-13 BMatP= 1.14D-11
 IDIUse=1 WtCom= 1.00D+00 WtEn= 0.00D+00
 Coeff-Com: -0.157D-01-0.448D-02 0.693D-01-0.571D-02-0.384D+00 0.134D+01
 Coeff:     -0.157D-01-0.448D-02 0.693D-01-0.571D-02-0.384D+00 0.134D+01
 Gap=     0.529 Goal=   None    Shift=    0.000
 RMSDP=8.28D-09 MaxDP=1.48D-07 DE=-5.41D-11 OVMax= 1.15D-06

 SCF Done:  E(RHF) =  -2902.88391038     A.U. after    9 cycles
             Convg  =    0.8278D-08             -V/T =  2.0001
 KE= 2.902602404800D+03 PE=-7.225545075313D+03 EE= 1.277446261399D+03
 Leave Link  502 at Sun Dec  1 14:57:34 2019, MaxMem=  268435456 cpu:      68.2
 (Enter /home/matheus/.gaussian/g09/l801.exe)
 Windowed orbitals will be sorted by symmetry type.
 ExpMin= 2.53D-02 ExpMax= 1.17D+07 ExpMxC= 1.33D+04 IAcc=3 IRadAn=         5 AccDes= 0.00D+00
 HarFok:  IExCor=  205 AccDes= 0.00D+00 IRadAn=         5 IDoV=-2
 ScaDFX=  1.000000  1.000000  1.000000  1.000000
 DSYEVD returned Info=          93 IAlg= 4 N=    46 NDim=    46 NE2=     4547561 trying DSYEV.
 Largest valence mixing into a core orbital is  1.45D-04
 Largest core mixing into a valence orbital is  2.61D-05
 Range of M.O.s used for correlation:    12   197
 NBasis=   197 NAE=    27 NBE=    27 NFC=    11 NFV=     0
 NROrb=    186 NOA=    16 NOB=    16 NVA=   170 NVB=   170

 **** Warning!!: The largest alpha MO coefficient is  0.16417038D+02

 Leave Link  801 at Sun Dec  1 14:57:34 2019, MaxMem=  268435456 cpu:       0.3
 (Enter /home/matheus/.gaussian/g09/l804.exe)
 Closed-shell transformation, MDV=   268435456 ITran=4 ISComp=1.
 Semi-Direct transformation.
 ModeAB=           2 MOrb=            16 LenV=     267328244
 LASXX=     48528660 LTotXX=    48528660 LenRXX=    48528660
 LTotAB=    49298776 MaxLAS=    78372960 LenRXY=    78372960
 NonZer=    97057320 LenScr=   146313216 LnRSAI=           0
 LnScr1=           0 LExtra=           0 Total=    273214836
 MaxDsk=          -1 SrtSym=           F ITran=            4
 DoSDTr:  NPSUse=  2
 JobTyp=0 Pass  1:  I=   1 to  16.
 (rs|ai) integrals will be sorted in core.
 Complete sort for first half transformation.
 First half transformation complete.
 Begin second half transformation for I=  10.
 Begin second half transformation for I=  10.
 Complete sort for second half transformation.
 Second half transformation complete.
 SymMOI:  orbitals are not symmetric.
 Spin components of T(2) and E(2):
     alpha-alpha T2 =       0.2590264256D-01 E2=     -0.9961152081D-01
     alpha-beta  T2 =       0.1420005117D+00 E2=     -0.5559875972D+00
     beta-beta   T2 =       0.2590264256D-01 E2=     -0.9961152081D-01
 ANorm=    0.1092614203D+01
 E2 =    -0.7552106388D+00 EUMP2 =    -0.29036391210207D+04
 Leave Link  804 at Sun Dec  1 14:58:00 2019, MaxMem=  268435456 cpu:      49.1
 (Enter /home/matheus/.gaussian/g09/l913.exe)
 CIDS:  MDV=   268435456.
 Frozen-core window:  NFC=  11 NFV=   0.
 IFCWin=0 IBDFC=1 NFBD=     0     0 NFCmp=     0     0 NFFFC=     0     0
 Using DD3R+UMP44R for 1st iteration, S=T.
 Using DD4RQ for 2nd and later iterations.
 Would need an additional       431206676 words for in-memory AO integral storage.
 MP4(SDTQ)
 =========
 DD1Dir will call FoFDir   1 times, MxPair=       272
 NAB=   136 NAA=     0 NBB=     0 NumPrc=  2.
 Integrals replicated using symmetry in FoFDir.
 MinBra= 0 MaxBra= 3 Meth= 1.
 IRaf=       0 NMat= 272 IRICut=     340 DoRegI=T DoRafI=T ISym2E= 2 JSym2E=2.
 MP4(D)= -0.14980516D-01
 MP4(S)= -0.64620336D-02
 MP4(R+Q)=  0.15331989D-01
 T4(AAA)= -0.10326272D-02
 T4(AAB)= -0.14124795D-01
 Time for triples=     1353.45 seconds.
 MP4(T)=   -0.30314844D-01
 E3=       -0.11420286D-01        EUMP3=      -0.29036505413D+04
 E4(DQ)=    0.35147270D-03        UMP4(DQ)=   -0.29036501898D+04
 E4(SDQ)=  -0.61105609D-02        UMP4(SDQ)=  -0.29036566519D+04
 E4(SDTQ)= -0.36425405D-01        UMP4(SDTQ)= -0.29036869667D+04
 VARIATIONAL ENERGIES WITH THE FIRST-ORDER WAVEFUNCTION:
 E(VAR1)=  -0.29035260843D+04     E(CISD,4)=  -0.29035256197D+04
 Largest amplitude= 2.94D-02
 Leave Link  913 at Sun Dec  1 15:10:28 2019, MaxMem=  268435456 cpu:    1447.4
 (Enter /home/matheus/.gaussian/g09/l108.exe)
 Variable Step   Value    
 -------- ---- -----------
     1       3    6.236096
 Leave Link  108 at Sun Dec  1 15:10:28 2019, MaxMem=  268435456 cpu:       0.1
 (Enter /home/matheus/.gaussian/g09/l202.exe)
 ---------------------------------------------------------------------------------------------------
                            Z-MATRIX (ANGSTROMS AND DEGREES)
   CD    Cent   Atom    N1       Length/X        N2       Alpha/Y        N3        Beta/Z          J
 ---------------------------------------------------------------------------------------------------
      1      1  O        0   0.000000          0.000000          0.725000
      2      2  O        0   0.000000          0.000000         -0.725000
      3      3  H        0   0.918721          0.000000          1.023510
      4      4  H        0   0.000000          0.918721         -1.023510
      5      5  Kr       0   0.000000          3.300000          0.000000
 ---------------------------------------------------------------------------------------------------
                         Z-Matrix orientation:                         
 ---------------------------------------------------------------------
 Center     Atomic      Atomic             Coordinates (Angstroms)
 Number     Number       Type             X           Y           Z
 ---------------------------------------------------------------------
      1          8           0        0.000000    0.000000    0.725000
      2          8           0        0.000000    0.000000   -0.725000
      3          1           0        0.918721    0.000000    1.023510
      4          1           0        0.000000    0.918721   -1.023510
      5         36           0        0.000000    3.300000    0.000000
 ---------------------------------------------------------------------
                    Distance matrix (angstroms):
                    1          2          3          4          5
     1  O    0.000000
     2  O    1.450000   0.000000
     3  H    0.966000   1.975180   0.000000
     4  H    1.975180   0.966000   2.424539   0.000000
     5  Kr   3.378702   3.378702   3.575139   2.591923   0.000000
 Stoichiometry    H2KrO2
 Framework group  C1[X(H2KrO2)]
 Deg. of freedom     9
 Full point group                 C1      NOp   1
 RotChk:  IX=0 Diff= 1.11D-03
 Largest Abelian subgroup         C1      NOp   1
 Largest concise Abelian subgroup C1      NOp   1
                         Standard orientation:                         
 ---------------------------------------------------------------------
 Center     Atomic      Atomic             Coordinates (Angstroms)
 Number     Number       Type             X           Y           Z
 ---------------------------------------------------------------------
      1          8           0        2.222296   -0.698777   -0.119056
      2          8           0        2.210456    0.744744    0.017355
      3          1           0        2.239558   -1.082254    0.767399
      4          1           0        1.289449    1.033059    0.059491
      5         36           0       -1.083084   -0.008848   -0.000369
 ---------------------------------------------------------------------
 Rotational constants (GHZ):     25.5921436      1.9376672      1.8113100
 Leave Link  202 at Sun Dec  1 15:10:28 2019, MaxMem=  268435456 cpu:       0.0
 (Enter /home/matheus/.gaussian/g09/l301.exe)
 Standard basis: Aug-CC-pVTZ (5D, 7F)
 Ernie: Thresh=  0.10000D-02 Tol=  0.10000D-05 Strict=F.
 Ernie:  38 primitive shells out of 205 were deleted.
 There are   197 symmetry adapted basis functions of A   symmetry.
 Integral buffers will be    131072 words long.
 Raffenetti 1 integral format.
 Two-electron integral symmetry is turned on.
   197 basis functions,   415 primitive gaussians,   229 cartesian basis functions
    27 alpha electrons       27 beta electrons
       nuclear repulsion energy       139.5189361271 Hartrees.
 IExCor=    0 DFT=F Ex=HF Corr=None ExCW=0 ScaHFX=  1.000000
 ScaDFX=  1.000000  1.000000  1.000000  1.000000 ScalE2=  1.000000  1.000000
 IRadAn=      5 IRanWt=     -1 IRanGd=            0 ICorTp=0
 NAtoms=    5 NActive=    5 NUniq=    5 SFac= 1.00D+00 NAtFMM=   60 NAOKFM=F Big=F
 Leave Link  301 at Sun Dec  1 15:10:29 2019, MaxMem=  268435456 cpu:       0.1
 (Enter /home/matheus/.gaussian/g09/l302.exe)
 NPDir=0 NMtPBC=     1 NCelOv=     1 NCel=       1 NClECP=     1 NCelD=      1
         NCelK=      1 NCelE2=     1 NClLst=     1 CellRange=     0.0.
 One-electron integrals computed using PRISM.
 NBasis=   197 RedAO= T  NBF=   197
 NBsUse=   197 1.00D-06 NBFU=   197
 Leave Link  302 at Sun Dec  1 15:10:29 2019, MaxMem=  268435456 cpu:       0.3
 (Enter /home/matheus/.gaussian/g09/l303.exe)
 DipDrv:  MaxL=1.
 Leave Link  303 at Sun Dec  1 15:10:29 2019, MaxMem=  268435456 cpu:       0.1
 (Enter /home/matheus/.gaussian/g09/l401.exe)
 Initial guess read from the read-write file.
 B after Tr=     0.000000    0.000000    0.000000
         Rot=    1.000000    0.000000    0.000000    0.000000 Ang=   0.00 deg.
 Guess basis will be translated and rotated to current coordinates.
 Initial guess orbital symmetries:
       Occupied  (A) (A) (A) (A) (A) (A) (A) (A) (A) (A) (A) (A)
                 (A) (A) (A) (A) (A) (A) (A) (A) (A) (A) (A) (A)
                 (A) (A) (A)
       Virtual   (A) (A) (A) (A) (A) (A) (A) (A) (A) (A) (A) (A)
                 (A) (A) (A) (A) (A) (A) (A) (A) (A) (A) (A) (A)
                 (A) (A) (A) (A) (A) (A) (A) (A) (A) (A) (A) (A)
                 (A) (A) (A) (A) (A) (A) (A) (A) (A) (A) (A) (A)
                 (A) (A) (A) (A) (A) (A) (A) (A) (A) (A) (A) (A)
                 (A) (A) (A) (A) (A) (A) (A) (A) (A) (A) (A) (A)
                 (A) (A) (A) (A) (A) (A) (A) (A) (A) (A) (A) (A)
                 (A) (A) (A) (A) (A) (A) (A) (A) (A) (A) (A) (A)
                 (A) (A) (A) (A) (A) (A) (A) (A) (A) (A) (A) (A)
                 (A) (A) (A) (A) (A) (A) (A) (A) (A) (A) (A) (A)
                 (A) (A) (A) (A) (A) (A) (A) (A) (A) (A) (A) (A)
                 (A) (A) (A) (A) (A) (A) (A) (A) (A) (A) (A) (A)
                 (A) (A) (A) (A) (A) (A) (A) (A) (A) (A) (A) (A)
                 (A) (A) (A) (A) (A) (A) (A) (A) (A) (A) (A) (A)
                 (A) (A)
 The electronic state of the initial guess is 1-A.
 Generating alternative initial guess.
 Harris functional with IExCor=  205 diagonalized for initial guess.
 ExpMin= 2.53D-02 ExpMax= 1.17D+07 ExpMxC= 1.33D+04 IAcc=3 IRadAn=         5 AccDes= 0.00D+00
 HarFok:  IExCor=  205 AccDes= 0.00D+00 IRadAn=         5 IDoV= 1
 ScaDFX=  1.000000  1.000000  1.000000  1.000000
 FoFCou: FMM=F IPFlag=           0 FMFlag=      100000 FMFlg1=           0
         NFxFlg=           0 DoJE=T BraDBF=F KetDBF=T FulRan=T
         Omega=  0.000000  0.000000  1.000000  0.000000  0.000000 ICntrl=     500 IOpCl=  0
         NMat0=    1 NMatS0=    1 NMatT0=    0 NMatD0=    1 NMtDS0=    0 NMtDT0=    0
         I1Cent=           4 NGrid=           0.
 Petite list used in FoFCou.
 Harris En= -2901.93481450079    
 Leave Link  401 at Sun Dec  1 15:10:30 2019, MaxMem=  268435456 cpu:       1.4
 (Enter /home/matheus/.gaussian/g09/l502.exe)
 Closed shell SCF:
 Requested convergence on RMS density matrix=1.00D-08 within 128 cycles.
 Requested convergence on MAX density matrix=1.00D-06.
 Requested convergence on             energy=1.00D-06.
 No special actions if energy rises.
 Using DIIS extrapolation, IDIIS=  1040.
 Integral symmetry usage will be decided dynamically.
 IEnd=      178489 IEndB=      178489 NGot=   268435456 MDV=   268326278
 LenX=   268326278 LenY=   268273396
 Fock matrices will be formed incrementally for  20 cycles.

 Cycle   1  Pass 0  IDiag  1:
 FoFCou: FMM=F IPFlag=           0 FMFlag=      100000 FMFlg1=           0
         NFxFlg=           0 DoJE=F BraDBF=F KetDBF=F FulRan=T
         Omega=  0.000000  0.000000  1.000000  0.000000  0.000000 ICntrl=       0 IOpCl=  0
         NMat0=    1 NMatS0=    1 NMatT0=    0 NMatD0=    1 NMtDS0=    0 NMtDT0=    0
         I1Cent=           0 NGrid=           0.
 Symmetry not used in FoFCou.
 E= -2902.88515583023    
 DIIS: error= 3.18D-04 at cycle   1 NSaved=   1.
 NSaved= 1 IEnMin= 1 EnMin= -2902.88515583023     IErMin= 1 ErrMin= 3.18D-04
 ErrMax= 3.18D-04 EMaxC= 1.00D-01 BMatC= 3.83D-05 BMatP= 3.83D-05
 IDIUse=3 WtCom= 9.97D-01 WtEn= 3.18D-03
 Coeff-Com:  0.100D+01
 Coeff-En:   0.100D+01
 Coeff:      0.100D+01
 Gap=     0.531 Goal=   None    Shift=    0.000
 RMSDP=5.24D-05 MaxDP=1.55D-03              OVMax= 2.37D-03

 Cycle   2  Pass 0  IDiag  1:
 RMSU=  3.71D-05    CP:  1.00D+00
 E= -2902.88520133250     Delta-E=       -0.000045502272 Rises=F Damp=F
 DIIS: error= 5.88D-05 at cycle   2 NSaved=   2.
 NSaved= 2 IEnMin= 2 EnMin= -2902.88520133250     IErMin= 2 ErrMin= 5.88D-05
 ErrMax= 5.88D-05 EMaxC= 1.00D-01 BMatC= 1.11D-06 BMatP= 3.83D-05
 IDIUse=1 WtCom= 1.00D+00 WtEn= 0.00D+00
 Coeff-Com: -0.863D-01 0.109D+01
 Coeff:     -0.863D-01 0.109D+01
 Gap=     0.530 Goal=   None    Shift=    0.000
 RMSDP=9.34D-06 MaxDP=3.23D-04 DE=-4.55D-05 OVMax= 5.24D-04

 Initial convergence to 1.0D-05 achieved.  Increase integral accuracy.
 Cycle   3  Pass 1  IDiag  1:
 E= -2902.88520311050     Delta-E=       -0.000001777998 Rises=F Damp=F
 DIIS: error= 2.07D-05 at cycle   1 NSaved=   1.
 NSaved= 1 IEnMin= 1 EnMin= -2902.88520311050     IErMin= 1 ErrMin= 2.07D-05
 ErrMax= 2.07D-05 EMaxC= 1.00D-01 BMatC= 1.43D-07 BMatP= 1.43D-07
 IDIUse=1 WtCom= 1.00D+00 WtEn= 0.00D+00
 Coeff-Com:  0.100D+01
 Coeff:      0.100D+01
 Gap=     0.530 Goal=   None    Shift=    0.000
 RMSDP=9.34D-06 MaxDP=3.23D-04 DE=-1.78D-06 OVMax= 1.40D-04

 Cycle   4  Pass 1  IDiag  1:
 RMSU=  1.47D-06    CP:  1.00D+00
 E= -2902.88520324675     Delta-E=       -0.000000136250 Rises=F Damp=F
 DIIS: error= 9.51D-06 at cycle   2 NSaved=   2.
 NSaved= 2 IEnMin= 2 EnMin= -2902.88520324675     IErMin= 2 ErrMin= 9.51D-06
 ErrMax= 9.51D-06 EMaxC= 1.00D-01 BMatC= 4.91D-08 BMatP= 1.43D-07
 IDIUse=1 WtCom= 1.00D+00 WtEn= 0.00D+00
 Coeff-Com:  0.340D+00 0.660D+00
 Coeff:      0.340D+00 0.660D+00
 Gap=     0.530 Goal=   None    Shift=    0.000
 RMSDP=7.00D-07 MaxDP=3.62D-05 DE=-1.36D-07 OVMax= 4.08D-05

 Cycle   5  Pass 1  IDiag  1:
 RMSU=  4.95D-07    CP:  1.00D+00  9.94D-01
 E= -2902.88520328370     Delta-E=       -0.000000036952 Rises=F Damp=F
 DIIS: error= 3.34D-06 at cycle   3 NSaved=   3.
 NSaved= 3 IEnMin= 3 EnMin= -2902.88520328370     IErMin= 3 ErrMin= 3.34D-06
 ErrMax= 3.34D-06 EMaxC= 1.00D-01 BMatC= 3.35D-09 BMatP= 4.91D-08
 IDIUse=1 WtCom= 1.00D+00 WtEn= 0.00D+00
 Coeff-Com: -0.107D+00-0.384D-01 0.115D+01
 Coeff:     -0.107D+00-0.384D-01 0.115D+01
 Gap=     0.530 Goal=   None    Shift=    0.000
 RMSDP=4.44D-07 MaxDP=1.61D-05 DE=-3.70D-08 OVMax= 2.77D-05

 Cycle   6  Pass 1  IDiag  1:
 RMSU=  1.47D-07    CP:  1.00D+00  1.14D+00  1.36D+00
 E= -2902.88520329147     Delta-E=       -0.000000007772 Rises=F Damp=F
 DIIS: error= 1.46D-06 at cycle   4 NSaved=   4.
 NSaved= 4 IEnMin= 4 EnMin= -2902.88520329147     IErMin= 4 ErrMin= 1.46D-06
 ErrMax= 1.46D-06 EMaxC= 1.00D-01 BMatC= 8.00D-10 BMatP= 3.35D-09
 IDIUse=1 WtCom= 1.00D+00 WtEn= 0.00D+00
 Coeff-Com: -0.907D-01-0.137D+00 0.324D+00 0.904D+00
 Coeff:     -0.907D-01-0.137D+00 0.324D+00 0.904D+00
 Gap=     0.530 Goal=   None    Shift=    0.000
 RMSDP=1.81D-07 MaxDP=5.03D-06 DE=-7.77D-09 OVMax= 1.28D-05

 Cycle   7  Pass 1  IDiag  1:
 RMSU=  6.44D-08    CP:  1.00D+00  1.18D+00  1.54D+00  1.17D+00
 E= -2902.88520329277     Delta-E=       -0.000000001296 Rises=F Damp=F
 DIIS: error= 4.49D-07 at cycle   5 NSaved=   5.
 NSaved= 5 IEnMin= 5 EnMin= -2902.88520329277     IErMin= 5 ErrMin= 4.49D-07
 ErrMax= 4.49D-07 EMaxC= 1.00D-01 BMatC= 4.19D-11 BMatP= 8.00D-10
 IDIUse=1 WtCom= 1.00D+00 WtEn= 0.00D+00
 Coeff-Com:  0.940D-02 0.207D-02-0.790D-01-0.410D-01 0.111D+01
 Coeff:      0.940D-02 0.207D-02-0.790D-01-0.410D-01 0.111D+01
 Gap=     0.530 Goal=   None    Shift=    0.000
 RMSDP=5.48D-08 MaxDP=1.60D-06 DE=-1.30D-09 OVMax= 4.41D-06

 Cycle   8  Pass 1  IDiag  1:
 RMSU=  1.79D-08    CP:  1.00D+00  1.18D+00  1.55D+00  1.32D+00  1.36D+00
 E= -2902.88520329288     Delta-E=       -0.000000000113 Rises=F Damp=F
 DIIS: error= 1.67D-07 at cycle   6 NSaved=   6.
 NSaved= 6 IEnMin= 6 EnMin= -2902.88520329288     IErMin= 6 ErrMin= 1.67D-07
 ErrMax= 1.67D-07 EMaxC= 1.00D-01 BMatC= 7.24D-12 BMatP= 4.19D-11
 IDIUse=1 WtCom= 1.00D+00 WtEn= 0.00D+00
 Coeff-Com:  0.143D-01 0.194D-01-0.499D-01-0.154D+00 0.121D+00 0.105D+01
 Coeff:      0.143D-01 0.194D-01-0.499D-01-0.154D+00 0.121D+00 0.105D+01
 Gap=     0.530 Goal=   None    Shift=    0.000
 RMSDP=2.30D-08 MaxDP=5.41D-07 DE=-1.13D-10 OVMax= 2.19D-06

 Cycle   9  Pass 1  IDiag  1:
 RMSU=  6.81D-09    CP:  1.00D+00  1.17D+00  1.56D+00  1.36D+00  1.53D+00
                    CP:  1.28D+00
 E= -2902.88520329288     Delta-E=       -0.000000000002 Rises=F Damp=F
 DIIS: error= 4.08D-08 at cycle   7 NSaved=   7.
 NSaved= 7 IEnMin= 7 EnMin= -2902.88520329288     IErMin= 7 ErrMin= 4.08D-08
 ErrMax= 4.08D-08 EMaxC= 1.00D-01 BMatC= 6.72D-13 BMatP= 7.24D-12
 IDIUse=1 WtCom= 1.00D+00 WtEn= 0.00D+00
 Coeff-Com: -0.873D-02-0.118D-01 0.372D-01 0.815D-01-0.142D+00-0.579D+00
 Coeff-Com:  0.162D+01
[...]
      1          8           0        3.352389   -0.705668   -0.119404
      2          8           0        3.347542    0.737825    0.017723
      3          1           0        3.363018   -1.089687    0.766921
      4          1           0        2.427879    1.031028    0.055250
      5         36           0       -1.649732   -0.005516   -0.000242
 ---------------------------------------------------------------------
 Rotational constants (GHZ):     25.5890756      0.8422692      0.8174768
 Leave Link  202 at Sun Dec  1 19:11:20 2019, MaxMem=  268435456 cpu:       0.0
 (Enter /home/matheus/.gaussian/g09/l301.exe)
 Standard basis: Aug-CC-pVTZ (5D, 7F)
 Ernie: Thresh=  0.10000D-02 Tol=  0.10000D-05 Strict=F.
 Ernie:  38 primitive shells out of 205 were deleted.
 There are   197 symmetry adapted basis functions of A   symmetry.
 Integral buffers will be    131072 words long.
 Raffenetti 1 integral format.
 Two-electron integral symmetry is turned on.
   197 basis functions,   415 primitive gaussians,   229 cartesian basis functions
    27 alpha electrons       27 beta electrons
       nuclear repulsion energy       105.1579650266 Hartrees.
 IExCor=    0 DFT=F Ex=HF Corr=None ExCW=0 ScaHFX=  1.000000
 ScaDFX=  1.000000  1.000000  1.000000  1.000000 ScalE2=  1.000000  1.000000
 IRadAn=      5 IRanWt=     -1 IRanGd=            0 ICorTp=0
 NAtoms=    5 NActive=    5 NUniq=    5 SFac= 1.00D+00 NAtFMM=   60 NAOKFM=F Big=F
 Leave Link  301 at Sun Dec  1 19:11:20 2019, MaxMem=  268435456 cpu:       0.1
 (Enter /home/matheus/.gaussian/g09/l302.exe)
 NPDir=0 NMtPBC=     1 NCelOv=     1 NCel=       1 NClECP=     1 NCelD=      1
         NCelK=      1 NCelE2=     1 NClLst=     1 CellRange=     0.0.
 One-electron integrals computed using PRISM.
 NBasis=   197 RedAO= T  NBF=   197
 NBsUse=   197 1.00D-06 NBFU=   197
 Leave Link  302 at Sun Dec  1 19:11:20 2019, MaxMem=  268435456 cpu:       0.3
 (Enter /home/matheus/.gaussian/g09/l303.exe)
 DipDrv:  MaxL=1.
 Leave Link  303 at Sun Dec  1 19:11:21 2019, MaxMem=  268435456 cpu:       0.1
 (Enter /home/matheus/.gaussian/g09/l401.exe)
 Initial guess read from the read-write file.
 B after Tr=     0.000000    0.000000    0.000000
         Rot=    1.000000    0.000000    0.000000    0.000000 Ang=   0.00 deg.
 Guess basis will be translated and rotated to current coordinates.
 Initial guess orbital symmetries:
       Occupied  (A) (A) (A) (A) (A) (A) (A) (A) (A) (A) (A) (A)
                 (A) (A) (A) (A) (A) (A) (A) (A) (A) (A) (A) (A)
                 (A) (A) (A)
       Virtual   (A) (A) (A) (A) (A) (A) (A) (A) (A) (A) (A) (A)
                 (A) (A) (A) (A) (A) (A) (A) (A) (A) (A) (A) (A)
                 (A) (A) (A) (A) (A) (A) (A) (A) (A) (A) (A) (A)
                 (A) (A) (A) (A) (A) (A) (A) (A) (A) (A) (A) (A)
                 (A) (A) (A) (A) (A) (A) (A) (A) (A) (A) (A) (A)
                 (A) (A) (A) (A) (A) (A) (A) (A) (A) (A) (A) (A)
                 (A) (A) (A) (A) (A) (A) (A) (A) (A) (A) (A) (A)
                 (A) (A) (A) (A) (A) (A) (A) (A) (A) (A) (A) (A)
                 (A) (A) (A) (A) (A) (A) (A) (A) (A) (A) (A) (A)
                 (A) (A) (A) (A) (A) (A) (A) (A) (A) (A) (A) (A)
                 (A) (A) (A) (A) (A) (A) (A) (A) (A) (A) (A) (A)
                 (A) (A) (A) (A) (A) (A) (A) (A) (A) (A) (A) (A)
                 (A) (A) (A) (A) (A) (A) (A) (A) (A) (A) (A) (A)
                 (A) (A) (A) (A) (A) (A) (A) (A) (A) (A) (A) (A)
                 (A) (A)
 The electronic state of the initial guess is 1-A.
 Generating alternative initial guess.
 Harris functional with IExCor=  205 diagonalized for initial guess.
 ExpMin= 2.53D-02 ExpMax= 1.17D+07 ExpMxC= 1.33D+04 IAcc=3 IRadAn=         5 AccDes= 0.00D+00
 HarFok:  IExCor=  205 AccDes= 0.00D+00 IRadAn=         5 IDoV= 1
 ScaDFX=  1.000000  1.000000  1.000000  1.000000
 FoFCou: FMM=F IPFlag=           0 FMFlag=      100000 FMFlg1=           0
         NFxFlg=           0 DoJE=T BraDBF=F KetDBF=T FulRan=T
         Omega=  0.000000  0.000000  1.000000  0.000000  0.000000 ICntrl=     500 IOpCl=  0
         NMat0=    1 NMatS0=    1 NMatT0=    0 NMatD0=    1 NMtDS0=    0 NMtDT0=    0
         I1Cent=           4 NGrid=           0.
 Petite list used in FoFCou.
 Harris En= -2901.93449797803    
 Leave Link  401 at Sun Dec  1 19:11:21 2019, MaxMem=  268435456 cpu:       1.3
 (Enter /home/matheus/.gaussian/g09/l502.exe)
 Closed shell SCF:
 Requested convergence on RMS density matrix=1.00D-08 within 128 cycles.
 Requested convergence on MAX density matrix=1.00D-06.
 Requested convergence on             energy=1.00D-06.
 No special actions if energy rises.
 Using DIIS extrapolation, IDIIS=  1040.
 Integral symmetry usage will be decided dynamically.
 IEnd=      178489 IEndB=      178489 NGot=   268435456 MDV=   268326278
 LenX=   268326278 LenY=   268273396
 Fock matrices will be formed incrementally for  20 cycles.

 Cycle   1  Pass 0  IDiag  1:
 FoFCou: FMM=F IPFlag=           0 FMFlag=      100000 FMFlg1=           0
         NFxFlg=           0 DoJE=F BraDBF=F KetDBF=F FulRan=T
         Omega=  0.000000  0.000000  1.000000  0.000000  0.000000 ICntrl=       0 IOpCl=  0
         NMat0=    1 NMatS0=    1 NMatT0=    0 NMatD0=    1 NMtDS0=    0 NMtDT0=    0
         I1Cent=           0 NGrid=           0.
 Symmetry not used in FoFCou.
 E= -2902.88808075478    
 DIIS: error= 3.35D-05 at cycle   1 NSaved=   1.
 NSaved= 1 IEnMin= 1 EnMin= -2902.88808075478     IErMin= 1 ErrMin= 3.35D-05
 ErrMax= 3.35D-05 EMaxC= 1.00D-01 BMatC= 5.75D-07 BMatP= 5.75D-07
 IDIUse=1 WtCom= 1.00D+00 WtEn= 0.00D+00
 Coeff-Com:  0.100D+01
 Coeff:      0.100D+01
 Gap=     0.531 Goal=   None    Shift=    0.000
 RMSDP=1.64D-05 MaxDP=7.25D-04              OVMax= 3.14D-04

 Cycle   2  Pass 0  IDiag  1:
 RMSU=  1.16D-05    CP:  1.00D+00
 E= -2902.88808138444     Delta-E=       -0.000000629660 Rises=F Damp=F
 DIIS: error= 8.79D-06 at cycle   2 NSaved=   2.
 NSaved= 2 IEnMin= 2 EnMin= -2902.88808138444     IErMin= 2 ErrMin= 8.79D-06
 ErrMax= 8.79D-06 EMaxC= 1.00D-01 BMatC= 1.37D-08 BMatP= 5.75D-07
 IDIUse=1 WtCom= 1.00D+00 WtEn= 0.00D+00
 Coeff-Com: -0.411D-01 0.104D+01
 Coeff:     -0.411D-01 0.104D+01
 Gap=     0.531 Goal=   None    Shift=    0.000
 RMSDP=2.11D-06 MaxDP=8.63D-05 DE=-6.30D-07 OVMax= 5.24D-05

 Initial convergence to 1.0D-05 achieved.  Increase integral accuracy.
 Cycle   3  Pass 1  IDiag  1:
 E= -2902.88808140421     Delta-E=       -0.000000019764 Rises=F Damp=F
 DIIS: error= 2.63D-06 at cycle   1 NSaved=   1.
 NSaved= 1 IEnMin= 1 EnMin= -2902.88808140421     IErMin= 1 ErrMin= 2.63D-06
 ErrMax= 2.63D-06 EMaxC= 1.00D-01 BMatC= 1.15D-09 BMatP= 1.15D-09
 IDIUse=1 WtCom= 1.00D+00 WtEn= 0.00D+00
 Coeff-Com:  0.100D+01
 Coeff:      0.100D+01
 Gap=     0.531 Goal=   None    Shift=    0.000
 RMSDP=2.11D-06 MaxDP=8.63D-05 DE=-1.98D-08 OVMax= 2.03D-05

 Cycle   4  Pass 1  IDiag  1:
 RMSU=  1.90D-07    CP:  1.00D+00
 E= -2902.88808140595     Delta-E=       -0.000000001748 Rises=F Damp=F
 DIIS: error= 8.77D-07 at cycle   2 NSaved=   2.
 NSaved= 2 IEnMin= 2 EnMin= -2902.88808140595     IErMin= 2 ErrMin= 8.77D-07
 ErrMax= 8.77D-07 EMaxC= 1.00D-01 BMatC= 2.12D-10 BMatP= 1.15D-09
 IDIUse=1 WtCom= 1.00D+00 WtEn= 0.00D+00
 Coeff-Com:  0.182D+00 0.818D+00
 Coeff:      0.182D+00 0.818D+00
 Gap=     0.531 Goal=   None    Shift=    0.000
 RMSDP=6.81D-08 MaxDP=1.80D-06 DE=-1.75D-09 OVMax= 4.30D-06

 Cycle   5  Pass 1  IDiag  1:
 RMSU=  4.00D-08    CP:  1.00D+00  1.14D+00
 E= -2902.88808140625     Delta-E=       -0.000000000295 Rises=F Damp=F
 DIIS: error= 4.80D-07 at cycle   3 NSaved=   3.
 NSaved= 3 IEnMin= 3 EnMin= -2902.88808140625     IErMin= 3 ErrMin= 4.80D-07
 ErrMax= 4.80D-07 EMaxC= 1.00D-01 BMatC= 4.64D-11 BMatP= 2.12D-10
 IDIUse=1 WtCom= 1.00D+00 WtEn= 0.00D+00
 Coeff-Com: -0.120D+00 0.675D-01 0.105D+01
 Coeff:     -0.120D+00 0.675D-01 0.105D+01
 Gap=     0.531 Goal=   None    Shift=    0.000
 RMSDP=4.44D-08 MaxDP=1.13D-06 DE=-2.95D-10 OVMax= 3.59D-06

 Cycle   6  Pass 1  IDiag  1:
 RMSU=  1.85D-08    CP:  1.00D+00  1.26D+00  1.25D+00
 E= -2902.88808140635     Delta-E=       -0.000000000106 Rises=F Damp=F
 DIIS: error= 1.89D-07 at cycle   4 NSaved=   4.
 NSaved= 4 IEnMin= 4 EnMin= -2902.88808140635     IErMin= 4 ErrMin= 1.89D-07
 ErrMax= 1.89D-07 EMaxC= 1.00D-01 BMatC= 9.52D-12 BMatP= 4.64D-11
 IDIUse=1 WtCom= 1.00D+00 WtEn= 0.00D+00
 Coeff-Com: -0.729D-01-0.147D+00 0.300D+00 0.919D+00
 Coeff:     -0.729D-01-0.147D+00 0.300D+00 0.919D+00
 Gap=     0.531 Goal=   None    Shift=    0.000
 RMSDP=1.92D-08 MaxDP=5.55D-07 DE=-1.06D-10 OVMax= 1.88D-06

 Cycle   7  Pass 1  IDiag  1:
 RMSU=  7.26D-09    CP:  1.00D+00  1.30D+00  1.44D+00  1.28D+00
 E= -2902.88808140638     Delta-E=       -0.000000000028 Rises=F Damp=F
 DIIS: error= 6.41D-08 at cycle   5 NSaved=   5.
 NSaved= 5 IEnMin= 5 EnMin= -2902.88808140638     IErMin= 5 ErrMin= 6.41D-08
 ErrMax= 6.41D-08 EMaxC= 1.00D-01 BMatC= 6.79D-13 BMatP= 9.52D-12
 IDIUse=1 WtCom= 1.00D+00 WtEn= 0.00D+00
 Coeff-Com:  0.489D-01 0.767D-01-0.258D+00-0.492D+00 0.162D+01
 Coeff:      0.489D-01 0.767D-01-0.258D+00-0.492D+00 0.162D+01
 Gap=     0.531 Goal=   None    Shift=    0.000
 RMSDP=1.04D-08 MaxDP=3.34D-07 DE=-2.77D-11 OVMax= 1.10D-06

 Cycle   8  Pass 1  IDiag  1:
 RMSU=  3.02D-09    CP:  1.00D+00  1.28D+00  1.46D+00  1.51D+00  1.56D+00
 E= -2902.88808140639     Delta-E=       -0.000000000012 Rises=F Damp=F
 DIIS: error= 1.75D-08 at cycle   6 NSaved=   6.
 NSaved= 6 IEnMin= 6 EnMin= -2902.88808140639     IErMin= 6 ErrMin= 1.75D-08
 ErrMax= 1.75D-08 EMaxC= 1.00D-01 BMatC= 6.78D-14 BMatP= 6.79D-13
 IDIUse=1 WtCom= 1.00D+00 WtEn= 0.00D+00
 Coeff-Com:  0.484D-02 0.856D-02-0.173D-01-0.556D-01-0.318D-01 0.109D+01
 Coeff:      0.484D-02 0.856D-02-0.173D-01-0.556D-01-0.318D-01 0.109D+01
 Gap=     0.531 Goal=   None    Shift=    0.000
 RMSDP=2.20D-09 MaxDP=7.26D-08 DE=-1.18D-11 OVMax= 2.81D-07

 SCF Done:  E(RHF) =  -2902.88808141     A.U. after    8 cycles
             Convg  =    0.2204D-08             -V/T =  2.0001
 KE= 2.902569851091D+03 PE=-7.150838372700D+03 EE= 1.240222475176D+03
 Leave Link  502 at Sun Dec  1 19:11:43 2019, MaxMem=  268435456 cpu:      42.0
 (Enter /home/matheus/.gaussian/g09/l801.exe)
 Windowed orbitals will be sorted by symmetry type.
 ExpMin= 2.53D-02 ExpMax= 1.17D+07 ExpMxC= 1.33D+04 IAcc=3 IRadAn=         5 AccDes= 0.00D+00
 HarFok:  IExCor=  205 AccDes= 0.00D+00 IRadAn=         5 IDoV=-2
 ScaDFX=  1.000000  1.000000  1.000000  1.000000
 DSYEVD returned Info=          89 IAlg= 4 N=    59 NDim=    59 NE2=     4547561 trying DSYEV.
 Largest valence mixing into a core orbital is  1.48D-04
 Largest core mixing into a valence orbital is  2.62D-05
 Range of M.O.s used for correlation:    12   197
 NBasis=   197 NAE=    27 NBE=    27 NFC=    11 NFV=     0
 NROrb=    186 NOA=    16 NOB=    16 NVA=   170 NVB=   170

 **** Warning!!: The largest alpha MO coefficient is  0.14174023D+02

 Leave Link  801 at Sun Dec  1 19:11:43 2019, MaxMem=  268435456 cpu:       0.3
 (Enter /home/matheus/.gaussian/g09/l804.exe)
 Closed-shell transformation, MDV=   268435456 ITran=4 ISComp=1.
 Semi-Direct transformation.
 ModeAB=           4 MOrb=            16 LenV=     267349776
 LASXX=     48528660 LTotXX=    48528660 LenRXX=    97827436
 LTotAB=    49298776 MaxLAS=    72287040 LenRXY=           0
 NonZer=   146356096 LenScr=   220395520 LnRSAI=    72287040
 LnScr1=   109171712 LExtra=           0 Total=    499681708
 MaxDsk=          -1 SrtSym=           T ITran=            4
 DoSDTr:  NPSUse=  2
 JobTyp=0 Pass  1:  I=   1 to  16.
 (rs|ai) integrals will be sorted in core.
 Complete sort for first half transformation.
 First half transformation complete.
 Begin second half transformation for I=  10.
 Complete sort for second half transformation.
 Second half transformation complete.
 SymMOI:  orbitals are not symmetric.
 Spin components of T(2) and E(2):
     alpha-alpha T2 =       0.2554083661D-01 E2=     -0.9846394064D-01
     alpha-beta  T2 =       0.1413777429D+00 E2=     -0.5531063243D+00
     beta-beta   T2 =       0.2554083661D-01 E2=     -0.9846394064D-01
 ANorm=    0.1091997901D+01
 E2 =    -0.7500342056D+00 EUMP2 =    -0.29036381156120D+04
 Leave Link  804 at Sun Dec  1 19:12:08 2019, MaxMem=  268435456 cpu:      45.7
 (Enter /home/matheus/.gaussian/g09/l913.exe)
 CIDS:  MDV=   268435456.
 Frozen-core window:  NFC=  11 NFV=   0.
 IFCWin=0 IBDFC=1 NFBD=     0     0 NFCmp=     0     0 NFFFC=     0     0
 Using DD3R+UMP44R for 1st iteration, S=T.
 Using DD4RQ for 2nd and later iterations.
 Would need an additional       431206676 words for in-memory AO integral storage.
 MP4(SDTQ)
 =========
 DD1Dir will call FoFDir   1 times, MxPair=       272
 NAB=   136 NAA=     0 NBB=     0 NumPrc=  2.
 Integrals replicated using symmetry in FoFDir.
 MinBra= 0 MaxBra= 3 Meth= 1.
 IRaf=       0 NMat= 272 IRICut=     340 DoRegI=T DoRafI=T ISym2E= 2 JSym2E=2.
 MP4(D)= -0.14974210D-01
 MP4(S)= -0.63073531D-02
 MP4(R+Q)=  0.14999387D-01
 T4(AAA)= -0.98707405D-03
 T4(AAB)= -0.13823571D-01
 Time for triples=     1478.73 seconds.
 MP4(T)=   -0.29621290D-01
 E3=       -0.11932528D-01        EUMP3=      -0.29036500481D+04
 E4(DQ)=    0.25176612D-04        UMP4(DQ)=   -0.29036500230D+04
 E4(SDQ)=  -0.62821765D-02        UMP4(SDQ)=  -0.29036563303D+04
 E4(SDTQ)= -0.35903467D-01        UMP4(SDTQ)= -0.29036859516D+04
 VARIATIONAL ENERGIES WITH THE FIRST-ORDER WAVEFUNCTION:
 E(VAR1)=  -0.29035270690D+04     E(CISD,4)=  -0.29035269786D+04
 Largest amplitude= 2.96D-02
 Leave Link  913 at Sun Dec  1 19:26:17 2019, MaxMem=  268435456 cpu:    1561.7
 (Enter /home/matheus/.gaussian/g09/l108.exe)
 Scan completed.

 Summary of the potential surface scan:
   N      R1          SCF          MP2          MP3         MP4DQ       MP4SDQ       MP4SDTQ  
 ----  ---------  -----------  -----------  -----------  -----------  -----------  -----------
    1     3.0000  -2902.87952  -2903.63679  -2903.64795  -2903.64746  -2903.65397  -2903.68456
    2     3.1000  -2902.88208  -2903.63824  -2903.64955  -2903.64913  -2903.65562  -2903.68606
    3     3.2000  -2902.88391  -2903.63912  -2903.65054  -2903.65019  -2903.65665  -2903.68697
    4     3.3000  -2902.88520  -2903.63961  -2903.65112  -2903.65082  -2903.65726  -2903.68747
    5     3.4000  -2902.88611  -2903.63982  -2903.65141  -2903.65116  -2903.65758  -2903.68769
    6     3.5000  -2902.88675  -2903.63987  -2903.65151  -2903.65130  -2903.65771  -2903.68774
    7     3.6000  -2902.88719  -2903.63980  -2903.65150  -2903.65132  -2903.65771  -2903.68767
    8     3.7000  -2902.88750  -2903.63967  -2903.65141  -2903.65126  -2903.65763  -2903.68754
    9     3.8000  -2902.88771  -2903.63951  -2903.65128  -2903.65115  -2903.65752  -2903.68738
   10     3.9000  -2902.88785  -2903.63934  -2903.65114  -2903.65103  -2903.65739  -2903.68720
   11     4.0000  -2902.88794  -2903.63917  -2903.65099  -2903.65090  -2903.65725  -2903.68703
   12     4.1000  -2902.88800  -2903.63901  -2903.65085  -2903.65077  -2903.65711  -2903.68686
   13     4.2000  -2902.88804  -2903.63886  -2903.65072  -2903.65065  -2903.65698  -2903.68671
   14     4.3000  -2902.88806  -2903.63872  -2903.65060  -2903.65054  -2903.65687  -2903.68657
   15     4.4000  -2902.88808  -2903.63860  -2903.65049  -2903.65044  -2903.65676  -2903.68645
   16     4.5000  -2902.88808  -2903.63850  -2903.65039  -2903.65035  -2903.65667  -2903.68634
   17     4.6000  -2902.88809  -2903.63840  -2903.65031  -2903.65027  -2903.65659  -2903.68624
   18     4.7000  -2902.88809  -2903.63832  -2903.65023  -2903.65020  -2903.65651  -2903.68616
   19     4.8000  -2902.88809  -2903.63824  -2903.65016  -2903.65013  -2903.65644  -2903.68608
   20     4.9000  -2902.88808  -2903.63817  -2903.65010  -2903.65007  -2903.65638  -2903.68601
   21     5.0000  -2902.88808  -2903.63812  -2903.65005  -2903.65002  -2903.65633  -2903.68595
 ----  ---------  -----------  -----------  -----------  -----------  -----------  -----------
  
 Leave Link  108 at Sun Dec  1 19:26:18 2019, MaxMem=  268435456 cpu:       0.1
 (Enter /home/matheus/.gaussian/g09/l9999.exe)
 1\1\GINC-REDGIANT\Scan\RMP4SDTQ-FC\Aug-CC-pVTZ\H2Kr1O2\MATHEUS\01-Dec-
 2019\1\\#p mp4/aug-cc-PVTz int=ultrafine Scan\\PTCC\\0,1\O,0,0.,0.,0.7
 25\O,0,0.,0.,-0.725\H,0,0.9187205947,0.,1.0235104166\H,0,0.,0.91872059
 47,-1.0235104166\Kr,0,0.,R1,0.\\R1=3.,s,20,0.1\\Version=EM64L-G09RevC.
 01\State=1-A\HF=-2902.8795164,-2902.8820838,-2902.8839104,-2902.885203
 3,-2902.8861136,-2902.8867506,-2902.8871934,-2902.8874985,-2902.887706
 5,-2902.8878465,-2902.8879394,-2902.8879998,-2902.8880383,-2902.888062
 1,-2902.8880762,-2902.8880837,-2902.888087,-2902.8880875,-2902.8880863
 ,-2902.8880841,-2902.8880814\MP2=-2903.6367861,-2903.6382408,-2903.639
 121,-2903.6396058,-2903.6398239,-2903.6398674,-2903.6398019,-2903.6396
 732,-2903.6395125,-2903.6393403,-2903.6391697,-2903.6390082,-2903.6388
 594,-2903.6387249,-2903.6386043,-2903.6384969,-2903.6384014,-2903.6383
 166,-2903.6382414,-2903.6381747,-2903.6381156\MP3=-2903.6479455,-2903.
 6495459,-2903.6505413,-2903.6511176,-2903.651409,-2903.6515119,-2903.6
 514951,-2903.6514068,-2903.6512799,-2903.6511362,-2903.6509896,-2903.6
 508485,-2903.6507171,-2903.6505973,-2903.6504894,-2903.6503929,-2903.6
 503069,-2903.6502302,-2903.6501621,-2903.6501017,-2903.6500481\MP4D=-2
 903.6629256,-2903.664526,-2903.6655218,-2903.6660985,-2903.6663901,-29
 03.6664929,-2903.6664758,-2903.666387,-2903.6662595,-2903.6661153,-290
 3.6659682,-2903.6658265,-2903.6656946,-2903.6655744,-2903.6654661,-290
 3.6653691,-2903.6652826,-2903.6652056,-2903.6651371,-2903.6650762,-290
 3.6650223\MP4DQ=-2903.6474564,-2903.6491306,-2903.6501898,-2903.650820
 9,-2903.6511589,-2903.6513012,-2903.6513176,-2903.6512571,-2903.651153
 4,-2903.6510292,-2903.6508988,-2903.650771,-2903.6506507,-2903.6505401
 ,-2903.6504398,-2903.6503495,-2903.6502686,-2903.6501962,-2903.6501316
 ,-2903.6500741,-2903.650023\MP4SDQ=-2903.6539727,-2903.6556178,-2903.6
 566519,-2903.657261,-2903.6575799,-2903.6577055,-2903.6577072,-2903.65
 76339,-2903.6575191,-2903.6573852,-2903.6572464,-2903.6571114,-2903.65
 69848,-2903.6568689,-2903.656764,-2903.6566697,-2903.6565854,-2903.656
 5101,-2903.656443,-2903.6563833,-2903.6563303\MP4SDTQ=-2903.684562,-29
 03.6860591,-2903.6869667,-2903.6874676,-2903.6876937,-2903.6877399,-29
 03.6876736,-2903.6875422,-2903.6873779,-2903.6872019,-2903.6870275,-29
 03.6868624,-2903.6867104,-2903.6865729,-2903.6864497,-2903.68634,-2903
 .6862426,-2903.6861561,-2903.6860795,-2903.6860116,-2903.6859516\RMSD=
 4.456e-09,8.500e-09,8.278e-09,9.293e-09,8.429e-09,7.674e-09,6.972e-09,
 7.803e-09,5.296e-09,5.551e-09,6.810e-09,5.484e-09,4.704e-09,4.376e-09,
 4.270e-09,4.271e-09,4.091e-09,3.519e-09,2.905e-09,2.479e-09,2.204e-09\
 PG=C01 [X(H2Kr1O2)]\\@


 I WOULD TAKE COUNSEL OF MYSELF.
 I WOULD STOP AND LOOK WITHIN
 AND LOOKING WITHIN, LOOK BACK, ALSO
 THAT I MAY LOOK AHEAD WITH CLEARER UNDERSTANDING
 OF THE WAY I HAVE BEEN MOVING, AND IN WHAT DIRECTION.
 I NEED TO KNOW IF I AM GOING FORWARD OR RETREATING,
 WHETHER I HAVE BEEN WASTING, OR ENJOYING
 THE PRECIOUS MOMENTS OF LIFE.  THERE HAVE BEEN FRICTIONS,
 ANNOYANCES AND SOMETIMES WRATH,
 BUT WERE THEY BECAUSE I WAS RIGHT AND OTHERS WRONG.....
 HAVE I HAD MY THOUGHTS TOO SHARPLY FOCUSED
 ON THAT WHICH PLEASED ME, SERVED MY SELF-ESTEEM,
 UNDERGIRDED MY SECURITY,
 OF WHICH I DID NOT INQUIRE WHETHER IT SERVED OR HAMPERED OTHERS.....
 HAVE I BEEN TRYING TO STOP THE CLOCK
 TO HOLD THE WORLD
 IN PERPETUATION OF WHAT WAS AN IS ALREADY SLIPPING AWAY.....
 HAVE I BEEN CRITICAL OF OTHERS FOR WHAT REALLY NEEDED CHANGING IN ME...
 LET ME INDEED TAKE COUNSEL OF MYSELF
 AND SET MY DIRECTIONS STRAIGHT.

                          R.T. WESTON AS ADAPTED BY D. OSBORN 1967
 Job cpu time:  0 days  9 hours 32 minutes 41.1 seconds.
 File lengths (MBytes):  RWF=   3952 Int=      0 D2E=      0 Chk=      4 Scr=      1
 Normal termination of Gaussian 09 at Sun Dec  1 19:26:18 2019.
