 Entering Gaussian System, Link 0=g09
 Input=/home/matheus/.ptcc/Inputs/H2O2-Kr_16.com
 Output=/home/matheus/.ptcc/Logs-MP4/H2O2-Kr_16.log
 Initial command:
 /home/matheus/.gaussian/g09/l1.exe /home/matheus/.gaussian/g09/scratch/Gau-22005.inp -scrdir=/home/matheus/.gaussian/g09/scratch/
 Entering Link 1 = /home/matheus/.gaussian/g09/l1.exe PID=     22007.
  
 Copyright (c) 1988,1990,1992,1993,1995,1998,2003,2009,2011,
            Gaussian, Inc.  All Rights Reserved.
  
 This is part of the Gaussian(R) 09 program.  It is based on
 the Gaussian(R) 03 system (copyright 2003, Gaussian, Inc.),
 the Gaussian(R) 98 system (copyright 1998, Gaussian, Inc.),
 the Gaussian(R) 94 system (copyright 1995, Gaussian, Inc.),
 the Gaussian 92(TM) system (copyright 1992, Gaussian, Inc.),
 the Gaussian 90(TM) system (copyright 1990, Gaussian, Inc.),
 the Gaussian 88(TM) system (copyright 1988, Gaussian, Inc.),
 the Gaussian 86(TM) system (copyright 1986, Carnegie Mellon
 University), and the Gaussian 82(TM) system (copyright 1983,
 Carnegie Mellon University). Gaussian is a federally registered
 trademark of Gaussian, Inc.
  
 This software contains proprietary and confidential information,
 including trade secrets, belonging to Gaussian, Inc.
  
 This software is provided under written license and may be
 used, copied, transmitted, or stored only in accord with that
 written license.
  
 The following legend is applicable only to US Government
 contracts under FAR:
  
                    RESTRICTED RIGHTS LEGEND
  
 Use, reproduction and disclosure by the US Government is
 subject to restrictions as set forth in subparagraphs (a)
 and (c) of the Commercial Computer Software - Restricted
 Rights clause in FAR 52.227-19.
  
 Gaussian, Inc.
 340 Quinnipiac St., Bldg. 40, Wallingford CT 06492
  
  
 ---------------------------------------------------------------
 Warning -- This program may not be used in any manner that
 competes with the business of Gaussian, Inc. or will provide
 assistance to any competitor of Gaussian, Inc.  The licensee
 of this program is prohibited from giving any competitor of
 Gaussian, Inc. access to this program.  By using this program,
 the user acknowledges that Gaussian, Inc. is engaged in the
 business of creating and licensing software in the field of
 computational chemistry and represents and warrants to the
 licensee that it is not a competitor of Gaussian, Inc. and that
 it will not use this program in any manner prohibited above.
 ---------------------------------------------------------------
  

 Cite this work as:
 Gaussian 09, Revision C.01,
 M. J. Frisch, G. W. Trucks, H. B. Schlegel, G. E. Scuseria, 
 M. A. Robb, J. R. Cheeseman, G. Scalmani, V. Barone, B. Mennucci, 
 G. A. Petersson, H. Nakatsuji, M. Caricato, X. Li, H. P. Hratchian, 
 A. F. Izmaylov, J. Bloino, G. Zheng, J. L. Sonnenberg, M. Hada, 
 M. Ehara, K. Toyota, R. Fukuda, J. Hasegawa, M. Ishida, T. Nakajima, 
 Y. Honda, O. Kitao, H. Nakai, T. Vreven, J. A. Montgomery, Jr., 
 J. E. Peralta, F. Ogliaro, M. Bearpark, J. J. Heyd, E. Brothers, 
 K. N. Kudin, V. N. Staroverov, T. Keith, R. Kobayashi, J. Normand, 
 K. Raghavachari, A. Rendell, J. C. Burant, S. S. Iyengar, J. Tomasi, 
 M. Cossi, N. Rega, J. M. Millam, M. Klene, J. E. Knox, J. B. Cross, 
 V. Bakken, C. Adamo, J. Jaramillo, R. Gomperts, R. E. Stratmann, 
 O. Yazyev, A. J. Austin, R. Cammi, C. Pomelli, J. W. Ochterski, 
 R. L. Martin, K. Morokuma, V. G. Zakrzewski, G. A. Voth, 
 P. Salvador, J. J. Dannenberg, S. Dapprich, A. D. Daniels, 
 O. Farkas, J. B. Foresman, J. V. Ortiz, J. Cioslowski, 
 and D. J. Fox, Gaussian, Inc., Wallingford CT, 2010.
 
 ******************************************
 Gaussian 09:  EM64L-G09RevC.01 23-Sep-2011
                 8-Dec-2019 
 ******************************************
 %mem=4GB
 %nproc=4
 Will use up to    4 processors via shared memory.
 -------------------------------------
 #p mp4/aug-cc-PVTz int=ultrafine Scan
 -------------------------------------
 1/38=1,60=1/1,8;
 2/12=2,17=6,18=5,29=3,40=1/2;
 3/5=16,6=1,7=10,11=9,16=1,25=1,30=1,75=-5/1,2,3;
 4//1;
 5/5=2,38=5/2;
 8/6=4,9=120000,10=1/1,4;
 9/5=5/13;
 6/7=2,8=2,9=2,10=2,18=1/1;
 1/60=1/8(1);
 99/9=1/99;
 2/29=3/2;
 3/5=16,6=1,7=10,11=9,16=1,25=1,30=1,75=-5/1,2,3;
 4/5=5,16=3/1;
 5/5=2,38=5/2;
 8/6=4,9=120000,10=1/1,4;
 9/5=5/13;
 1/60=1/8(-6);
 99/9=1/99;
 Leave Link    1 at Sun Dec  8 13:17:43 2019, MaxMem=  536870912 cpu:       0.0
 (Enter /home/matheus/.gaussian/g09/l101.exe)
 ----
 PTCC
 ----
 Charge =  0 Multiplicity = 1
 Symbolic Z-Matrix:
 O                     0.        0.        0.725 
 O                     0.        0.       -0.725 
 H                     0.31422  -0.86331   1.02351 
 H                     0.        0.91872  -1.02351 
 Kr                    0.       R1        0. 
       Variables:
  R1                    3.     Scan 20    0.1    
 
 NAtoms=      5 NQM=        0 NQMF=       0 NMMI=      5 NMMIF=      0
                NMic=       0 NMicF=      0.
                    Isotopes and Nuclear Properties:
 (Nuclear quadrupole moments (NQMom) in fm**2, nuclear magnetic moments (NMagM)
  in nuclear magnetons)

  Atom         1           2           3           4           5
 IAtWgt=          16          16           1           1          84
 AtmWgt=  15.9949146  15.9949146   1.0078250   1.0078250  83.9115064
 NucSpn=           0           0           1           1           0
 AtZEff=   0.0000000   0.0000000   0.0000000   0.0000000   0.0000000
 NQMom=    0.0000000   0.0000000   0.0000000   0.0000000   0.0000000
 NMagM=    0.0000000   0.0000000   2.7928460   2.7928460   0.0000000
 Leave Link  101 at Sun Dec  8 13:17:43 2019, MaxMem=  536870912 cpu:       0.2
 (Enter /home/matheus/.gaussian/g09/l108.exe)
 Scan the potential surface.
 Variable   Value     No. Steps Step-Size
 -------- ----------- --------- ---------
     1       3.000000      20      0.1000
 A total of     21 points will be computed.
 Leave Link  108 at Sun Dec  8 13:17:43 2019, MaxMem=  536870912 cpu:       0.0
 (Enter /home/matheus/.gaussian/g09/l202.exe)
 ---------------------------------------------------------------------------------------------------
                            Z-MATRIX (ANGSTROMS AND DEGREES)
   CD    Cent   Atom    N1       Length/X        N2       Alpha/Y        N3        Beta/Z          J
 ---------------------------------------------------------------------------------------------------
      1      1  O        0   0.000000          0.000000          0.725000
      2      2  O        0   0.000000          0.000000         -0.725000
      3      3  H        0   0.314221         -0.863315          1.023510
      4      4  H        0   0.000000          0.918721         -1.023510
      5      5  Kr       0   0.000000          3.000000          0.000000
 ---------------------------------------------------------------------------------------------------
                         Z-Matrix orientation:                         
 ---------------------------------------------------------------------
 Center     Atomic      Atomic             Coordinates (Angstroms)
 Number     Number       Type             X           Y           Z
 ---------------------------------------------------------------------
      1          8           0        0.000000    0.000000    0.725000
      2          8           0        0.000000    0.000000   -0.725000
      3          1           0        0.314221   -0.863315    1.023510
      4          1           0        0.000000    0.918721   -1.023510
      5         36           0        0.000000    3.000000    0.000000
 ---------------------------------------------------------------------
                    Distance matrix (angstroms):
                    1          2          3          4          5
     1  O    0.000000
     2  O    1.450000   0.000000
     3  H    0.966000   1.975180   0.000000
     4  H    1.975180   0.966000   2.732157   0.000000
     5  Kr   3.086361   3.086361   4.008929   2.319331   0.000000
 Stoichiometry    H2KrO2
 Framework group  C1[X(H2KrO2)]
 Deg. of freedom     9
 Full point group                 C1      NOp   1
 Largest Abelian subgroup         C1      NOp   1
 Largest concise Abelian subgroup C1      NOp   1
                         Standard orientation:                         
 ---------------------------------------------------------------------
 Center     Atomic      Atomic             Coordinates (Angstroms)
 Number     Number       Type             X           Y           Z
 ---------------------------------------------------------------------
      1          8           0        2.013955   -0.686971   -0.042678
      2          8           0        1.987181    0.762152    0.000071
      3          1           0        2.885209   -0.978373    0.255914
      4          1           0        1.063137    1.043301    0.015982
      5         36           0       -0.998818   -0.018511    0.001916
 ---------------------------------------------------------------------
 Rotational constants (GHZ):     26.5935251      2.3048996      2.1226538
 Leave Link  202 at Sun Dec  8 13:17:43 2019, MaxMem=  536870912 cpu:       0.0
 (Enter /home/matheus/.gaussian/g09/l301.exe)
 Standard basis: Aug-CC-pVTZ (5D, 7F)
 Ernie: Thresh=  0.10000D-02 Tol=  0.10000D-05 Strict=F.
 Ernie:  38 primitive shells out of 205 were deleted.
 There are   197 symmetry adapted basis functions of A   symmetry.
 Integral buffers will be    131072 words long.
 Raffenetti 1 integral format.
 Two-electron integral symmetry is turned on.
   197 basis functions,   415 primitive gaussians,   229 cartesian basis functions
    27 alpha electrons       27 beta electrons
       nuclear repulsion energy       148.3266950462 Hartrees.
 IExCor=    0 DFT=F Ex=HF Corr=None ExCW=0 ScaHFX=  1.000000
 ScaDFX=  1.000000  1.000000  1.000000  1.000000 ScalE2=  1.000000  1.000000
 IRadAn=      5 IRanWt=     -1 IRanGd=            0 ICorTp=0
 NAtoms=    5 NActive=    5 NUniq=    5 SFac= 1.00D+00 NAtFMM=   60 NAOKFM=F Big=F
 Leave Link  301 at Sun Dec  8 13:17:43 2019, MaxMem=  536870912 cpu:       0.1
 (Enter /home/matheus/.gaussian/g09/l302.exe)
 NPDir=0 NMtPBC=     1 NCelOv=     1 NCel=       1 NClECP=     1 NCelD=      1
         NCelK=      1 NCelE2=     1 NClLst=     1 CellRange=     0.0.
 One-electron integrals computed using PRISM.
 NBasis=   197 RedAO= T  NBF=   197
 NBsUse=   197 1.00D-06 NBFU=   197
 Leave Link  302 at Sun Dec  8 13:17:43 2019, MaxMem=  536870912 cpu:       0.4
 (Enter /home/matheus/.gaussian/g09/l303.exe)
 DipDrv:  MaxL=1.
 Leave Link  303 at Sun Dec  8 13:17:43 2019, MaxMem=  536870912 cpu:       0.1
 (Enter /home/matheus/.gaussian/g09/l401.exe)
 Harris functional with IExCor=  205 diagonalized for initial guess.
 ExpMin= 2.53D-02 ExpMax= 1.17D+07 ExpMxC= 1.33D+04 IAcc=3 IRadAn=         5 AccDes= 0.00D+00
 HarFok:  IExCor=  205 AccDes= 0.00D+00 IRadAn=         5 IDoV= 1
 ScaDFX=  1.000000  1.000000  1.000000  1.000000
 FoFCou: FMM=F IPFlag=           0 FMFlag=      100000 FMFlg1=           0
         NFxFlg=           0 DoJE=T BraDBF=F KetDBF=T FulRan=T
         Omega=  0.000000  0.000000  1.000000  0.000000  0.000000 ICntrl=     500 IOpCl=  0
         NMat0=    1 NMatS0=    1 NMatT0=    0 NMatD0=    1 NMtDS0=    0 NMtDT0=    0
         I1Cent=           4 NGrid=           0.
 Petite list used in FoFCou.
 Harris En= -2901.92983303209    
 Initial guess orbital symmetries:
       Occupied  (A) (A) (A) (A) (A) (A) (A) (A) (A) (A) (A) (A)
                 (A) (A) (A) (A) (A) (A) (A) (A) (A) (A) (A) (A)
                 (A) (A) (A)
       Virtual   (A) (A) (A) (A) (A) (A) (A) (A) (A) (A) (A) (A)
                 (A) (A) (A) (A) (A) (A) (A) (A) (A) (A) (A) (A)
                 (A) (A) (A) (A) (A) (A) (A) (A) (A) (A) (A) (A)
                 (A) (A) (A) (A) (A) (A) (A) (A) (A) (A) (A) (A)
                 (A) (A) (A) (A) (A) (A) (A) (A) (A) (A) (A) (A)
                 (A) (A) (A) (A) (A) (A) (A) (A) (A) (A) (A) (A)
                 (A) (A) (A) (A) (A) (A) (A) (A) (A) (A) (A) (A)
                 (A) (A) (A) (A) (A) (A) (A) (A) (A) (A) (A) (A)
                 (A) (A) (A) (A) (A) (A) (A) (A) (A) (A) (A) (A)
                 (A) (A) (A) (A) (A) (A) (A) (A) (A) (A) (A) (A)
                 (A) (A) (A) (A) (A) (A) (A) (A) (A) (A) (A) (A)
                 (A) (A) (A) (A) (A) (A) (A) (A) (A) (A) (A) (A)
                 (A) (A) (A) (A) (A) (A) (A) (A) (A) (A) (A) (A)
                 (A) (A) (A) (A) (A) (A) (A) (A) (A) (A) (A) (A)
                 (A) (A)
 The electronic state of the initial guess is 1-A.
 Leave Link  401 at Sun Dec  8 13:17:44 2019, MaxMem=  536870912 cpu:       1.4
 (Enter /home/matheus/.gaussian/g09/l502.exe)
 Closed shell SCF:
 Requested convergence on RMS density matrix=1.00D-08 within 128 cycles.
 Requested convergence on MAX density matrix=1.00D-06.
 Requested convergence on             energy=1.00D-06.
 No special actions if energy rises.
 Using DIIS extrapolation, IDIIS=  1040.
 Integral symmetry usage will be decided dynamically.
 Keep R1 ints in memory in canonical form, NReq=353041168.
 IEnd=      178489 IEndB=      178489 NGot=   536870912 MDV=   189982426
 LenX=   189982426 LenY=   189929544
 Symmetry not used in FoFDir.
 MinBra= 0 MaxBra= 3 Meth= 1.
 IRaf=       0 NMat=   1 IRICut=       1 DoRegI=T DoRafI=F ISym2E= 0 JSym2E=0.

 Cycle   1  Pass 1  IDiag  1:
 E= -2902.75812612999    
 DIIS: error= 3.53D-02 at cycle   1 NSaved=   1.
 NSaved= 1 IEnMin= 1 EnMin= -2902.75812612999     IErMin= 1 ErrMin= 3.53D-02
 ErrMax= 3.53D-02 EMaxC= 1.00D-01 BMatC= 6.92D-01 BMatP= 6.92D-01
 IDIUse=3 WtCom= 6.47D-01 WtEn= 3.53D-01
 Coeff-Com:  0.100D+01
 Coeff-En:   0.100D+01
 Coeff:      0.100D+01
 Gap=     0.677 Goal=   None    Shift=    0.000
 GapD=    0.677 DampG=2.000 DampE=0.500 DampFc=1.0000 IDamp=-1.
 RMSDP=2.28D-03 MaxDP=1.50D-01              OVMax= 5.84D-02

 Cycle   2  Pass 1  IDiag  1:
 E= -2902.86276917097     Delta-E=       -0.104643040984 Rises=F Damp=F
 DIIS: error= 8.73D-03 at cycle   2 NSaved=   2.
 NSaved= 2 IEnMin= 2 EnMin= -2902.86276917097     IErMin= 2 ErrMin= 8.73D-03
 ErrMax= 8.73D-03 EMaxC= 1.00D-01 BMatC= 4.00D-02 BMatP= 6.92D-01
 IDIUse=3 WtCom= 9.13D-01 WtEn= 8.73D-02
 Coeff-Com:  0.151D+00 0.849D+00
 Coeff-En:   0.000D+00 0.100D+01
 Coeff:      0.138D+00 0.862D+00
 Gap=     0.513 Goal=   None    Shift=    0.000
 RMSDP=7.95D-04 MaxDP=4.22D-02 DE=-1.05D-01 OVMax= 2.24D-02

 Cycle   3  Pass 1  IDiag  1:
 E= -2902.87622765353     Delta-E=       -0.013458482555 Rises=F Damp=F
 DIIS: error= 2.20D-03 at cycle   3 NSaved=   3.
 NSaved= 3 IEnMin= 3 EnMin= -2902.87622765353     IErMin= 3 ErrMin= 2.20D-03
 ErrMax= 2.20D-03 EMaxC= 1.00D-01 BMatC= 2.27D-03 BMatP= 4.00D-02
 IDIUse=3 WtCom= 9.78D-01 WtEn= 2.20D-02
 Coeff-Com: -0.655D-02 0.169D+00 0.838D+00
 Coeff-En:   0.000D+00 0.000D+00 0.100D+01
 Coeff:     -0.640D-02 0.165D+00 0.841D+00
 Gap=     0.490 Goal=   None    Shift=    0.000
 RMSDP=1.21D-04 MaxDP=5.10D-03 DE=-1.35D-02 OVMax= 7.60D-03

 Cycle   4  Pass 1  IDiag  1:
 E= -2902.87730228498     Delta-E=       -0.001074631454 Rises=F Damp=F
 DIIS: error= 4.15D-04 at cycle   4 NSaved=   4.
 NSaved= 4 IEnMin= 4 EnMin= -2902.87730228498     IErMin= 4 ErrMin= 4.15D-04
 ErrMax= 4.15D-04 EMaxC= 1.00D-01 BMatC= 4.29D-05 BMatP= 2.27D-03
 IDIUse=3 WtCom= 9.96D-01 WtEn= 4.15D-03
 Coeff-Com: -0.416D-02 0.985D-02 0.146D+00 0.848D+00
 Coeff-En:   0.000D+00 0.000D+00 0.000D+00 0.100D+01
 Coeff:     -0.414D-02 0.981D-02 0.146D+00 0.849D+00
 Gap=     0.494 Goal=   None    Shift=    0.000
 RMSDP=2.03D-05 MaxDP=6.66D-04 DE=-1.07D-03 OVMax= 1.57D-03

 Cycle   5  Pass 1  IDiag  1:
 E= -2902.87733768380     Delta-E=       -0.000035398815 Rises=F Damp=F
 DIIS: error= 1.45D-04 at cycle   5 NSaved=   5.
 NSaved= 5 IEnMin= 5 EnMin= -2902.87733768380     IErMin= 5 ErrMin= 1.45D-04
 ErrMax= 1.45D-04 EMaxC= 1.00D-01 BMatC= 3.18D-06 BMatP= 4.29D-05
 IDIUse=3 WtCom= 9.99D-01 WtEn= 1.45D-03
 Coeff-Com:  0.779D-03-0.146D-01-0.689D-01 0.182D-01 0.106D+01
 Coeff-En:   0.000D+00 0.000D+00 0.000D+00 0.000D+00 0.100D+01
 Coeff:      0.778D-03-0.145D-01-0.688D-01 0.182D-01 0.106D+01
 Gap=     0.494 Goal=   None    Shift=    0.000
 RMSDP=9.31D-06 MaxDP=3.01D-04 DE=-3.54D-05 OVMax= 8.34D-04

 Cycle   6  Pass 1  IDiag  1:
 E= -2902.87734220430     Delta-E=       -0.000004520500 Rises=F Damp=F
 DIIS: error= 3.24D-05 at cycle   6 NSaved=   6.
 NSaved= 6 IEnMin= 6 EnMin= -2902.87734220430     IErMin= 6 ErrMin= 3.24D-05
 ErrMax= 3.24D-05 EMaxC= 1.00D-01 BMatC= 2.00D-07 BMatP= 3.18D-06
 IDIUse=1 WtCom= 1.00D+00 WtEn= 0.00D+00
 Coeff-Com:  0.181D-03 0.154D-03-0.677D-02-0.564D-01-0.176D-01 0.108D+01
 Coeff:      0.181D-03 0.154D-03-0.677D-02-0.564D-01-0.176D-01 0.108D+01
 Gap=     0.494 Goal=   None    Shift=    0.000
 RMSDP=2.68D-06 MaxDP=8.26D-05 DE=-4.52D-06 OVMax= 2.26D-04

 Cycle   7  Pass 1  IDiag  1:
 E= -2902.87734259389     Delta-E=       -0.000000389597 Rises=F Damp=F
 DIIS: error= 1.17D-05 at cycle   7 NSaved=   7.
 NSaved= 7 IEnMin= 7 EnMin= -2902.87734259389     IErMin= 7 ErrMin= 1.17D-05
 ErrMax= 1.17D-05 EMaxC= 1.00D-01 BMatC= 2.39D-08 BMatP= 2.00D-07
 IDIUse=1 WtCom= 1.00D+00 WtEn= 0.00D+00
 Coeff-Com: -0.277D-04 0.110D-02 0.421D-02-0.887D-02-0.798D-01 0.106D+00
 Coeff-Com:  0.977D+00
 Coeff:     -0.277D-04 0.110D-02 0.421D-02-0.887D-02-0.798D-01 0.106D+00
 Coeff:      0.977D+00
 Gap=     0.494 Goal=   None    Shift=    0.000
 RMSDP=9.46D-07 MaxDP=3.72D-05 DE=-3.90D-07 OVMax= 9.30D-05

 Cycle   8  Pass 1  IDiag  1:
 E= -2902.87734264104     Delta-E=       -0.000000047146 Rises=F Damp=F
 DIIS: error= 4.78D-06 at cycle   8 NSaved=   8.
 NSaved= 8 IEnMin= 8 EnMin= -2902.87734264104     IErMin= 8 ErrMin= 4.78D-06
 ErrMax= 4.78D-06 EMaxC= 1.00D-01 BMatC= 7.02D-09 BMatP= 2.39D-08
 IDIUse=1 WtCom= 1.00D+00 WtEn= 0.00D+00
 Coeff-Com: -0.310D-04 0.281D-03 0.220D-02 0.558D-02-0.216D-01-0.133D+00
 Coeff-Com:  0.323D+00 0.823D+00
 Coeff:     -0.310D-04 0.281D-03 0.220D-02 0.558D-02-0.216D-01-0.133D+00
 Coeff:      0.323D+00 0.823D+00
 Gap=     0.494 Goal=   None    Shift=    0.000
 RMSDP=4.27D-07 MaxDP=9.89D-06 DE=-4.71D-08 OVMax= 5.21D-05

 Cycle   9  Pass 1  IDiag  1:
 E= -2902.87734265224     Delta-E=       -0.000000011200 Rises=F Damp=F
 DIIS: error= 2.06D-06 at cycle   9 NSaved=   9.
 NSaved= 9 IEnMin= 9 EnMin= -2902.87734265224     IErMin= 9 ErrMin= 2.06D-06
 ErrMax= 2.06D-06 EMaxC= 1.00D-01 BMatC= 7.97D-10 BMatP= 7.02D-09
 IDIUse=1 WtCom= 1.00D+00 WtEn= 0.00D+00
 Coeff-Com:  0.834D-05-0.201D-03-0.985D-03-0.223D-03 0.149D-01 0.213D-01
 Coeff-Com: -0.214D+00-0.263D+00 0.144D+01
 Coeff:      0.834D-05-0.201D-03-0.985D-03-0.223D-03 0.149D-01 0.213D-01
 Coeff:     -0.214D+00-0.263D+00 0.144D+01
 Gap=     0.494 Goal=   None    Shift=    0.000
 RMSDP=3.21D-07 MaxDP=7.16D-06 DE=-1.12D-08 OVMax= 4.79D-05

 Cycle  10  Pass 1  IDiag  1:
 E= -2902.87734265603     Delta-E=       -0.000000003787 Rises=F Damp=F
 DIIS: error= 1.03D-06 at cycle  10 NSaved=  10.
 NSaved=10 IEnMin=10 EnMin= -2902.87734265603     IErMin=10 ErrMin= 1.03D-06
 ErrMax= 1.03D-06 EMaxC= 1.00D-01 BMatC= 1.61D-10 BMatP= 7.97D-10
 IDIUse=1 WtCom= 1.00D+00 WtEn= 0.00D+00
 Coeff-Com:  0.192D-05 0.719D-04 0.130D-03-0.129D-02-0.393D-02 0.157D-01
 Coeff-Com:  0.630D-01-0.263D-01-0.809D+00 0.176D+01
 Coeff:      0.192D-05 0.719D-04 0.130D-03-0.129D-02-0.393D-02 0.157D-01
 Coeff:      0.630D-01-0.263D-01-0.809D+00 0.176D+01
 Gap=     0.494 Goal=   None    Shift=    0.000
 RMSDP=2.08D-07 MaxDP=5.02D-06 DE=-3.79D-09 OVMax= 3.31D-05

 Cycle  11  Pass 1  IDiag  1:
 E= -2902.87734265697     Delta-E=       -0.000000000942 Rises=F Damp=F
 DIIS: error= 3.19D-07 at cycle  11 NSaved=  11.
 NSaved=11 IEnMin=11 EnMin= -2902.87734265697     IErMin=11 ErrMin= 3.19D-07
 ErrMax= 3.19D-07 EMaxC= 1.00D-01 BMatC= 1.38D-11 BMatP= 1.61D-10
 IDIUse=1 WtCom= 1.00D+00 WtEn= 0.00D+00
 Coeff-Com: -0.221D-05-0.123D-04 0.750D-04 0.862D-03-0.326D-03-0.130D-01
 Coeff-Com:  0.429D-02 0.621D-01 0.146D+00-0.750D+00 0.155D+01
 Coeff:     -0.221D-05-0.123D-04 0.750D-04 0.862D-03-0.326D-03-0.130D-01
 Coeff:      0.429D-02 0.621D-01 0.146D+00-0.750D+00 0.155D+01
 Gap=     0.494 Goal=   None    Shift=    0.000
 RMSDP=5.68D-08 MaxDP=1.36D-06 DE=-9.42D-10 OVMax= 8.89D-06

 Cycle  12  Pass 1  IDiag  1:
 E= -2902.87734265704     Delta-E=       -0.000000000066 Rises=F Damp=F
 DIIS: error= 7.29D-08 at cycle  12 NSaved=  12.
 NSaved=12 IEnMin=12 EnMin= -2902.87734265704     IErMin=12 ErrMin= 7.29D-08
 ErrMax= 7.29D-08 EMaxC= 1.00D-01 BMatC= 8.79D-13 BMatP= 1.38D-11
 IDIUse=1 WtCom= 1.00D+00 WtEn= 0.00D+00
 Coeff-Com:  0.112D-06-0.510D-05-0.240D-04 0.382D-04 0.412D-03-0.266D-03
 Coeff-Com: -0.541D-02-0.840D-03 0.377D-01-0.407D-01-0.208D+00 0.122D+01
 Coeff:      0.112D-06-0.510D-05-0.240D-04 0.382D-04 0.412D-03-0.266D-03
 Coeff:     -0.541D-02-0.840D-03 0.377D-01-0.407D-01-0.208D+00 0.122D+01
 Gap=     0.494 Goal=   None    Shift=    0.000
 RMSDP=1.07D-08 MaxDP=2.44D-07 DE=-6.64D-11 OVMax= 1.50D-06

 Cycle  13  Pass 1  IDiag  1:
 E= -2902.87734265702     Delta-E=        0.000000000011 Rises=F Damp=F
 DIIS: error= 2.04D-08 at cycle  13 NSaved=  13.
 NSaved=13 IEnMin=12 EnMin= -2902.87734265704     IErMin=13 ErrMin= 2.04D-08
 ErrMax= 2.04D-08 EMaxC= 1.00D-01 BMatC= 1.14D-13 BMatP= 8.79D-13
 IDIUse=1 WtCom= 1.00D+00 WtEn= 0.00D+00
 Coeff-Com:  0.201D-06 0.173D-05-0.477D-05-0.864D-04-0.138D-04 0.132D-02
 Coeff-Com: -0.164D-03-0.456D-02-0.194D-01 0.747D-01-0.115D+00-0.144D+00
 Coeff-Com:  0.121D+01
 Coeff:      0.201D-06 0.173D-05-0.477D-05-0.864D-04-0.138D-04 0.132D-02
 Coeff:     -0.164D-03-0.456D-02-0.194D-01 0.747D-01-0.115D+00-0.144D+00
 Coeff:      0.121D+01
 Gap=     0.494 Goal=   None    Shift=    0.000
 RMSDP=3.01D-09 MaxDP=5.78D-08 DE= 1.14D-11 OVMax= 3.07D-07

 SCF Done:  E(RHF) =  -2902.87734266     A.U. after   13 cycles
             Convg  =    0.3007D-08             -V/T =  2.0001
 KE= 2.902624720296D+03 PE=-7.237265992909D+03 EE= 1.283437234910D+03
 Leave Link  502 at Sun Dec  8 13:17:53 2019, MaxMem=  536870912 cpu:      38.0
 (Enter /home/matheus/.gaussian/g09/l801.exe)
 Windowed orbitals will be sorted by symmetry type.
 ExpMin= 2.53D-02 ExpMax= 1.17D+07 ExpMxC= 1.33D+04 IAcc=3 IRadAn=         5 AccDes= 0.00D+00
 HarFok:  IExCor=  205 AccDes= 0.00D+00 IRadAn=         5 IDoV=-2
 ScaDFX=  1.000000  1.000000  1.000000  1.000000
 DSYEVD returned Info=          93 IAlg= 4 N=    46 NDim=    46 NE2=     9097315 trying DSYEV.
 Largest valence mixing into a core orbital is  1.44D-04
 Largest core mixing into a valence orbital is  2.59D-05
 Range of M.O.s used for correlation:    12   197
 NBasis=   197 NAE=    27 NBE=    27 NFC=    11 NFV=     0
 NROrb=    186 NOA=    16 NOB=    16 NVA=   170 NVB=   170

 **** Warning!!: The largest alpha MO coefficient is  0.12544003D+02

 Leave Link  801 at Sun Dec  8 13:17:53 2019, MaxMem=  536870912 cpu:       0.3
 (Enter /home/matheus/.gaussian/g09/l804.exe)
 Closed-shell transformation, MDV=   536870912 ITran=4 ISComp=1.
 Semi-Direct transformation.
 ModeAB=           2 MOrb=            16 LenV=     535762488
 LASXX=     48528660 LTotXX=    48528660 LenRXX=    48528660
 LTotAB=    49298776 MaxLAS=    78372960 LenRXY=    78372960
 NonZer=    97057320 LenScr=   146313216 LnRSAI=           0
 LnScr1=           0 LExtra=           0 Total=    273214836
 MaxDsk=          -1 SrtSym=           F ITran=            4
 DoSDTr:  NPSUse=  4
 JobTyp=0 Pass  1:  I=   1 to  16.
 (rs|ai) integrals will be sorted in core.
 Complete sort for first half transformation.
 First half transformation complete.
 Begin second half transformation for I=  10.
 Begin second half transformation for I=  10.
 Complete sort for second half transformation.
 Second half transformation complete.
 SymMOI:  orbitals are not symmetric.
 Spin components of T(2) and E(2):
     alpha-alpha T2 =       0.2591517643D-01 E2=     -0.9987973599D-01
     alpha-beta  T2 =       0.1417666329D+00 E2=     -0.5562712857D+00
     beta-beta   T2 =       0.2591517643D-01 E2=     -0.9987973599D-01
 ANorm=    0.1092518643D+01
 E2 =    -0.7560307577D+00 EUMP2 =    -0.29036333734147D+04
 Leave Link  804 at Sun Dec  8 13:18:11 2019, MaxMem=  536870912 cpu:      71.3
 (Enter /home/matheus/.gaussian/g09/l913.exe)
 CIDS:  MDV=   536870912.
 Frozen-core window:  NFC=  11 NFV=   0.
 IFCWin=0 IBDFC=1 NFBD=     0     0 NFCmp=     0     0 NFFFC=     0     0
 Using DD3R+UMP44R for 1st iteration, S=T.
 Using DD4RQ for 2nd and later iterations.
 Would need an additional       162771220 words for in-memory AO integral storage.
 MP4(SDTQ)
 =========
 DD1Dir will call FoFDir   1 times, MxPair=       272
 NAB=   136 NAA=     0 NBB=     0 NumPrc=  4.
 Integrals replicated using symmetry in FoFDir.
 MinBra= 0 MaxBra= 3 Meth= 1.
 IRaf=       0 NMat= 272 IRICut=     340 DoRegI=T DoRafI=T ISym2E= 2 JSym2E=2.
 MP4(D)= -0.14947712D-01
 MP4(S)= -0.64003476D-02
 MP4(R+Q)=  0.15350470D-01
 T4(AAA)= -0.10380475D-02
 T4(AAB)= -0.14133999D-01
 Time for triples=     1640.56 seconds.
 MP4(T)=   -0.30344093D-01
 E3=       -0.11327894D-01        EUMP3=      -0.29036447013D+04
 E4(DQ)=    0.40275754D-03        UMP4(DQ)=   -0.29036442986D+04
 E4(SDQ)=  -0.59975900D-02        UMP4(SDQ)=  -0.29036506989D+04
 E4(SDTQ)= -0.36341683D-01        UMP4(SDTQ)= -0.29036810430D+04
 VARIATIONAL ENERGIES WITH THE FIRST-ORDER WAVEFUNCTION:
 E(VAR1)=  -0.29035202386D+04     E(CISD,4)=  -0.29035196841D+04
 Largest amplitude= 2.87D-02
 Leave Link  913 at Sun Dec  8 13:25:36 2019, MaxMem=  536870912 cpu:    1770.8
 (Enter /home/matheus/.gaussian/g09/l601.exe)
 Copying SCF densities to generalized density rwf, IOpCl= 0 IROHF=0.

 **********************************************************************

            Population analysis using the SCF density.

 **********************************************************************

 Orbital symmetries:
       Occupied  (A) (A) (A) (A) (A) (A) (A) (A) (A) (A) (A) (A)
                 (A) (A) (A) (A) (A) (A) (A) (A) (A) (A) (A) (A)
                 (A) (A) (A)
       Virtual   (A) (A) (A) (A) (A) (A) (A) (A) (A) (A) (A) (A)
                 (A) (A) (A) (A) (A) (A) (A) (A) (A) (A) (A) (A)
                 (A) (A) (A) (A) (A) (A) (A) (A) (A) (A) (A) (A)
                 (A) (A) (A) (A) (A) (A) (A) (A) (A) (A) (A) (A)
                 (A) (A) (A) (A) (A) (A) (A) (A) (A) (A) (A) (A)
                 (A) (A) (A) (A) (A) (A) (A) (A) (A) (A) (A) (A)
                 (A) (A) (A) (A) (A) (A) (A) (A) (A) (A) (A) (A)
                 (A) (A) (A) (A) (A) (A) (A) (A) (A) (A) (A) (A)
                 (A) (A) (A) (A) (A) (A) (A) (A) (A) (A) (A) (A)
                 (A) (A) (A) (A) (A) (A) (A) (A) (A) (A) (A) (A)
                 (A) (A) (A) (A) (A) (A) (A) (A) (A) (A) (A) (A)
                 (A) (A) (A) (A) (A) (A) (A) (A) (A) (A) (A) (A)
                 (A) (A) (A) (A) (A) (A) (A) (A) (A) (A) (A) (A)
                 (A) (A) (A) (A) (A) (A) (A) (A) (A) (A) (A) (A)
                 (A) (A)
 The electronic state is 1-A.
 Alpha  occ. eigenvalues -- -520.17290 -69.91045 -63.01703 -63.01701 -63.01697
 Alpha  occ. eigenvalues --  -20.62691 -20.62351 -10.85708  -8.33932  -8.33905
 Alpha  occ. eigenvalues --   -8.33890  -3.83312  -3.83306  -3.83286  -3.83258
 Alpha  occ. eigenvalues --   -3.83255  -1.46437  -1.21679  -1.16292  -0.71474
 Alpha  occ. eigenvalues --   -0.70174  -0.62148  -0.54340  -0.53193  -0.52802
 Alpha  occ. eigenvalues --   -0.51681  -0.45789
 Alpha virt. eigenvalues --    0.03587   0.04508   0.08886   0.10543   0.11443
 Alpha virt. eigenvalues --    0.12477   0.15288   0.16350   0.17264   0.18020
 Alpha virt. eigenvalues --    0.19618   0.21273   0.24928   0.25958   0.26687
 Alpha virt. eigenvalues --    0.28287   0.29017   0.31516   0.33579   0.35942
 Alpha virt. eigenvalues --    0.36691   0.37525   0.38985   0.41768   0.43106
 Alpha virt. eigenvalues --    0.44894   0.45813   0.52268   0.56817   0.59504
 Alpha virt. eigenvalues --    0.61513   0.64861   0.69386   0.70557   0.74215
 Alpha virt. eigenvalues --    0.76647   0.77645   0.78192   0.79619   0.81559
 Alpha virt. eigenvalues --    0.84069   0.84848   0.85384   0.86821   0.87824
 Alpha virt. eigenvalues --    0.90642   0.91004   0.93506   0.94109   0.97983
 Alpha virt. eigenvalues --    0.99070   1.01207   1.01366   1.03221   1.06861
 Alpha virt. eigenvalues --    1.09229   1.10952   1.13026   1.14464   1.17400
 Alpha virt. eigenvalues --    1.19584   1.21756   1.23601   1.25132   1.27917
 Alpha virt. eigenvalues --    1.35530   1.39867   1.45654   1.49261   1.50521
 Alpha virt. eigenvalues --    1.55044   1.61046   1.61704   1.65308   1.70403
 Alpha virt. eigenvalues --    1.72313   1.90149   1.95563   1.98782   2.08244
 Alpha virt. eigenvalues --    2.14480   2.14677   2.19298   2.28491   2.29935
 Alpha virt. eigenvalues --    2.34035   2.35329   2.37076   2.41059   2.41897
 Alpha virt. eigenvalues --    2.46053   2.46891   2.53012   2.53340   2.54343
 Alpha virt. eigenvalues --    2.55909   2.58270   2.62157   2.64680   2.67445
 Alpha virt. eigenvalues --    2.68943   2.69981   2.70997   2.73869   2.74942
 Alpha virt. eigenvalues --    2.78686   2.80781   2.82768   2.86145   2.87409
 Alpha virt. eigenvalues --    2.91210   2.94298   2.95458   3.03315   3.09105
 Alpha virt. eigenvalues --    3.13796   3.27015   3.28658   3.35376   3.75988
 Alpha virt. eigenvalues --    3.93442   4.11101   4.15791   4.28446   4.29440
 Alpha virt. eigenvalues --    4.37071   4.37407   4.39305   4.43937   4.49189
 Alpha virt. eigenvalues --    4.61626   4.70671   4.77606   4.83618   5.04830
 Alpha virt. eigenvalues --    5.17057   5.25937   5.28916   5.33252   5.36668
 Alpha virt. eigenvalues --    5.62484   5.80917   6.16165   6.32684   6.42019
 Alpha virt. eigenvalues --    6.46329   6.65984   6.69144   6.76826   6.83703
 Alpha virt. eigenvalues --    7.06595   7.11539   7.11856   7.20463   7.21556
 Alpha virt. eigenvalues --    7.24463   7.30875   7.32350   7.34234   7.37621
 Alpha virt. eigenvalues --    7.40949   7.62443   7.63102   7.76256   8.04448
 Alpha virt. eigenvalues --    8.23774   8.50289   8.54782  14.74088  15.25359
          Condensed to atoms (all electrons):
              1          2          3          4          5
     1  O    8.114786  -0.060503   0.239158  -0.015875  -0.028615
     2  O   -0.060503   8.125412  -0.005391   0.262996  -0.011107
     3  H    0.239158  -0.005391   0.501618   0.004907   0.002396
     4  H   -0.015875   0.262996   0.004907   0.461645  -0.004812
     5  Kr  -0.028615  -0.011107   0.002396  -0.004812  36.030228
 Mulliken atomic charges:
              1
     1  O   -0.248951
     2  O   -0.311408
     3  H    0.257312
     4  H    0.291138
     5  Kr   0.011910
 Sum of Mulliken atomic charges =   0.00000
 Mulliken charges with hydrogens summed into heavy atoms:
              1
     1  O    0.008361
     2  O   -0.020270
     5  Kr   0.011910
 Sum of Mulliken charges with hydrogens summed into heavy atoms =   0.00000
 Electronic spatial extent (au):  <R**2>=            491.8526
 Charge=              0.0000 electrons
 Dipole moment (field-independent basis, Debye):
    X=             -0.2318    Y=             -0.2801    Z=              0.5660  Tot=              0.6727
 Quadrupole moment (field-independent basis, Debye-Ang):
   XX=            -26.6933   YY=            -28.2856   ZZ=            -30.3406
   XY=             -3.9458   XZ=              1.7687   YZ=             -0.5962
 Traceless Quadrupole moment (field-independent basis, Debye-Ang):
   XX=              1.7465   YY=              0.1542   ZZ=             -1.9008
   XY=             -3.9458   XZ=              1.7687   YZ=             -0.5962
 Octapole moment (field-independent basis, Debye-Ang**2):
  XXX=              0.0058  YYY=             -0.6112  ZZZ=              0.2488  XYY=             -4.0195
  XXY=            -16.5652  XXZ=              5.2745  XZZ=             -7.6578  YZZ=             -0.4511
  YYZ=              0.7053  XYZ=             -1.8340
 Hexadecapole moment (field-independent basis, Debye-Ang**3):
 XXXX=           -343.0502 YYYY=            -63.1328 ZZZZ=            -28.8176 XXXY=            -51.9047
 XXXZ=             15.9881 YYYX=             -5.7456 YYYZ=             -0.7470 ZZZX=              0.7863
 ZZZY=             -0.3465 XXYY=            -74.6987 XXZZ=            -77.8669 YYZZ=            -17.0065
 XXYZ=             -5.5075 YYXZ=              2.0424 ZZXY=             -0.8596
 N-N= 1.483266950462D+02 E-N=-7.237265993809D+03  KE= 2.902624720296D+03
 Leave Link  601 at Sun Dec  8 13:25:36 2019, MaxMem=  536870912 cpu:       0.2
 (Enter /home/matheus/.gaussian/g09/l108.exe)
 Variable Step   Value    
 -------- ---- -----------
     1       1    5.858151
 Leave Link  108 at Sun Dec  8 13:25:36 2019, MaxMem=  536870912 cpu:       0.1
 (Enter /home/matheus/.gaussian/g09/l202.exe)
 ---------------------------------------------------------------------------------------------------
                            Z-MATRIX (ANGSTROMS AND DEGREES)
   CD    Cent   Atom    N1       Length/X        N2       Alpha/Y        N3        Beta/Z          J
 ---------------------------------------------------------------------------------------------------
      1      1  O        0   0.000000          0.000000          0.725000
      2      2  O        0   0.000000          0.000000         -0.725000
      3      3  H        0   0.314221         -0.863315          1.023510
      4      4  H        0   0.000000          0.918721         -1.023510
      5      5  Kr       0   0.000000          3.100000          0.000000
 ---------------------------------------------------------------------------------------------------
                         Z-Matrix orientation:                         
 ---------------------------------------------------------------------
 Center     Atomic      Atomic             Coordinates (Angstroms)
 Number     Number       Type             X           Y           Z
 ---------------------------------------------------------------------
      1          8           0        0.000000    0.000000    0.725000
      2          8           0        0.000000    0.000000   -0.725000
      3          1           0        0.314221   -0.863315    1.023510
      4          1           0        0.000000    0.918721   -1.023510
      5         36           0        0.000000    3.100000    0.000000
 ---------------------------------------------------------------------
                    Distance matrix (angstroms):
                    1          2          3          4          5
     1  O    0.000000
     2  O    1.450000   0.000000
     3  H    0.966000   1.975180   0.000000
     4  H    1.975180   0.966000   2.732157   0.000000
     5  Kr   3.183650   3.183650   4.105384   2.409472   0.000000
 Stoichiometry    H2KrO2
 Framework group  C1[X(H2KrO2)]
 Deg. of freedom     9
 Full point group                 C1      NOp   1
 RotChk:  IX=0 Diff= 1.86D-03
 Largest Abelian subgroup         C1      NOp   1
 Largest concise Abelian subgroup C1      NOp   1
                         Standard orientation:                         
 ---------------------------------------------------------------------
 Center     Atomic      Atomic             Coordinates (Angstroms)
 Number     Number       Type             X           Y           Z
 ---------------------------------------------------------------------
      1          8           0        2.079741   -0.688386   -0.042599
      2          8           0        2.054811    0.760767    0.000228
      3          1           0        2.950529   -0.980923    0.256242
      4          1           0        1.131122    1.043099    0.015874
      5         36           0       -1.032168   -0.017812    0.001857
 ---------------------------------------------------------------------
 Rotational constants (GHZ):     26.5917969      2.1596003      1.9987973
 Leave Link  202 at Sun Dec  8 13:25:36 2019, MaxMem=  536870912 cpu:       0.0
 (Enter /home/matheus/.gaussian/g09/l301.exe)
 Standard basis: Aug-CC-pVTZ (5D, 7F)
 Ernie: Thresh=  0.10000D-02 Tol=  0.10000D-05 Strict=F.
 Ernie:  38 primitive shells out of 205 were deleted.
 There are   197 symmetry adapted basis functions of A   symmetry.
 Integral buffers will be    131072 words long.
 Raffenetti 1 integral format.
 Two-electron integral symmetry is turned on.
   197 basis functions,   415 primitive gaussians,   229 cartesian basis functions
    27 alpha electrons       27 beta electrons
       nuclear repulsion energy       144.8898081498 Hartrees.
 IExCor=    0 DFT=F Ex=HF Corr=None ExCW=0 ScaHFX=  1.000000
 ScaDFX=  1.000000  1.000000  1.000000  1.000000 ScalE2=  1.000000  1.000000
 IRadAn=      5 IRanWt=     -1 IRanGd=            0 ICorTp=0
 NAtoms=    5 NActive=    5 NUniq=    5 SFac= 1.00D+00 NAtFMM=   60 NAOKFM=F Big=F
 Leave Link  301 at Sun Dec  8 13:25:36 2019, MaxMem=  536870912 cpu:       0.1
 (Enter /home/matheus/.gaussian/g09/l302.exe)
 NPDir=0 NMtPBC=     1 NCelOv=     1 NCel=       1 NClECP=     1 NCelD=      1
         NCelK=      1 NCelE2=     1 NClLst=     1 CellRange=     0.0.
 One-electron integrals computed using PRISM.
 NBasis=   197 RedAO= T  NBF=   197
 NBsUse=   197 1.00D-06 NBFU=   197
 Leave Link  302 at Sun Dec  8 13:25:36 2019, MaxMem=  536870912 cpu:       0.4
 (Enter /home/matheus/.gaussian/g09/l303.exe)
 DipDrv:  MaxL=1.
 Leave Link  303 at Sun Dec  8 13:25:36 2019, MaxMem=  536870912 cpu:       0.1
 (Enter /home/matheus/.gaussian/g09/l401.exe)
 Initial guess read from the read-write file.
 B after Tr=     0.000000    0.000000    0.000000
         Rot=    1.000000    0.000000    0.000000    0.000000 Ang=   0.00 deg.
 Guess basis will be translated and rotated to current coordinates.
 Initial guess orbital symmetries:
       Occupied  (A) (A) (A) (A) (A) (A) (A) (A) (A) (A) (A) (A)
                 (A) (A) (A) (A) (A) (A) (A) (A) (A) (A) (A) (A)
                 (A) (A) (A)
       Virtual   (A) (A) (A) (A) (A) (A) (A) (A) (A) (A) (A) (A)
                 (A) (A) (A) (A) (A) (A) (A) (A) (A) (A) (A) (A)
                 (A) (A) (A) (A) (A) (A) (A) (A) (A) (A) (A) (A)
                 (A) (A) (A) (A) (A) (A) (A) (A) (A) (A) (A) (A)
                 (A) (A) (A) (A) (A) (A) (A) (A) (A) (A) (A) (A)
                 (A) (A) (A) (A) (A) (A) (A) (A) (A) (A) (A) (A)
                 (A) (A) (A) (A) (A) (A) (A) (A) (A) (A) (A) (A)
                 (A) (A) (A) (A) (A) (A) (A) (A) (A) (A) (A) (A)
                 (A) (A) (A) (A) (A) (A) (A) (A) (A) (A) (A) (A)
                 (A) (A) (A) (A) (A) (A) (A) (A) (A) (A) (A) (A)
                 (A) (A) (A) (A) (A) (A) (A) (A) (A) (A) (A) (A)
                 (A) (A) (A) (A) (A) (A) (A) (A) (A) (A) (A) (A)
                 (A) (A) (A) (A) (A) (A) (A) (A) (A) (A) (A) (A)
                 (A) (A) (A) (A) (A) (A) (A) (A) (A) (A) (A) (A)
                 (A) (A)
 The electronic state of the initial guess is 1-A.
 Generating alternative initial guess.
 Harris functional with IExCor=  205 diagonalized for initial guess.
 ExpMin= 2.53D-02 ExpMax= 1.17D+07 ExpMxC= 1.33D+04 IAcc=3 IRadAn=         5 AccDes= 0.00D+00
 HarFok:  IExCor=  205 AccDes= 0.00D+00 IRadAn=         5 IDoV= 1
 ScaDFX=  1.000000  1.000000  1.000000  1.000000
 FoFCou: FMM=F IPFlag=           0 FMFlag=      100000 FMFlg1=           0
         NFxFlg=           0 DoJE=T BraDBF=F KetDBF=T FulRan=T
         Omega=  0.000000  0.000000  1.000000  0.000000  0.000000 ICntrl=     500 IOpCl=  0
         NMat0=    1 NMatS0=    1 NMatT0=    0 NMatD0=    1 NMtDS0=    0 NMtDT0=    0
         I1Cent=           4 NGrid=           0.
 Petite list used in FoFCou.
 Harris En= -2901.93090289492    
 Leave Link  401 at Sun Dec  8 13:25:37 2019, MaxMem=  536870912 cpu:       1.6
 (Enter /home/matheus/.gaussian/g09/l502.exe)
 Closed shell SCF:
 Requested convergence on RMS density matrix=1.00D-08 within 128 cycles.
 Requested convergence on MAX density matrix=1.00D-06.
 Requested convergence on             energy=1.00D-06.
 No special actions if energy rises.
 Using DIIS extrapolation, IDIIS=  1040.
 Integral symmetry usage will be decided dynamically.
 Keep R1 ints in memory in canonical form, NReq=353041168.
 IEnd=      178489 IEndB=      178489 NGot=   536870912 MDV=   189982426
 LenX=   189982426 LenY=   189929544
 Symmetry not used in FoFDir.
 MinBra= 0 MaxBra= 3 Meth= 1.
 IRaf=       0 NMat=   1 IRICut=       1 DoRegI=T DoRafI=F ISym2E= 0 JSym2E=0.

 Cycle   1  Pass 1  IDiag  1:
 E= -2902.87965684932    
 DIIS: error= 5.72D-04 at cycle   1 NSaved=   1.
 NSaved= 1 IEnMin= 1 EnMin= -2902.87965684932     IErMin= 1 ErrMin= 5.72D-04
 ErrMax= 5.72D-04 EMaxC= 1.00D-01 BMatC= 6.87D-05 BMatP= 6.87D-05
 IDIUse=3 WtCom= 9.94D-01 WtEn= 5.72D-03
 Coeff-Com:  0.100D+01
 Coeff-En:   0.100D+01
 Coeff:      0.100D+01
 Gap=     0.495 Goal=   None    Shift=    0.000
 RMSDP=7.15D-05 MaxDP=3.25D-03              OVMax= 3.03D-03

 Cycle   2  Pass 1  IDiag  1:
 E= -2902.87973787557     Delta-E=       -0.000081026255 Rises=F Damp=F
 DIIS: error= 1.07D-04 at cycle   2 NSaved=   2.
 NSaved= 2 IEnMin= 2 EnMin= -2902.87973787557     IErMin= 2 ErrMin= 1.07D-04
 ErrMax= 1.07D-04 EMaxC= 1.00D-01 BMatC= 2.39D-06 BMatP= 6.87D-05
 IDIUse=3 WtCom= 9.99D-01 WtEn= 1.07D-03
 Coeff-Com: -0.777D-01 0.108D+01
 Coeff-En:   0.000D+00 0.100D+01
 Coeff:     -0.776D-01 0.108D+01
 Gap=     0.494 Goal=   None    Shift=    0.000
 RMSDP=1.38D-05 MaxDP=4.78D-04 DE=-8.10D-05 OVMax= 6.74D-04

 Cycle   3  Pass 1  IDiag  1:
 E= -2902.87974135116     Delta-E=       -0.000003475590 Rises=F Damp=F
 DIIS: error= 3.63D-05 at cycle   3 NSaved=   3.
 NSaved= 3 IEnMin= 3 EnMin= -2902.87974135116     IErMin= 3 ErrMin= 3.63D-05
 ErrMax= 3.63D-05 EMaxC= 1.00D-01 BMatC= 4.13D-07 BMatP= 2.39D-06
 IDIUse=1 WtCom= 1.00D+00 WtEn= 0.00D+00
 Coeff-Com: -0.445D-01 0.271D+00 0.774D+00
 Coeff:     -0.445D-01 0.271D+00 0.774D+00
 Gap=     0.494 Goal=   None    Shift=    0.000
 RMSDP=2.67D-06 MaxDP=7.39D-05 DE=-3.48D-06 OVMax= 1.73D-04

 Cycle   4  Pass 1  IDiag  1:
 E= -2902.87974173402     Delta-E=       -0.000000382863 Rises=F Damp=F
 DIIS: error= 1.41D-05 at cycle   4 NSaved=   4.
 NSaved= 4 IEnMin= 4 EnMin= -2902.87974173402     IErMin= 4 ErrMin= 1.41D-05
 ErrMax= 1.41D-05 EMaxC= 1.00D-01 BMatC= 4.78D-08 BMatP= 4.13D-07
 IDIUse=1 WtCom= 1.00D+00 WtEn= 0.00D+00
 Coeff-Com: -0.445D-03-0.483D-01 0.133D+00 0.915D+00
 Coeff:     -0.445D-03-0.483D-01 0.133D+00 0.915D+00
 Gap=     0.494 Goal=   None    Shift=    0.000
 RMSDP=1.34D-06 MaxDP=4.28D-05 DE=-3.83D-07 OVMax= 1.02D-04

 Cycle   5  Pass 1  IDiag  1:
 E= -2902.87974180108     Delta-E=       -0.000000067054 Rises=F Damp=F
 DIIS: error= 6.30D-06 at cycle   5 NSaved=   5.
 NSaved= 5 IEnMin= 5 EnMin= -2902.87974180108     IErMin= 5 ErrMin= 6.30D-06
 ErrMax= 6.30D-06 EMaxC= 1.00D-01 BMatC= 6.51D-09 BMatP= 4.78D-08
 IDIUse=1 WtCom= 1.00D+00 WtEn= 0.00D+00
 Coeff-Com:  0.628D-02-0.474D-01-0.888D-01 0.138D+00 0.992D+00
 Coeff:      0.628D-02-0.474D-01-0.888D-01 0.138D+00 0.992D+00
 Gap=     0.494 Goal=   None    Shift=    0.000
 RMSDP=6.19D-07 MaxDP=2.28D-05 DE=-6.71D-08 OVMax= 5.00D-05

 Cycle   6  Pass 1  IDiag  1:
 E= -2902.87974181472     Delta-E=       -0.000000013646 Rises=F Damp=F
 DIIS: error= 1.79D-06 at cycle   6 NSaved=   6.
 NSaved= 6 IEnMin= 6 EnMin= -2902.87974181472     IErMin= 6 ErrMin= 1.79D-06
 ErrMax= 1.79D-06 EMaxC= 1.00D-01 BMatC= 7.95D-10 BMatP= 6.51D-09
 IDIUse=1 WtCom= 1.00D+00 WtEn= 0.00D+00
 Coeff-Com: -0.171D-03 0.761D-02-0.111D-01-0.131D+00 0.147D-01 0.112D+01
 Coeff:     -0.171D-03 0.761D-02-0.111D-01-0.131D+00 0.147D-01 0.112D+01
 Gap=     0.494 Goal=   None    Shift=    0.000
 RMSDP=2.17D-07 MaxDP=5.76D-06 DE=-1.36D-08 OVMax= 1.76D-05

 Cycle   7  Pass 1  IDiag  1:
 E= -2902.87974181639     Delta-E=       -0.000000001664 Rises=F Damp=F
 DIIS: error= 5.31D-07 at cycle   7 NSaved=   7.
 NSaved= 7 IEnMin= 7 EnMin= -2902.87974181639     IErMin= 7 ErrMin= 5.31D-07
 ErrMax= 5.31D-07 EMaxC= 1.00D-01 BMatC= 7.39D-11 BMatP= 7.95D-10
 IDIUse=1 WtCom= 1.00D+00 WtEn= 0.00D+00
 Coeff-Com: -0.727D-03 0.680D-02 0.863D-02-0.447D-01-0.915D-01 0.188D+00
 Coeff-Com:  0.933D+00
 Coeff:     -0.727D-03 0.680D-02 0.863D-02-0.447D-01-0.915D-01 0.188D+00
 Coeff:      0.933D+00
 Gap=     0.494 Goal=   None    Shift=    0.000
 RMSDP=6.31D-08 MaxDP=1.69D-06 DE=-1.66D-09 OVMax= 4.83D-06

 Cycle   8  Pass 1  IDiag  1:
 E= -2902.87974181654     Delta-E=       -0.000000000151 Rises=F Damp=F
 DIIS: error= 2.10D-07 at cycle   8 NSaved=   8.
 NSaved= 8 IEnMin= 8 EnMin= -2902.87974181654     IErMin= 8 ErrMin= 2.10D-07
 ErrMax= 2.10D-07 EMaxC= 1.00D-01 BMatC= 7.60D-12 BMatP= 7.39D-11
 IDIUse=1 WtCom= 1.00D+00 WtEn= 0.00D+00
 Coeff-Com:  0.197D-03-0.239D-02-0.971D-03 0.193D-01 0.316D-01-0.156D+00
 Coeff-Com: -0.261D+00 0.137D+01
 Coeff:      0.197D-03-0.239D-02-0.971D-03 0.193D-01 0.316D-01-0.156D+00
 Coeff:     -0.261D+00 0.137D+01
 Gap=     0.494 Goal=   None    Shift=    0.000
 RMSDP=2.79D-08 MaxDP=9.77D-07 DE=-1.51D-10 OVMax= 2.47D-06

 Cycle   9  Pass 1  IDiag  1:
 E= -2902.87974181654     Delta-E=       -0.000000000007 Rises=F Damp=F
 DIIS: error= 7.09D-08 at cycle   9 NSaved=   9.
 NSaved= 9 IEnMin= 9 EnMin= -2902.87974181654     IErMin= 9 ErrMin= 7.09D-08
 ErrMax= 7.09D-08 EMaxC= 1.00D-01 BMatC= 7.22D-13 BMatP= 7.60D-12
 IDIUse=1 WtCom= 1.00D+00 WtEn= 0.00D+00
 Coeff-Com:  0.423D-04-0.316D-03-0.596D-03 0.670D-03 0.665D-02 0.292D-02
 Coeff-Com: -0.549D-01-0.180D+00 0.123D+01
 Coeff:      0.423D-04-0.316D-03-0.596D-03 0.670D-03 0.665D-02 0.292D-02
 Coeff:     -0.549D-01-0.180D+00 0.123D+01
 Gap=     0.494 Goal=   None    Shift=    0.000
 RMSDP=8.38D-09 MaxDP=2.21D-07 DE=-6.82D-12 OVMax= 9.10D-07

 SCF Done:  E(RHF) =  -2902.87974182     A.U. after    9 cycles
             Convg  =    0.8379D-08             -V/T =  2.0001
 KE= 2.902606875685D+03 PE=-7.230378911623D+03 EE= 1.280002485972D+03
 Leave Link  502 at Sun Dec  8 13:25:45 2019, MaxMem=  536870912 cpu:      32.2
 (Enter /home/matheus/.gaussian/g09/l801.exe)
 Windowed orbitals will be sorted by symmetry type.
 ExpMin= 2.53D-02 ExpMax= 1.17D+07 ExpMxC= 1.33D+04 IAcc=3 IRadAn=         5 AccDes= 0.00D+00
 HarFok:  IExCor=  205 AccDes= 0.00D+00 IRadAn=         5 IDoV=-2
 ScaDFX=  1.000000  1.000000  1.000000  1.000000
 Largest valence mixing into a core orbital is  1.44D-04
 Largest core mixing into a valence orbital is  2.59D-05
 Range of M.O.s used for correlation:    12   197
 NBasis=   197 NAE=    27 NBE=    27 NFC=    11 NFV=     0
 NROrb=    186 NOA=    16 NOB=    16 NVA=   170 NVB=   170

 **** Warning!!: The largest alpha MO coefficient is  0.12099459D+02

 Leave Link  801 at Sun Dec  8 13:25:45 2019, MaxMem=  536870912 cpu:       0.3
 (Enter /home/matheus/.gaussian/g09/l804.exe)
 Closed-shell transformation, MDV=   536870912 ITran=4 ISComp=1.
 Semi-Direct transformation.
 ModeAB=           2 MOrb=            16 LenV=     535763544
 LASXX=     48528660 LTotXX=    48528660 LenRXX=    48528660
 LTotAB=    49298776 MaxLAS=    78372960 LenRXY=    78372960
 NonZer=    97057320 LenScr=   146313216 LnRSAI=           0
 LnScr1=           0 LExtra=           0 Total=    273214836
 MaxDsk=          -1 SrtSym=           F ITran=            4
 DoSDTr:  NPSUse=  4
 JobTyp=0 Pass  1:  I=   1 to  16.
 (rs|ai) integrals will be sorted in core.
 Complete sort for first half transformation.
 First half transformation complete.
 Begin second half transformation for I=  10.
 Begin second half transformation for I=  10.
 Complete sort for second half transformation.
 Second half transformation complete.
 SymMOI:  orbitals are not symmetric.
 Spin components of T(2) and E(2):
     alpha-alpha T2 =       0.2584095342D-01 E2=     -0.9962443618D-01
     alpha-beta  T2 =       0.1416673156D+00 E2=     -0.5556890853D+00
     beta-beta   T2 =       0.2584095342D-01 E2=     -0.9962443618D-01
 ANorm=    0.1092405246D+01
 E2 =    -0.7549379576D+00 EUMP2 =    -0.29036346797742D+04
 Leave Link  804 at Sun Dec  8 13:26:03 2019, MaxMem=  536870912 cpu:      70.6
 (Enter /home/matheus/.gaussian/g09/l913.exe)
 CIDS:  MDV=   536870912.
 Frozen-core window:  NFC=  11 NFV=   0.
 IFCWin=0 IBDFC=1 NFBD=     0     0 NFCmp=     0     0 NFFFC=     0     0
 Using DD3R+UMP44R for 1st iteration, S=T.
 Using DD4RQ for 2nd and later iterations.
 Would need an additional       162771220 words for in-memory AO integral storage.
 MP4(SDTQ)
 =========
 DD1Dir will call FoFDir   1 times, MxPair=       272
 NAB=   136 NAA=     0 NBB=     0 NumPrc=  4.
 Integrals replicated using symmetry in FoFDir.
 MinBra= 0 MaxBra= 3 Meth= 1.
 IRaf=       0 NMat= 272 IRICut=     340 DoRegI=T DoRafI=T ISym2E= 2 JSym2E=2.
 MP4(D)= -0.14944662D-01
 MP4(S)= -0.63734608D-02
 MP4(R+Q)=  0.15282862D-01
 T4(AAA)= -0.10285094D-02
 T4(AAB)= -0.14071691D-01
 Time for triples=     1632.38 seconds.
 MP4(T)=   -0.30200400D-01
 E3=       -0.11488637D-01        EUMP3=      -0.29036461684D+04
 E4(DQ)=    0.33820081D-03        UMP4(DQ)=   -0.29036458302D+04
 E4(SDQ)=  -0.60352600D-02        UMP4(SDQ)=  -0.29036522037D+04
 E4(SDTQ)= -0.36235660D-01        UMP4(SDTQ)= -0.29036824041D+04
 VARIATIONAL ENERGIES WITH THE FIRST-ORDER WAVEFUNCTION:
 E(VAR1)=  -0.29035219902D+04     E(CISD,4)=  -0.29035215199D+04
 Largest amplitude= 2.89D-02
 Leave Link  913 at Sun Dec  8 13:33:24 2019, MaxMem=  536870912 cpu:    1760.4
 (Enter /home/matheus/.gaussian/g09/l108.exe)
 Variable Step   Value    
 -------- ---- -----------
     1       2    6.047124
 Leave Link  108 at Sun Dec  8 13:33:25 2019, MaxMem=  536870912 cpu:       0.2
 (Enter /home/matheus/.gaussian/g09/l202.exe)
 ---------------------------------------------------------------------------------------------------
                            Z-MATRIX (ANGSTROMS AND DEGREES)
   CD    Cent   Atom    N1       Length/X        N2       Alpha/Y        N3        Beta/Z          J
 ---------------------------------------------------------------------------------------------------
      1      1  O        0   0.000000          0.000000          0.725000
      2      2  O        0   0.000000          0.000000         -0.725000
      3      3  H        0   0.314221         -0.863315          1.023510
      4      4  H        0   0.000000          0.918721         -1.023510
      5      5  Kr       0   0.000000          3.200000          0.000000
 ---------------------------------------------------------------------------------------------------
                         Z-Matrix orientation:                         
 ---------------------------------------------------------------------
 Center     Atomic      Atomic             Coordinates (Angstroms)
 Number     Number       Type             X           Y           Z
 ---------------------------------------------------------------------
      1          8           0        0.000000    0.000000    0.725000
      2          8           0        0.000000    0.000000   -0.725000
      3          1           0        0.314221   -0.863315    1.023510
      4          1           0        0.000000    0.918721   -1.023510
      5         36           0        0.000000    3.200000    0.000000
 ---------------------------------------------------------------------
                    Distance matrix (angstroms):
                    1          2          3          4          5
     1  O    0.000000
     2  O    1.450000   0.000000
     3  H    0.966000   1.975180   0.000000
     4  H    1.975180   0.966000   2.732157   0.000000
     5  Kr   3.281101   3.281101   4.202004   2.500362   0.000000
 Stoichiometry    H2KrO2
 Framework group  C1[X(H2KrO2)]
 Deg. of freedom     9
 Full point group                 C1      NOp   1
 RotChk:  IX=0 Diff= 1.68D-03
 Largest Abelian subgroup         C1      NOp   1
 Largest concise Abelian subgroup C1      NOp   1
                         Standard orientation:                         
 ---------------------------------------------------------------------
 Center     Atomic      Atomic             Coordinates (Angstroms)
 Number     Number       Type             X           Y           Z
 ---------------------------------------------------------------------
      1          8           0        2.145615   -0.689692   -0.042524
      2          8           0        2.122341    0.759486    0.000376
      3          1           0        3.015982   -0.983247    0.256548
      4          1           0        1.198973    1.042880    0.015775
      5         36           0       -1.065517   -0.017166    0.001802
 ---------------------------------------------------------------------
 Rotational constants (GHZ):     26.5902415      2.0275881      1.8851883
 Leave Link  202 at Sun Dec  8 13:33:25 2019, MaxMem=  536870912 cpu:       0.0
 (Enter /home/matheus/.gaussian/g09/l301.exe)
 Standard basis: Aug-CC-pVTZ (5D, 7F)
 Ernie: Thresh=  0.10000D-02 Tol=  0.10000D-05 Strict=F.
 Ernie:  38 primitive shells out of 205 were deleted.
 There are   197 symmetry adapted basis functions of A   symmetry.
 Integral buffers will be    131072 words long.
 Raffenetti 1 integral format.
 Two-electron integral symmetry is turned on.
   197 basis functions,   415 primitive gaussians,   229 cartesian basis functions
    27 alpha electrons       27 beta electrons
       nuclear repulsion energy       141.6521091741 Hartrees.
 IExCor=    0 DFT=F Ex=HF Corr=None ExCW=0 ScaHFX=  1.000000
 ScaDFX=  1.000000  1.000000  1.000000  1.000000 ScalE2=  1.000000  1.000000
 IRadAn=      5 IRanWt=     -1 IRanGd=            0 ICorTp=0
 NAtoms=    5 NActive=    5 NUniq=    5 SFac= 1.00D+00 NAtFMM=   60 NAOKFM=F Big=F
 Leave Link  301 at Sun Dec  8 13:33:25 2019, MaxMem=  536870912 cpu:       0.1
 (Enter /home/matheus/.gaussian/g09/l302.exe)
 NPDir=0 NMtPBC=     1 NCelOv=     1 NCel=       1 NClECP=     1 NCelD=      1
         NCelK=      1 NCelE2=     1 NClLst=     1 CellRange=     0.0.
 One-electron integrals computed using PRISM.
 NBasis=   197 RedAO= T  NBF=   197
 NBsUse=   197 1.00D-06 NBFU=   197
 Leave Link  302 at Sun Dec  8 13:33:25 2019, MaxMem=  536870912 cpu:       0.4
 (Enter /home/matheus/.gaussian/g09/l303.exe)
 DipDrv:  MaxL=1.
 Leave Link  303 at Sun Dec  8 13:33:25 2019, MaxMem=  536870912 cpu:       0.1
 (Enter /home/matheus/.gaussian/g09/l401.exe)
 Initial guess read from the read-write file.
 B after Tr=     0.000000    0.000000    0.000000
         Rot=    1.000000    0.000000    0.000000    0.000000 Ang=   0.00 deg.
 Guess basis will be translated and rotated to current coordinates.
 Initial guess orbital symmetries:
       Occupied  (A) (A) (A) (A) (A) (A) (A) (A) (A) (A) (A) (A)
                 (A) (A) (A) (A) (A) (A) (A) (A) (A) (A) (A) (A)
                 (A) (A) (A)
       Virtual   (A) (A) (A) (A) (A) (A) (A) (A) (A) (A) (A) (A)
                 (A) (A) (A) (A) (A) (A) (A) (A) (A) (A) (A) (A)
                 (A) (A) (A) (A) (A) (A) (A) (A) (A) (A) (A) (A)
                 (A) (A) (A) (A) (A) (A) (A) (A) (A) (A) (A) (A)
                 (A) (A) (A) (A) (A) (A) (A) (A) (A) (A) (A) (A)
                 (A) (A) (A) (A) (A) (A) (A) (A) (A) (A) (A) (A)
                 (A) (A) (A) (A) (A) (A) (A) (A) (A) (A) (A) (A)
                 (A) (A) (A) (A) (A) (A) (A) (A) (A) (A) (A) (A)
                 (A) (A) (A) (A) (A) (A) (A) (A) (A) (A) (A) (A)
                 (A) (A) (A) (A) (A) (A) (A) (A) (A) (A) (A) (A)
                 (A) (A) (A) (A) (A) (A) (A) (A) (A) (A) (A) (A)
                 (A) (A) (A) (A) (A) (A) (A) (A) (A) (A) (A) (A)
                 (A) (A) (A) (A) (A) (A) (A) (A) (A) (A) (A) (A)
                 (A) (A) (A) (A) (A) (A) (A) (A) (A) (A) (A) (A)
                 (A) (A)
 The electronic state of the initial guess is 1-A.
 Generating alternative initial guess.
 Harris functional with IExCor=  205 diagonalized for initial guess.
 ExpMin= 2.53D-02 ExpMax= 1.17D+07 ExpMxC= 1.33D+04 IAcc=3 IRadAn=         5 AccDes= 0.00D+00
 HarFok:  IExCor=  205 AccDes= 0.00D+00 IRadAn=         5 IDoV= 1
 ScaDFX=  1.000000  1.000000  1.000000  1.000000
 FoFCou: FMM=F IPFlag=           0 FMFlag=      100000 FMFlg1=           0
         NFxFlg=           0 DoJE=T BraDBF=F KetDBF=T FulRan=T
         Omega=  0.000000  0.000000  1.000000  0.000000  0.000000 ICntrl=     500 IOpCl=  0
         NMat0=    1 NMatS0=    1 NMatT0=    0 NMatD0=    1 NMtDS0=    0 NMtDT0=    0
         I1Cent=           4 NGrid=           0.
 Petite list used in FoFCou.
 Harris En= -2901.93154979365    
 Leave Link  401 at Sun Dec  8 13:33:25 2019, MaxMem=  536870912 cpu:       1.6
 (Enter /home/matheus/.gaussian/g09/l502.exe)
 Closed shell SCF:
 Requested convergence on RMS density matrix=1.00D-08 within 128 cycles.
 Requested convergence on MAX density matrix=1.00D-06.
 Requested convergence on             energy=1.00D-06.
 No special actions if energy rises.
 Using DIIS extrapolation, IDIIS=  1040.
 Integral symmetry usage will be decided dynamically.
 Keep R1 ints in memory in canonical form, NReq=353041168.
 IEnd=      178489 IEndB=      178489 NGot=   536870912 MDV=   189982426
 LenX=   189982426 LenY=   189929544
 Symmetry not used in FoFDir.
 MinBra= 0 MaxBra= 3 Meth= 1.
 IRaf=       0 NMat=   1 IRICut=       1 DoRegI=T DoRafI=F ISym2E= 0 JSym2E=0.

 Cycle   1  Pass 1  IDiag  1:
 E= -2902.88138008647    
 DIIS: error= 4.95D-04 at cycle   1 NSaved=   1.
 NSaved= 1 IEnMin= 1 EnMin= -2902.88138008647     IErMin= 1 ErrMin= 4.95D-04
 ErrMax= 4.95D-04 EMaxC= 1.00D-01 BMatC= 5.16D-05 BMatP= 5.16D-05
 IDIUse=3 WtCom= 9.95D-01 WtEn= 4.95D-03
 Coeff-Com:  0.100D+01
 Coeff-En:   0.100D+01
 Coeff:      0.100D+01
 Gap=     0.496 Goal=   None    Shift=    0.000
 RMSDP=6.48D-05 MaxDP=2.41D-03              OVMax= 2.73D-03

 Cycle   2  Pass 1  IDiag  1:
 E= -2902.88144116017     Delta-E=       -0.000061073701 Rises=F Damp=F
 DIIS: error= 9.52D-05 at cycle   2 NSaved=   2.
 NSaved= 2 IEnMin= 2 EnMin= -2902.88144116017     IErMin= 2 ErrMin= 9.52D-05
 ErrMax= 9.52D-05 EMaxC= 1.00D-01 BMatC= 1.65D-06 BMatP= 5.16D-05
 IDIUse=1 WtCom= 1.00D+00 WtEn= 0.00D+00
 Coeff-Com: -0.828D-01 0.108D+01
 Coeff:     -0.828D-01 0.108D+01
 Gap=     0.494 Goal=   None    Shift=    0.000
 RMSDP=1.20D-05 MaxDP=3.94D-04 DE=-6.11D-05 OVMax= 5.74D-04

 Cycle   3  Pass 1  IDiag  1:
 E= -2902.88144370222     Delta-E=       -0.000002542048 Rises=F Damp=F
 DIIS: error= 3.11D-05 at cycle   3 NSaved=   3.
 NSaved= 3 IEnMin= 3 EnMin= -2902.88144370222     IErMin= 3 ErrMin= 3.11D-05
 ErrMax= 3.11D-05 EMaxC= 1.00D-01 BMatC= 2.53D-07 BMatP= 1.65D-06
 IDIUse=1 WtCom= 1.00D+00 WtEn= 0.00D+00
 Coeff-Com: -0.410D-01 0.251D+00 0.790D+00
 Coeff:     -0.410D-01 0.251D+00 0.790D+00
 Gap=     0.495 Goal=   None    Shift=    0.000
 RMSDP=2.28D-06 MaxDP=7.05D-05 DE=-2.54D-06 OVMax= 1.46D-04

 Cycle   4  Pass 1  IDiag  1:
 E= -2902.88144395262     Delta-E=       -0.000000250395 Rises=F Damp=F
 DIIS: error= 1.12D-05 at cycle   4 NSaved=   4.
 NSaved= 4 IEnMin= 4 EnMin= -2902.88144395262     IErMin= 4 ErrMin= 1.12D-05
 ErrMax= 1.12D-05 EMaxC= 1.00D-01 BMatC= 3.36D-08 BMatP= 2.53D-07
 IDIUse=1 WtCom= 1.00D+00 WtEn= 0.00D+00
 Coeff-Com:  0.728D-03-0.555D-01 0.139D+00 0.916D+00
 Coeff:      0.728D-03-0.555D-01 0.139D+00 0.916D+00
 Gap=     0.495 Goal=   None    Shift=    0.000
 RMSDP=1.17D-06 MaxDP=3.95D-05 DE=-2.50D-07 OVMax= 8.79D-05

 Cycle   5  Pass 1  IDiag  1:
 E= -2902.88144400046     Delta-E=       -0.000000047845 Rises=F Damp=F
 DIIS: error= 4.71D-06 at cycle   5 NSaved=   5.
 NSaved= 5 IEnMin= 5 EnMin= -2902.88144400046     IErMin= 5 ErrMin= 4.71D-06
 ErrMax= 4.71D-06 EMaxC= 1.00D-01 BMatC= 4.58D-09 BMatP= 3.36D-08
 IDIUse=1 WtCom= 1.00D+00 WtEn= 0.00D+00
 Coeff-Com:  0.595D-02-0.458D-01-0.900D-01 0.143D+00 0.987D+00
 Coeff:      0.595D-02-0.458D-01-0.900D-01 0.143D+00 0.987D+00
 Gap=     0.495 Goal=   None    Shift=    0.000
 RMSDP=5.19D-07 MaxDP=1.91D-05 DE=-4.78D-08 OVMax= 4.26D-05

 Cycle   6  Pass 1  IDiag  1:
 E= -2902.88144401003     Delta-E=       -0.000000009569 Rises=F Damp=F
 DIIS: error= 1.50D-06 at cycle   6 NSaved=   6.
 NSaved= 6 IEnMin= 6 EnMin= -2902.88144401003     IErMin= 6 ErrMin= 1.50D-06
 ErrMax= 1.50D-06 EMaxC= 1.00D-01 BMatC= 5.61D-10 BMatP= 4.58D-09
 IDIUse=1 WtCom= 1.00D+00 WtEn= 0.00D+00
 Coeff-Com: -0.323D-03 0.884D-02-0.120D-01-0.134D+00 0.134D-01 0.112D+01
 Coeff:     -0.323D-03 0.884D-02-0.120D-01-0.134D+00 0.134D-01 0.112D+01
 Gap=     0.495 Goal=   None    Shift=    0.000
 RMSDP=1.82D-07 MaxDP=4.89D-06 DE=-9.57D-09 OVMax= 1.49D-05

 Cycle   7  Pass 1  IDiag  1:
 E= -2902.88144401122     Delta-E=       -0.000000001186 Rises=F Damp=F
 DIIS: error= 4.30D-07 at cycle   7 NSaved=   7.
 NSaved= 7 IEnMin= 7 EnMin= -2902.88144401122     IErMin= 7 ErrMin= 4.30D-07
 ErrMax= 4.30D-07 EMaxC= 1.00D-01 BMatC= 5.17D-11 BMatP= 5.61D-10
 IDIUse=1 WtCom= 1.00D+00 WtEn= 0.00D+00
 Coeff-Com: -0.697D-03 0.673D-02 0.805D-02-0.460D-01-0.873D-01 0.197D+00
 Coeff-Com:  0.922D+00
 Coeff:     -0.697D-03 0.673D-02 0.805D-02-0.460D-01-0.873D-01 0.197D+00
 Coeff:      0.922D+00
 Gap=     0.495 Goal=   None    Shift=    0.000
 RMSDP=5.30D-08 MaxDP=1.41D-06 DE=-1.19D-09 OVMax= 3.99D-06

 Cycle   8  Pass 1  IDiag  1:
 E= -2902.88144401130     Delta-E=       -0.000000000084 Rises=F Damp=F
 DIIS: error= 1.62D-07 at cycle   8 NSaved=   8.
 NSaved= 8 IEnMin= 8 EnMin= -2902.88144401130     IErMin= 8 ErrMin= 1.62D-07
 ErrMax= 1.62D-07 EMaxC= 1.00D-01 BMatC= 5.56D-12 BMatP= 5.17D-11
 IDIUse=1 WtCom= 1.00D+00 WtEn= 0.00D+00
 Coeff-Com:  0.208D-03-0.258D-02-0.706D-03 0.212D-01 0.311D-01-0.168D+00
 Coeff-Com: -0.254D+00 0.137D+01
 Coeff:      0.208D-03-0.258D-02-0.706D-03 0.212D-01 0.311D-01-0.168D+00
 Coeff:     -0.254D+00 0.137D+01
 Gap=     0.495 Goal=   None    Shift=    0.000
 RMSDP=2.40D-08 MaxDP=8.68D-07 DE=-8.41D-11 OVMax= 2.14D-06

 Cycle   9  Pass 1  IDiag  1:
 E= -2902.88144401132     Delta-E=       -0.000000000022 Rises=F Damp=F
 DIIS: error= 6.07D-08 at cycle   9 NSaved=   9.
 NSaved= 9 IEnMin= 9 EnMin= -2902.88144401132     IErMin= 9 ErrMin= 6.07D-08
 ErrMax= 6.07D-08 EMaxC= 1.00D-01 BMatC= 5.22D-13 BMatP= 5.56D-12
 IDIUse=1 WtCom= 1.00D+00 WtEn= 0.00D+00
 Coeff-Com:  0.298D-04-0.189D-03-0.531D-03-0.173D-03 0.516D-02 0.873D-02
 Coeff-Com: -0.440D-01-0.219D+00 0.125D+01
 Coeff:      0.298D-04-0.189D-03-0.531D-03-0.173D-03 0.516D-02 0.873D-02
 Coeff:     -0.440D-01-0.219D+00 0.125D+01
 Gap=     0.495 Goal=   None    Shift=    0.000
 RMSDP=7.51D-09 MaxDP=1.93D-07 DE=-2.18D-11 OVMax= 7.71D-07

 SCF Done:  E(RHF) =  -2902.88144401     A.U. after    9 cycles
             Convg  =    0.7511D-08             -V/T =  2.0001
 KE= 2.902593751512D+03 PE=-7.223896398102D+03 EE= 1.276769093404D+03
 Leave Link  502 at Sun Dec  8 13:33:33 2019, MaxMem=  536870912 cpu:      32.0
 (Enter /home/matheus/.gaussian/g09/l801.exe)
 Windowed orbitals will be sorted by symmetry type.
 ExpMin= 2.53D-02 ExpMax= 1.17D+07 ExpMxC= 1.33D+04 IAcc=3 IRadAn=         5 AccDes= 0.00D+00
 HarFok:  IExCor=  205 AccDes= 0.00D+00 IRadAn=         5 IDoV=-2
 ScaDFX=  1.000000  1.000000  1.000000  1.000000
 DSYEVD returned Info=          93 IAlg= 4 N=    46 NDim=    46 NE2=     9097315 trying DSYEV.
 DSYEVD returned Info=          89 IAlg= 4 N=    59 NDim=    59 NE2=     9097315 trying DSYEV.
 Largest valence mixing into a core orbital is  1.44D-04
 Largest core mixing into a valence orbital is  2.59D-05
 Range of M.O.s used for correlation:    12   197
 NBasis=   197 NAE=    27 NBE=    27 NFC=    11 NFV=     0
 NROrb=    186 NOA=    16 NOB=    16 NVA=   170 NVB=   170

 **** Warning!!: The largest alpha MO coefficient is  0.12696300D+02

 Leave Link  801 at Sun Dec  8 13:33:33 2019, MaxMem=  536870912 cpu:       0.3
 (Enter /home/matheus/.gaussian/g09/l804.exe)
 Closed-shell transformation, MDV=   536870912 ITran=4 ISComp=1.
 Semi-Direct transformation.
 ModeAB=           4 MOrb=            16 LenV=     535764508
 LASXX=     48528660 LTotXX=    48528660 LenRXX=    97827436
 LTotAB=    49298776 MaxLAS=    78349152 LenRXY=           0
 NonZer=   146356096 LenScr=   220395520 LnRSAI=    78349152
 LnScr1=   118292480 LExtra=           0 Total=    514864588
 MaxDsk=          -1 SrtSym=           T ITran=            4
 DoSDTr:  NPSUse=  4
 JobTyp=0 Pass  1:  I=   1 to  16.
 (rs|ai) integrals will be sorted in core.
 Complete sort for first half transformation.
 First half transformation complete.
 Begin second half transformation for I=  10.
 Complete sort for second half transformation.
 Second half transformation complete.
 SymMOI:  orbitals are not symmetric.
 Spin components of T(2) and E(2):
     alpha-alpha T2 =       0.2577742844D-01 E2=     -0.9940919250D-01
     alpha-beta  T2 =       0.1415781570D+00 E2=     -0.5551907206D+00
     beta-beta   T2 =       0.2577742844D-01 E2=     -0.9940919250D-01
 ANorm=    0.1092306282D+01
 E2 =    -0.7540091056D+00 EUMP2 =    -0.29036354531169D+04
 Leave Link  804 at Sun Dec  8 13:33:50 2019, MaxMem=  536870912 cpu:      64.4
 (Enter /home/matheus/.gaussian/g09/l913.exe)
 CIDS:  MDV=   536870912.
 Frozen-core window:  NFC=  11 NFV=   0.
 IFCWin=0 IBDFC=1 NFBD=     0     0 NFCmp=     0     0 NFFFC=     0     0
 Using DD3R+UMP44R for 1st iteration, S=T.
 Using DD4RQ for 2nd and later iterations.
 Would need an additional       162771220 words for in-memory AO integral storage.
 MP4(SDTQ)
 =========
 DD1Dir will call FoFDir   1 times, MxPair=       272
 NAB=   136 NAA=     0 NBB=     0 NumPrc=  4.
 Integrals replicated using symmetry in FoFDir.
 MinBra= 0 MaxBra= 3 Meth= 1.
 IRaf=       0 NMat= 272 IRICut=     340 DoRegI=T DoRafI=T ISym2E= 2 JSym2E=2.
 MP4(D)= -0.14942604D-01
 MP4(S)= -0.63503679D-02
 MP4(R+Q)=  0.15224713D-01
 T4(AAA)= -0.10204137D-02
 T4(AAB)= -0.14018547D-01
 Time for triples=     1582.45 seconds.
 MP4(T)=   -0.30077922D-01
 E3=       -0.11616142D-01        EUMP3=      -0.29036470693D+04
 E4(DQ)=    0.28210859D-03        UMP4(DQ)=   -0.29036467872D+04
 E4(SDQ)=  -0.60682593D-02        UMP4(SDQ)=  -0.29036531375D+04
 E4(SDTQ)= -0.36146181D-01        UMP4(SDTQ)= -0.29036832154D+04
 VARIATIONAL ENERGIES WITH THE FIRST-ORDER WAVEFUNCTION:
 E(VAR1)=  -0.29035231371D+04     E(CISD,4)=  -0.29035227382D+04
 Largest amplitude= 2.87D-02
 Leave Link  913 at Sun Dec  8 13:40:58 2019, MaxMem=  536870912 cpu:    1708.1
 (Enter /home/matheus/.gaussian/g09/l108.exe)
 Variable Step   Value    
 -------- ---- -----------
     1       3    6.236096
 Leave Link  108 at Sun Dec  8 13:40:59 2019, MaxMem=  536870912 cpu:       0.0
 (Enter /home/matheus/.gaussian/g09/l202.exe)
 ---------------------------------------------------------------------------------------------------
                            Z-MATRIX (ANGSTROMS AND DEGREES)
   CD    Cent   Atom    N1       Length/X        N2       Alpha/Y        N3        Beta/Z          J
 ---------------------------------------------------------------------------------------------------
      1      1  O        0   0.000000          0.000000          0.725000
      2      2  O        0   0.000000          0.000000         -0.725000
      3      3  H        0   0.314221         -0.863315          1.023510
      4      4  H        0   0.000000          0.918721         -1.023510
      5      5  Kr       0   0.000000          3.300000          0.000000
 ---------------------------------------------------------------------------------------------------
                         Z-Matrix orientation:                         
 ---------------------------------------------------------------------
 Center     Atomic      Atomic             Coordinates (Angstroms)
 Number     Number       Type             X           Y           Z
 ---------------------------------------------------------------------
      1          8           0        0.000000    0.000000    0.725000
      2          8           0        0.000000    0.000000   -0.725000
      3          1           0        0.314221   -0.863315    1.023510
      4          1           0        0.000000    0.918721   -1.023510
      5         36           0        0.000000    3.300000    0.000000
 ---------------------------------------------------------------------
                    Distance matrix (angstroms):
                    1          2          3          4          5
     1  O    0.000000
     2  O    1.450000   0.000000
     3  H    0.966000   1.975180   0.000000
     4  H    1.975180   0.966000   2.732157   0.000000
     5  Kr   3.378702   3.378702   4.298779   2.591923   0.000000
 Stoichiometry    H2KrO2
 Framework group  C1[X(H2KrO2)]
 Deg. of freedom     9
 Full point group                 C1      NOp   1
 RotChk:  IX=0 Diff= 1.52D-03
 Largest Abelian subgroup         C1      NOp   1
 Largest concise Abelian subgroup C1      NOp   1
                         Standard orientation:                         
 ---------------------------------------------------------------------
 Center     Atomic      Atomic             Coordinates (Angstroms)
 Number     Number       Type             X           Y           Z
 ---------------------------------------------------------------------
      1          8           0        2.211567   -0.690901   -0.042453
      2          8           0        2.189785    0.758299    0.000514
      3          1           0        3.081550   -0.985373    0.256833
      4          1           0        1.266708    1.042650    0.015685
      5         36           0       -1.098863   -0.016568    0.001750
 ---------------------------------------------------------------------
 Rotational constants (GHZ):     26.5888360      1.9072946      1.7807575
 Leave Link  202 at Sun Dec  8 13:40:59 2019, MaxMem=  536870912 cpu:       0.0
 (Enter /home/matheus/.gaussian/g09/l301.exe)
 Standard basis: Aug-CC-pVTZ (5D, 7F)
 Ernie: Thresh=  0.10000D-02 Tol=  0.10000D-05 Strict=F.
 Ernie:  38 primitive shells out of 205 were deleted.
 There are   197 symmetry adapted basis functions of A   symmetry.
 Integral buffers will be    131072 words long.
 Raffenetti 1 integral format.
 Two-electron integral symmetry is turned on.
   197 basis functions,   415 primitive gaussians,   229 cartesian basis functions
    27 alpha electrons       27 beta electrons
       nuclear repulsion energy       138.5973714925 Hartrees.
 IExCor=    0 DFT=F Ex=HF Corr=None ExCW=0 ScaHFX=  1.000000
 ScaDFX=  1.000000  1.000000  1.000000  1.000000 ScalE2=  1.000000  1.000000
 IRadAn=      5 IRanWt=     -1 IRanGd=            0 ICorTp=0
 NAtoms=    5 NActive=    5 NUniq=    5 SFac= 1.00D+00 NAtFMM=   60 NAOKFM=F Big=F
 Leave Link  301 at Sun Dec  8 13:40:59 2019, MaxMem=  536870912 cpu:       0.1
 (Enter /home/matheus/.gaussian/g09/l302.exe)
 NPDir=0 NMtPBC=     1 NCelOv=     1 NCel=       1 NClECP=     1 NCelD=      1
         NCelK=      1 NCelE2=     1 NClLst=     1 CellRange=     0.0.
 One-electron integrals computed using PRISM.
 NBasis=   197 RedAO= T  NBF=   197
 NBsUse=   197 1.00D-06 NBFU=   197
 Leave Link  302 at Sun Dec  8 13:40:59 2019, MaxMem=  536870912 cpu:       0.4
 (Enter /home/matheus/.gaussian/g09/l303.exe)
 DipDrv:  MaxL=1.
 Leave Link  303 at Sun Dec  8 13:40:59 2019, MaxMem=  536870912 cpu:       0.1
 (Enter /home/matheus/.gaussian/g09/l401.exe)
 Initial guess read from the read-write file.
 B after Tr=     0.000000    0.000000    0.000000
         Rot=    1.000000    0.000000    0.000000    0.000000 Ang=   0.00 deg.
 Guess basis will be translated and rotated to current coordinates.
 Initial guess orbital symmetries:
       Occupied  (A) (A) (A) (A) (A) (A) (A) (A) (A) (A) (A) (A)
                 (A) (A) (A) (A) (A) (A) (A) (A) (A) (A) (A) (A)
                 (A) (A) (A)
       Virtual   (A) (A) (A) (A) (A) (A) (A) (A) (A) (A) (A) (A)
                 (A) (A) (A) (A) (A) (A) (A) (A) (A) (A) (A) (A)
                 (A) (A) (A) (A) (A) (A) (A) (A) (A) (A) (A) (A)
                 (A) (A) (A) (A) (A) (A) (A) (A) (A) (A) (A) (A)
                 (A) (A) (A) (A) (A) (A) (A) (A) (A) (A) (A) (A)
                 (A) (A) (A) (A) (A) (A) (A) (A) (A) (A) (A) (A)
                 (A) (A) (A) (A) (A) (A) (A) (A) (A) (A) (A) (A)
                 (A) (A) (A) (A) (A) (A) (A) (A) (A) (A) (A) (A)
                 (A) (A) (A) (A) (A) (A) (A) (A) (A) (A) (A) (A)
                 (A) (A) (A) (A) (A) (A) (A) (A) (A) (A) (A) (A)
                 (A) (A) (A) (A) (A) (A) (A) (A) (A) (A) (A) (A)
                 (A) (A) (A) (A) (A) (A) (A) (A) (A) (A) (A) (A)
                 (A) (A) (A) (A) (A) (A) (A) (A) (A) (A) (A) (A)
                 (A) (A) (A) (A) (A) (A) (A) (A) (A) (A) (A) (A)
                 (A) (A)
 The electronic state of the initial guess is 1-A.
 Generating alternative initial guess.
 Harris functional with IExCor=  205 diagonalized for initial guess.
 ExpMin= 2.53D-02 ExpMax= 1.17D+07 ExpMxC= 1.33D+04 IAcc=3 IRadAn=         5 AccDes= 0.00D+00
 HarFok:  IExCor=  205 AccDes= 0.00D+00 IRadAn=         5 IDoV= 1
 ScaDFX=  1.000000  1.000000  1.000000  1.000000
 FoFCou: FMM=F IPFlag=           0 FMFlag=      100000 FMFlg1=           0
         NFxFlg=           0 DoJE=T BraDBF=F KetDBF=T FulRan=T
         Omega=  0.000000  0.000000  1.000000  0.000000  0.000000 ICntrl=     500 IOpCl=  0
         NMat0=    1 NMatS0=    1 NMatT0=    0 NMatD0=    1 NMtDS0=    0 NMtDT0=    0
         I1Cent=           4 NGrid=           0.
 Petite list used in FoFCou.
 Harris En= -2901.93192816936    
 Leave Link  401 at Sun Dec  8 13:40:59 2019, MaxMem=  536870912 cpu:       1.6
 (Enter /home/matheus/.gaussian/g09/l502.exe)
 Closed shell SCF:
 Requested convergence on RMS density matrix=1.00D-08 within 128 cycles.
 Requested convergence on MAX density matrix=1.00D-06.
 Requested convergence on             energy=1.00D-06.
 No special actions if energy rises.
 Using DIIS extrapolation, IDIIS=  1040.
 Integral symmetry usage will be decided dynamically.
 Keep R1 ints in memory in canonical form, NReq=353041168.
 IEnd=      178489 IEndB=      178489 NGot=   536870912 MDV=   189982426
 LenX=   189982426 LenY=   189929544
 Symmetry not used in FoFDir.
 MinBra= 0 MaxBra= 3 Meth= 1.
 IRaf=       0 NMat=   1 IRICut=       1 DoRegI=T DoRafI=F ISym2E= 0 JSym2E=0.

 Cycle   1  Pass 1  IDiag  1:
 E= -2902.88259693864    
 DIIS: error= 4.21D-04 at cycle   1 NSaved=   1.
 NSaved= 1 IEnMin= 1 EnMin= -2902.88259693864     IErMin= 1 ErrMin= 4.21D-04
 ErrMax= 4.21D-04 EMaxC= 1.00D-01 BMatC= 3.89D-05 BMatP= 3.89D-05
 IDIUse=3 WtCom= 9.96D-01 WtEn= 4.21D-03
 Coeff-Com:  0.100D+01
 Coeff-En:   0.100D+01
 Coeff:      0.100D+01
 Gap=     0.496 Goal=   None    Shift=    0.000
 RMSDP=5.94D-05 MaxDP=1.67D-03              OVMax= 2.45D-03

 Cycle   2  Pass 1  IDiag  1:
 E= -2902.88264308110     Delta-E=       -0.000046142457 Rises=F Damp=F
 DIIS: error= 8.22D-05 at cycle   2 NSaved=   2.
 NSaved= 2 IEnMin= 2 EnMin= -2902.88264308110     IErMin= 2 ErrMin= 8.22D-05
 ErrMax= 8.22D-05 EMaxC= 1.00D-01 BMatC= 1.15D-06 BMatP= 3.89D-05
 IDIUse=1 WtCom= 1.00D+00 WtEn= 0.00D+00
 Coeff-Com: -0.863D-01 0.109D+01
 Coeff:     -0.863D-01 0.109D+01
 Gap=     0.495 Goal=   None    Shift=    0.000
 RMSDP=1.05D-05 MaxDP=3.19D-04 DE=-4.61D-05 OVMax= 4.86D-04

 Cycle   3  Pass 1  IDiag  1:
 E= -2902.88264494947     Delta-E=       -0.000001868370 Rises=F Damp=F
 DIIS: error= 2.60D-05 at cycle   3 NSaved=   3.
 NSaved= 3 IEnMin= 3 EnMin= -2902.88264494947     IErMin= 3 ErrMin= 2.60D-05
 ErrMax= 2.60D-05 EMaxC= 1.00D-01 BMatC= 1.54D-07 BMatP= 1.15D-06
 IDIUse=1 WtCom= 1.00D+00 WtEn= 0.00D+00
 Coeff-Com: -0.372D-01 0.227D+00 0.811D+00
 Coeff:     -0.372D-01 0.227D+00 0.811D+00
 Gap=     0.495 Goal=   None    Shift=    0.000
 RMSDP=1.98D-06 MaxDP=6.46D-05 DE=-1.87D-06 OVMax= 1.25D-04

 Cycle   4  Pass 1  IDiag  1:
 E= -2902.88264511510     Delta-E=       -0.000000165633 Rises=F Damp=F
 DIIS: error= 9.38D-06 at cycle   4 NSaved=   4.
 NSaved= 4 IEnMin= 4 EnMin= -2902.88264511510     IErMin= 4 ErrMin= 9.38D-06
 ErrMax= 9.38D-06 EMaxC= 1.00D-01 BMatC= 2.34D-08 BMatP= 1.54D-07
 IDIUse=1 WtCom= 1.00D+00 WtEn= 0.00D+00
 Coeff-Com:  0.166D-02-0.613D-01 0.145D+00 0.915D+00
 Coeff:      0.166D-02-0.613D-01 0.145D+00 0.915D+00
 Gap=     0.495 Goal=   None    Shift=    0.000
 RMSDP=1.02D-06 MaxDP=3.93D-05 DE=-1.66D-07 OVMax= 7.46D-05

 Cycle   5  Pass 1  IDiag  1:
 E= -2902.88264514888     Delta-E=       -0.000000033779 Rises=F Damp=F
 DIIS: error= 3.59D-06 at cycle   5 NSaved=   5.
 NSaved= 5 IEnMin= 5 EnMin= -2902.88264514888     IErMin= 5 ErrMin= 3.59D-06
 ErrMax= 3.59D-06 EMaxC= 1.00D-01 BMatC= 3.24D-09 BMatP= 2.34D-08
 IDIUse=1 WtCom= 1.00D+00 WtEn= 0.00D+00
 Coeff-Com:  0.560D-02-0.438D-01-0.925D-01 0.150D+00 0.980D+00
 Coeff:      0.560D-02-0.438D-01-0.925D-01 0.150D+00 0.980D+00
 Gap=     0.495 Goal=   None    Shift=    0.000
 RMSDP=4.30D-07 MaxDP=1.59D-05 DE=-3.38D-08 OVMax= 3.58D-05

 Cycle   6  Pass 1  IDiag  1:
 E= -2902.88264515558     Delta-E=       -0.000000006704 Rises=F Damp=F
 DIIS: error= 1.23D-06 at cycle   6 NSaved=   6.
 NSaved= 6 IEnMin= 6 EnMin= -2902.88264515558     IErMin= 6 ErrMin= 1.23D-06
 ErrMax= 1.23D-06 EMaxC= 1.00D-01 BMatC= 3.89D-10 BMatP= 3.24D-09
 IDIUse=1 WtCom= 1.00D+00 WtEn= 0.00D+00
 Coeff-Com: -0.484D-03 0.101D-01-0.123D-01-0.137D+00 0.515D-02 0.113D+01
 Coeff:     -0.484D-03 0.101D-01-0.123D-01-0.137D+00 0.515D-02 0.113D+01
 Gap=     0.495 Goal=   None    Shift=    0.000
 RMSDP=1.53D-07 MaxDP=4.10D-06 DE=-6.70D-09 OVMax= 1.26D-05

 Cycle   7  Pass 1  IDiag  1:
 E= -2902.88264515639     Delta-E=       -0.000000000804 Rises=F Damp=F
 DIIS: error= 3.58D-07 at cycle   7 NSaved=   7.
 NSaved= 7 IEnMin= 7 EnMin= -2902.88264515639     IErMin= 7 ErrMin= 3.58D-07
 ErrMax= 3.58D-07 EMaxC= 1.00D-01 BMatC= 3.57D-11 BMatP= 3.89D-10
 IDIUse=1 WtCom= 1.00D+00 WtEn= 0.00D+00
 Coeff-Com: -0.662D-03 0.658D-02 0.752D-02-0.472D-01-0.830D-01 0.208D+00
 Coeff-Com:  0.909D+00
 Coeff:     -0.662D-03 0.658D-02 0.752D-02-0.472D-01-0.830D-01 0.208D+00
 Coeff:      0.909D+00
 Gap=     0.495 Goal=   None    Shift=    0.000
 RMSDP=4.40D-08 MaxDP=1.21D-06 DE=-8.04D-10 OVMax= 3.24D-06

 Cycle   8  Pass 1  IDiag  1:
 E= -2902.88264515647     Delta-E=       -0.000000000084 Rises=F Damp=F
 DIIS: error= 1.16D-07 at cycle   8 NSaved=   8.
 NSaved= 8 IEnMin= 8 EnMin= -2902.88264515647     IErMin= 8 ErrMin= 1.16D-07
 ErrMax= 1.16D-07 EMaxC= 1.00D-01 BMatC= 4.06D-12 BMatP= 3.57D-11
 IDIUse=1 WtCom= 1.00D+00 WtEn= 0.00D+00
 Coeff-Com:  0.217D-03-0.276D-02-0.398D-03 0.232D-01 0.304D-01-0.184D+00
 Coeff-Com: -0.240D+00 0.137D+01
 Coeff:      0.217D-03-0.276D-02-0.398D-03 0.232D-01 0.304D-01-0.184D+00
 Coeff:     -0.240D+00 0.137D+01
 Gap=     0.495 Goal=   None    Shift=    0.000
 RMSDP=2.04D-08 MaxDP=7.28D-07 DE=-8.41D-11 OVMax= 1.82D-06

 Cycle   9  Pass 1  IDiag  1:
 E= -2902.88264515649     Delta-E=       -0.000000000016 Rises=F Damp=F
 DIIS: error= 4.96D-08 at cycle   9 NSaved=   9.
 NSaved= 9 IEnMin= 9 EnMin= -2902.88264515649     IErMin= 9 ErrMin= 4.96D-08
 ErrMax= 4.96D-08 EMaxC= 1.00D-01 BMatC= 3.75D-13 BMatP= 4.06D-12
 IDIUse=1 WtCom= 1.00D+00 WtEn= 0.00D+00
 Coeff-Com:  0.114D-04 0.221D-04-0.488D-03-0.174D-02 0.304D-02 0.200D-01
 Coeff-Com: -0.288D-01-0.290D+00 0.130D+01
 Coeff:      0.114D-04 0.221D-04-0.488D-03-0.174D-02 0.304D-02 0.200D-01
 Coeff:     -0.288D-01-0.290D+00 0.130D+01
 Gap=     0.495 Goal=   None    Shift=    0.000
 RMSDP=6.85D-09 MaxDP=1.94D-07 DE=-1.59D-11 OVMax= 6.55D-07

 SCF Done:  E(RHF) =  -2902.88264516     A.U. after    9 cycles
             Convg  =    0.6849D-08             -V/T =  2.0001
 KE= 2.902584198721D+03 PE=-7.217784631921D+03 EE= 1.273720416551D+03
 Leave Link  502 at Sun Dec  8 13:41:07 2019, MaxMem=  536870912 cpu:      31.6
 (Enter /home/matheus/.gaussian/g09/l801.exe)
 Windowed orbitals will be sorted by symmetry type.
 ExpMin= 2.53D-02 ExpMax= 1.17D+07 ExpMxC= 1.33D+04 IAcc=3 IRadAn=         5 AccDes= 0.00D+00
 HarFok:  IExCor=  205 AccDes= 0.00D+00 IRadAn=         5 IDoV=-2
 ScaDFX=  1.000000  1.000000  1.000000  1.000000
 DSYEVD returned Info=          93 IAlg= 4 N=    46 NDim=    46 NE2=     9097315 trying DSYEV.
 DSYEVD returned Info=          93 IAlg= 4 N=    46 NDim=    46 NE2=     9097315 trying DSYEV.
[...]
                         Z-Matrix orientation:                         
 ---------------------------------------------------------------------
 Center     Atomic      Atomic             Coordinates (Angstroms)
 Number     Number       Type             X           Y           Z
 ---------------------------------------------------------------------
      1          8           0        0.000000    0.000000    0.725000
      2          8           0        0.000000    0.000000   -0.725000
      3          1           0        0.314221   -0.863315    1.023510
      4          1           0        0.000000    0.918721   -1.023510
      5         36           0        0.000000    5.000000    0.000000
 ---------------------------------------------------------------------
                    Distance matrix (angstroms):
                    1          2          3          4          5
     1  O    0.000000
     2  O    1.450000   0.000000
     3  H    0.966000   1.975180   0.000000
     4  H    1.975180   0.966000   2.732157   0.000000
     5  Kr   5.052289   5.052289   5.960266   4.207661   0.000000
 Stoichiometry    H2KrO2
 Framework group  C1[X(H2KrO2)]
 Deg. of freedom     9
 Full point group                 C1      NOp   1
 RotChk:  IX=0 Diff= 4.09D-04
 Largest Abelian subgroup         C1      NOp   1
 Largest concise Abelian subgroup C1      NOp   1
                         Standard orientation:                         
 ---------------------------------------------------------------------
 Center     Atomic      Atomic             Coordinates (Angstroms)
 Number     Number       Type             X           Y           Z
 ---------------------------------------------------------------------
      1          8           0        3.338788   -0.703117   -0.041633
      2          8           0        3.329684    0.746197    0.002021
      3          1           0        4.205330   -1.005406    0.259834
      4          1           0        2.409117    1.038679    0.014862
      5         36           0       -1.665617   -0.010497    0.001172
 ---------------------------------------------------------------------
 Rotational constants (GHZ):     26.5767121      0.8335823      0.8084647
 Leave Link  202 at Sun Dec  8 15:55:38 2019, MaxMem=  536870912 cpu:       0.0
 (Enter /home/matheus/.gaussian/g09/l301.exe)
 Standard basis: Aug-CC-pVTZ (5D, 7F)
 Ernie: Thresh=  0.10000D-02 Tol=  0.10000D-05 Strict=F.
 Ernie:  38 primitive shells out of 205 were deleted.
 There are   197 symmetry adapted basis functions of A   symmetry.
 Integral buffers will be    131072 words long.
 Raffenetti 1 integral format.
 Two-electron integral symmetry is turned on.
   197 basis functions,   415 primitive gaussians,   229 cartesian basis functions
    27 alpha electrons       27 beta electrons
       nuclear repulsion energy       104.6559929900 Hartrees.
 IExCor=    0 DFT=F Ex=HF Corr=None ExCW=0 ScaHFX=  1.000000
 ScaDFX=  1.000000  1.000000  1.000000  1.000000 ScalE2=  1.000000  1.000000
 IRadAn=      5 IRanWt=     -1 IRanGd=            0 ICorTp=0
 NAtoms=    5 NActive=    5 NUniq=    5 SFac= 1.00D+00 NAtFMM=   60 NAOKFM=F Big=F
 Leave Link  301 at Sun Dec  8 15:55:38 2019, MaxMem=  536870912 cpu:       0.1
 (Enter /home/matheus/.gaussian/g09/l302.exe)
 NPDir=0 NMtPBC=     1 NCelOv=     1 NCel=       1 NClECP=     1 NCelD=      1
         NCelK=      1 NCelE2=     1 NClLst=     1 CellRange=     0.0.
 One-electron integrals computed using PRISM.
 NBasis=   197 RedAO= T  NBF=   197
 NBsUse=   197 1.00D-06 NBFU=   197
 Leave Link  302 at Sun Dec  8 15:55:38 2019, MaxMem=  536870912 cpu:       0.4
 (Enter /home/matheus/.gaussian/g09/l303.exe)
 DipDrv:  MaxL=1.
 Leave Link  303 at Sun Dec  8 15:55:38 2019, MaxMem=  536870912 cpu:       0.1
 (Enter /home/matheus/.gaussian/g09/l401.exe)
 Initial guess read from the read-write file.
 B after Tr=     0.000000    0.000000    0.000000
         Rot=    1.000000    0.000000    0.000000    0.000000 Ang=   0.00 deg.
 Guess basis will be translated and rotated to current coordinates.
 Initial guess orbital symmetries:
       Occupied  (A) (A) (A) (A) (A) (A) (A) (A) (A) (A) (A) (A)
                 (A) (A) (A) (A) (A) (A) (A) (A) (A) (A) (A) (A)
                 (A) (A) (A)
       Virtual   (A) (A) (A) (A) (A) (A) (A) (A) (A) (A) (A) (A)
                 (A) (A) (A) (A) (A) (A) (A) (A) (A) (A) (A) (A)
                 (A) (A) (A) (A) (A) (A) (A) (A) (A) (A) (A) (A)
                 (A) (A) (A) (A) (A) (A) (A) (A) (A) (A) (A) (A)
                 (A) (A) (A) (A) (A) (A) (A) (A) (A) (A) (A) (A)
                 (A) (A) (A) (A) (A) (A) (A) (A) (A) (A) (A) (A)
                 (A) (A) (A) (A) (A) (A) (A) (A) (A) (A) (A) (A)
                 (A) (A) (A) (A) (A) (A) (A) (A) (A) (A) (A) (A)
                 (A) (A) (A) (A) (A) (A) (A) (A) (A) (A) (A) (A)
                 (A) (A) (A) (A) (A) (A) (A) (A) (A) (A) (A) (A)
                 (A) (A) (A) (A) (A) (A) (A) (A) (A) (A) (A) (A)
                 (A) (A) (A) (A) (A) (A) (A) (A) (A) (A) (A) (A)
                 (A) (A) (A) (A) (A) (A) (A) (A) (A) (A) (A) (A)
                 (A) (A) (A) (A) (A) (A) (A) (A) (A) (A) (A) (A)
                 (A) (A)
 The electronic state of the initial guess is 1-A.
 Generating alternative initial guess.
 Harris functional with IExCor=  205 diagonalized for initial guess.
 ExpMin= 2.53D-02 ExpMax= 1.17D+07 ExpMxC= 1.33D+04 IAcc=3 IRadAn=         5 AccDes= 0.00D+00
 HarFok:  IExCor=  205 AccDes= 0.00D+00 IRadAn=         5 IDoV= 1
 ScaDFX=  1.000000  1.000000  1.000000  1.000000
 FoFCou: FMM=F IPFlag=           0 FMFlag=      100000 FMFlg1=           0
         NFxFlg=           0 DoJE=T BraDBF=F KetDBF=T FulRan=T
         Omega=  0.000000  0.000000  1.000000  0.000000  0.000000 ICntrl=     500 IOpCl=  0
         NMat0=    1 NMatS0=    1 NMatT0=    0 NMatD0=    1 NMtDS0=    0 NMtDT0=    0
         I1Cent=           4 NGrid=           0.
 Petite list used in FoFCou.
 Harris En= -2901.93185838248    
 Leave Link  401 at Sun Dec  8 15:55:38 2019, MaxMem=  536870912 cpu:       1.5
 (Enter /home/matheus/.gaussian/g09/l502.exe)
 Closed shell SCF:
 Requested convergence on RMS density matrix=1.00D-08 within 128 cycles.
 Requested convergence on MAX density matrix=1.00D-06.
 Requested convergence on             energy=1.00D-06.
 No special actions if energy rises.
 Using DIIS extrapolation, IDIIS=  1040.
 Integral symmetry usage will be decided dynamically.
 Keep R1 ints in memory in canonical form, NReq=353041168.
 IEnd=      178489 IEndB=      178489 NGot=   536870912 MDV=   189982426
 LenX=   189982426 LenY=   189929544
 Symmetry not used in FoFDir.
 MinBra= 0 MaxBra= 3 Meth= 1.
 IRaf=       0 NMat=   1 IRICut=       1 DoRegI=T DoRafI=F ISym2E= 0 JSym2E=0.

 Cycle   1  Pass 1  IDiag  1:
 E= -2902.88529153165    
 DIIS: error= 3.78D-05 at cycle   1 NSaved=   1.
 NSaved= 1 IEnMin= 1 EnMin= -2902.88529153165     IErMin= 1 ErrMin= 3.78D-05
 ErrMax= 3.78D-05 EMaxC= 1.00D-01 BMatC= 5.45D-07 BMatP= 5.45D-07
 IDIUse=1 WtCom= 1.00D+00 WtEn= 0.00D+00
 Coeff-Com:  0.100D+01
 Coeff:      0.100D+01
 Gap=     0.497 Goal=   None    Shift=    0.000
 RMSDP=2.15D-05 MaxDP=9.19D-04              OVMax= 3.03D-04

 Cycle   2  Pass 1  IDiag  1:
 E= -2902.88529210624     Delta-E=       -0.000000574591 Rises=F Damp=F
 DIIS: error= 7.81D-06 at cycle   2 NSaved=   2.
 NSaved= 2 IEnMin= 2 EnMin= -2902.88529210624     IErMin= 2 ErrMin= 7.81D-06
 ErrMax= 7.81D-06 EMaxC= 1.00D-01 BMatC= 1.46D-08 BMatP= 5.45D-07
 IDIUse=1 WtCom= 1.00D+00 WtEn= 0.00D+00
 Coeff-Com: -0.414D-01 0.104D+01
 Coeff:     -0.414D-01 0.104D+01
 Gap=     0.496 Goal=   None    Shift=    0.000
 RMSDP=2.33D-06 MaxDP=9.74D-05 DE=-5.75D-07 OVMax= 5.38D-05

 Cycle   3  Pass 1  IDiag  1:
 E= -2902.88529212796     Delta-E=       -0.000000021725 Rises=F Damp=F
 DIIS: error= 3.53D-06 at cycle   3 NSaved=   3.
 NSaved= 3 IEnMin= 3 EnMin= -2902.88529212796     IErMin= 3 ErrMin= 3.53D-06
 ErrMax= 3.53D-06 EMaxC= 1.00D-01 BMatC= 1.50D-09 BMatP= 1.46D-08
 IDIUse=1 WtCom= 1.00D+00 WtEn= 0.00D+00
 Coeff-Com: -0.232D-01 0.134D+00 0.889D+00
 Coeff:     -0.232D-01 0.134D+00 0.889D+00
 Gap=     0.496 Goal=   None    Shift=    0.000
 RMSDP=2.72D-07 MaxDP=9.27D-06 DE=-2.17D-08 OVMax= 1.86D-05

 Cycle   4  Pass 1  IDiag  1:
 E= -2902.88529213026     Delta-E=       -0.000000002301 Rises=F Damp=F
 DIIS: error= 9.75D-07 at cycle   4 NSaved=   4.
 NSaved= 4 IEnMin= 4 EnMin= -2902.88529213026     IErMin= 4 ErrMin= 9.75D-07
 ErrMax= 9.75D-07 EMaxC= 1.00D-01 BMatC= 2.46D-10 BMatP= 1.50D-09
 IDIUse=1 WtCom= 1.00D+00 WtEn= 0.00D+00
 Coeff-Com:  0.118D-02-0.681D-01 0.413D-01 0.103D+01
 Coeff:      0.118D-02-0.681D-01 0.413D-01 0.103D+01
 Gap=     0.496 Goal=   None    Shift=    0.000
 RMSDP=9.99D-08 MaxDP=3.59D-06 DE=-2.30D-09 OVMax= 9.39D-06

 Cycle   5  Pass 1  IDiag  1:
 E= -2902.88529213070     Delta-E=       -0.000000000442 Rises=F Damp=F
 DIIS: error= 4.14D-07 at cycle   5 NSaved=   5.
 NSaved= 5 IEnMin= 5 EnMin= -2902.88529213070     IErMin= 5 ErrMin= 4.14D-07
 ErrMax= 4.14D-07 EMaxC= 1.00D-01 BMatC= 6.05D-11 BMatP= 2.46D-10
 IDIUse=1 WtCom= 1.00D+00 WtEn= 0.00D+00
 Coeff-Com:  0.414D-02-0.440D-01-0.144D+00 0.332D+00 0.852D+00
 Coeff:      0.414D-02-0.440D-01-0.144D+00 0.332D+00 0.852D+00
 Gap=     0.496 Goal=   None    Shift=    0.000
 RMSDP=3.90D-08 MaxDP=1.19D-06 DE=-4.42D-10 OVMax= 4.39D-06

 Cycle   6  Pass 1  IDiag  1:
 E= -2902.88529213080     Delta-E=       -0.000000000093 Rises=F Damp=F
 DIIS: error= 1.41D-07 at cycle   6 NSaved=   6.
 NSaved= 6 IEnMin= 6 EnMin= -2902.88529213080     IErMin= 6 ErrMin= 1.41D-07
 ErrMax= 1.41D-07 EMaxC= 1.00D-01 BMatC= 3.00D-12 BMatP= 6.05D-11
 IDIUse=1 WtCom= 1.00D+00 WtEn= 0.00D+00
 Coeff-Com: -0.775D-03 0.140D-01 0.163D-01-0.148D+00-0.115D+00 0.123D+01
 Coeff:     -0.775D-03 0.140D-01 0.163D-01-0.148D+00-0.115D+00 0.123D+01
 Gap=     0.496 Goal=   None    Shift=    0.000
 RMSDP=1.58D-08 MaxDP=3.02D-07 DE=-9.28D-11 OVMax= 1.62D-06

 Cycle   7  Pass 1  IDiag  1:
 E= -2902.88529213079     Delta-E=        0.000000000009 Rises=F Damp=F
 DIIS: error= 3.68D-08 at cycle   7 NSaved=   7.
 NSaved= 7 IEnMin= 6 EnMin= -2902.88529213080     IErMin= 7 ErrMin= 3.68D-08
 ErrMax= 3.68D-08 EMaxC= 1.00D-01 BMatC= 3.52D-13 BMatP= 3.00D-12
 IDIUse=1 WtCom= 1.00D+00 WtEn= 0.00D+00
 Coeff-Com: -0.342D-03 0.396D-02 0.116D-01-0.350D-01-0.700D-01 0.832D-01
 Coeff-Com:  0.101D+01
 Coeff:     -0.342D-03 0.396D-02 0.116D-01-0.350D-01-0.700D-01 0.832D-01
 Coeff:      0.101D+01
 Gap=     0.496 Goal=   None    Shift=    0.000
 RMSDP=4.31D-09 MaxDP=9.46D-08 DE= 9.09D-12 OVMax= 5.27D-07

 SCF Done:  E(RHF) =  -2902.88529213     A.U. after    7 cycles
             Convg  =    0.4312D-08             -V/T =  2.0001
 KE= 2.902563730197D+03 PE=-7.150019974590D+03 EE= 1.239914959272D+03
 Leave Link  502 at Sun Dec  8 15:55:46 2019, MaxMem=  536870912 cpu:      28.1
 (Enter /home/matheus/.gaussian/g09/l801.exe)
 Windowed orbitals will be sorted by symmetry type.
 ExpMin= 2.53D-02 ExpMax= 1.17D+07 ExpMxC= 1.33D+04 IAcc=3 IRadAn=         5 AccDes= 0.00D+00
 HarFok:  IExCor=  205 AccDes= 0.00D+00 IRadAn=         5 IDoV=-2
 ScaDFX=  1.000000  1.000000  1.000000  1.000000
 DSYEVD returned Info=          93 IAlg= 4 N=    46 NDim=    46 NE2=     9097315 trying DSYEV.
 DSYEVD returned Info=          89 IAlg= 4 N=    59 NDim=    59 NE2=     9097315 trying DSYEV.
 Largest valence mixing into a core orbital is  1.47D-04
 Largest core mixing into a valence orbital is  2.60D-05
 Range of M.O.s used for correlation:    12   197
 NBasis=   197 NAE=    27 NBE=    27 NFC=    11 NFV=     0
 NROrb=    186 NOA=    16 NOB=    16 NVA=   170 NVB=   170

 **** Warning!!: The largest alpha MO coefficient is  0.13701197D+02

 Leave Link  801 at Sun Dec  8 15:55:46 2019, MaxMem=  536870912 cpu:       0.3
 (Enter /home/matheus/.gaussian/g09/l804.exe)
 Closed-shell transformation, MDV=   536870912 ITran=4 ISComp=1.
 Semi-Direct transformation.
 ModeAB=           4 MOrb=            16 LenV=     535786760
 LASXX=     48528660 LTotXX=    48528660 LenRXX=    97827436
 LTotAB=    49298776 MaxLAS=    72153120 LenRXY=           0
 NonZer=   146356096 LenScr=   220395520 LnRSAI=    72153120
 LnScr1=   108983296 LExtra=           0 Total=    499359372
 MaxDsk=          -1 SrtSym=           T ITran=            4
 DoSDTr:  NPSUse=  4
 JobTyp=0 Pass  1:  I=   1 to  16.
 (rs|ai) integrals will be sorted in core.
 Complete sort for first half transformation.
 First half transformation complete.
 Begin second half transformation for I=  10.
 Complete sort for second half transformation.
 Second half transformation complete.
 SymMOI:  orbitals are not symmetric.
 Spin components of T(2) and E(2):
     alpha-alpha T2 =       0.2542159902D-01 E2=     -0.9828823726D-01
     alpha-beta  T2 =       0.1409454288D+00 E2=     -0.5523579821D+00
     beta-beta   T2 =       0.2542159902D-01 E2=     -0.9828823726D-01
 ANorm=    0.1091690719D+01
 E2 =    -0.7489344566D+00 EUMP2 =    -0.29036342265874D+04
 Leave Link  804 at Sun Dec  8 15:56:01 2019, MaxMem=  536870912 cpu:      60.8
 (Enter /home/matheus/.gaussian/g09/l913.exe)
 CIDS:  MDV=   536870912.
 Frozen-core window:  NFC=  11 NFV=   0.
 IFCWin=0 IBDFC=1 NFBD=     0     0 NFCmp=     0     0 NFFFC=     0     0
 Using DD3R+UMP44R for 1st iteration, S=T.
 Using DD4RQ for 2nd and later iterations.
 Would need an additional       162771220 words for in-memory AO integral storage.
 MP4(SDTQ)
 =========
 DD1Dir will call FoFDir   1 times, MxPair=       272
 NAB=   136 NAA=     0 NBB=     0 NumPrc=  4.
 Integrals replicated using symmetry in FoFDir.
 MinBra= 0 MaxBra= 3 Meth= 1.
 IRaf=       0 NMat= 272 IRICut=     340 DoRegI=T DoRafI=T ISym2E= 2 JSym2E=2.
 MP4(D)= -0.14926155D-01
 MP4(S)= -0.62135088D-02
 MP4(R+Q)=  0.14919184D-01
 T4(AAA)= -0.97770240D-03
 T4(AAB)= -0.13729433D-01
 Time for triples=     1704.40 seconds.
 MP4(T)=   -0.29414271D-01
 E3=       -0.12181168D-01        EUMP3=      -0.29036464078D+04
 E4(DQ)=   -0.69712528D-05        UMP4(DQ)=   -0.29036464147D+04
 E4(SDQ)=  -0.62204801D-02        UMP4(SDQ)=  -0.29036526282D+04
 E4(SDTQ)= -0.35634751D-01        UMP4(SDTQ)= -0.29036820425D+04
 VARIATIONAL ENERGIES WITH THE FIRST-ORDER WAVEFUNCTION:
 E(VAR1)=  -0.29035239252D+04     E(CISD,4)=  -0.29035239103D+04
 Largest amplitude= 2.29D-02
 Leave Link  913 at Sun Dec  8 16:03:36 2019, MaxMem=  536870912 cpu:    1815.5
 (Enter /home/matheus/.gaussian/g09/l108.exe)
 Scan completed.

 Summary of the potential surface scan:
   N      R1          SCF          MP2          MP3         MP4DQ       MP4SDQ       MP4SDTQ  
 ----  ---------  -----------  -----------  -----------  -----------  -----------  -----------
    1     3.0000  -2902.87734  -2903.63337  -2903.64470  -2903.64430  -2903.65070  -2903.68104
    2     3.1000  -2902.87974  -2903.63468  -2903.64617  -2903.64583  -2903.65220  -2903.68240
    3     3.2000  -2902.88144  -2903.63545  -2903.64707  -2903.64679  -2903.65314  -2903.68322
    4     3.3000  -2902.88265  -2903.63586  -2903.64758  -2903.64734  -2903.65367  -2903.68365
    5     3.4000  -2902.88349  -2903.63602  -2903.64782  -2903.64763  -2903.65394  -2903.68383
    6     3.5000  -2902.88408  -2903.63603  -2903.64789  -2903.64773  -2903.65403  -2903.68384
    7     3.6000  -2902.88448  -2903.63593  -2903.64785  -2903.64772  -2903.65401  -2903.68375
    8     3.7000  -2902.88476  -2903.63578  -2903.64775  -2903.64765  -2903.65392  -2903.68361
    9     3.8000  -2902.88495  -2903.63561  -2903.64761  -2903.64753  -2903.65379  -2903.68343
   10     3.9000  -2902.88507  -2903.63543  -2903.64747  -2903.64740  -2903.65366  -2903.68326
   11     4.0000  -2902.88516  -2903.63526  -2903.64732  -2903.64727  -2903.65351  -2903.68308
   12     4.1000  -2902.88521  -2903.63510  -2903.64718  -2903.64714  -2903.65338  -2903.68292
   13     4.2000  -2902.88525  -2903.63495  -2903.64705  -2903.64702  -2903.65326  -2903.68277
   14     4.3000  -2902.88527  -2903.63482  -2903.64693  -2903.64691  -2903.65314  -2903.68263
   15     4.4000  -2902.88528  -2903.63470  -2903.64683  -2903.64681  -2903.65304  -2903.68252
   16     4.5000  -2902.88529  -2903.63459  -2903.64673  -2903.64673  -2903.65295  -2903.68241
   17     4.6000  -2902.88529  -2903.63450  -2903.64665  -2903.64665  -2903.65287  -2903.68232
   18     4.7000  -2902.88530  -2903.63442  -2903.64658  -2903.64658  -2903.65280  -2903.68224
   19     4.8000  -2902.88530  -2903.63435  -2903.64652  -2903.64652  -2903.65273  -2903.68216
   20     4.9000  -2902.88529  -2903.63428  -2903.64646  -2903.64646  -2903.65268  -2903.68210
   21     5.0000  -2902.88529  -2903.63423  -2903.64641  -2903.64641  -2903.65263  -2903.68204
 ----  ---------  -----------  -----------  -----------  -----------  -----------  -----------
  
 Leave Link  108 at Sun Dec  8 16:03:36 2019, MaxMem=  536870912 cpu:       0.0
 (Enter /home/matheus/.gaussian/g09/l9999.exe)
 1\1\GINC-REDGIANT\Scan\RMP4SDTQ-FC\Aug-CC-pVTZ\H2Kr1O2\ROOT\08-Dec-201
 9\1\\#p mp4/aug-cc-PVTz int=ultrafine Scan\\PTCC\\0,1\O,0,0.,0.,0.725\
 O,0,0.,0.,-0.725\H,0,0.3142209495,-0.8633149634,1.0235104166\H,0,0.,0.
 9187205947,-1.0235104166\Kr,0,0.,R1,0.\\R1=3.,s,20,0.1\\Version=EM64L-
 G09RevC.01\State=1-A\HF=-2902.8773427,-2902.8797418,-2902.881444,-2902
 .8826452,-2902.8834878,-2902.8840751,-2902.8844813,-2902.8847597,-2902
 .8849485,-2902.8850749,-2902.8851584,-2902.8852128,-2902.8852476,-2902
 .8852695,-2902.8852827,-2902.8852903,-2902.8852941,-2902.8852954,-2902
 .8852951,-2902.8852939,-2902.8852921\MP2=-2903.6333734,-2903.6346798,-
 2903.6354531,-2903.6358606,-2903.6360227,-2903.6360261,-2903.6359325,-
 2903.6357846,-2903.6356117,-2903.6354324,-2903.6352583,-2903.6350958,-
 2903.6349479,-2903.6348152,-2903.6346973,-2903.6345929,-2903.6345005,-
 2903.6344189,-2903.6343468,-2903.634283,-2903.6342266\MP3=-2903.644701
 3,-2903.6461684,-2903.6470693,-2903.6475784,-2903.6478222,-2903.647891
 8,-2903.6478523,-2903.6477492,-2903.6476135,-2903.6474654,-2903.647317
 6,-2903.6471773,-2903.6470482,-2903.6469315,-2903.6468273,-2903.646734
 7,-2903.6466526,-2903.6465798,-2903.6465153,-2903.6464583,-2903.646407
 8\MP4D=-2903.659649,-2903.6611131,-2903.6620119,-2903.6625194,-2903.66
 27617,-2903.6628299,-2903.662789,-2903.6626847,-2903.6625478,-2903.662
 3987,-2903.6622499,-2903.6621088,-2903.6619789,-2903.6618615,-2903.661
 7566,-2903.6616634,-2903.6615807,-2903.6615073,-2903.6614424,-2903.661
 3848,-2903.6613339\MP4DQ=-2903.6442986,-2903.6458302,-2903.6467872,-29
 03.6473445,-2903.6476295,-2903.647734,-2903.6477239,-2903.6476455,-290
 3.6475305,-2903.6473998,-2903.6472663,-2903.647138,-2903.6470187,-2903
 .6469102,-2903.6468127,-2903.6467256,-2903.646648,-2903.646579,-2903.6
 465176,-2903.6464631,-2903.6464147\MP4SDQ=-2903.6506989,-2903.6522037,
 -2903.6531375,-2903.653675,-2903.6539426,-2903.6540321,-2903.654009,-2
 903.6539194,-2903.6537946,-2903.6536554,-2903.6535146,-2903.65338,-290
 3.6532553,-2903.6531422,-2903.6530407,-2903.6529501,-2903.6528696,-290
 3.6527981,-2903.6527345,-2903.6526782,-2903.6526282\MP4SDTQ=-2903.6810
 43,-2903.6824041,-2903.6832154,-2903.6836483,-2903.6838266,-2903.68383
 97,-2903.6837514,-2903.6836062,-2903.6834343,-2903.683255,-2903.683080
 5,-2903.6829172,-2903.6827683,-2903.6826348,-2903.682516,-2903.6824108
 ,-2903.6823178,-2903.6822357,-2903.6821632,-2903.6820991,-2903.6820425
 \RMSD=3.007e-09,8.379e-09,7.511e-09,6.849e-09,6.374e-09,5.987e-09,5.57
 5e-09,9.772e-09,8.176e-09,6.915e-09,6.001e-09,5.373e-09,9.303e-09,8.43
 6e-09,7.605e-09,6.851e-09,6.171e-09,5.579e-09,5.082e-09,4.667e-09,4.31
 2e-09\PG=C01 [X(H2Kr1O2)]\\@


     "IF I COULD JUST GET IT ON PAPER"
 LIFE AND INK, THEY RUN OUT AT THE SAME TIME,
 OR SO SAID MY OLD FRIEND THE SQUID.
     -- JIMMY BUFFETT, 1981
 Job cpu time:  0 days 10 hours 59 minutes 57.5 seconds.
 File lengths (MBytes):  RWF=   3948 Int=      0 D2E=      0 Chk=      4 Scr=      1
 Normal termination of Gaussian 09 at Sun Dec  8 16:03:37 2019.
