 Entering Gaussian System, Link 0=g09
 Input=/home/matheus/.ptcc/Inputs/H2O2-Kr_24.com
 Output=/home/matheus/.ptcc/Logs-MP4/H2O2-Kr_24.log
 Initial command:
 /home/matheus/.gaussian/g09/l1.exe /home/matheus/.gaussian/g09/scratch/Gau-19377.inp -scrdir=/home/matheus/.gaussian/g09/scratch/
 Entering Link 1 = /home/matheus/.gaussian/g09/l1.exe PID=     19379.
  
 Copyright (c) 1988,1990,1992,1993,1995,1998,2003,2009,2011,
            Gaussian, Inc.  All Rights Reserved.
  
 This is part of the Gaussian(R) 09 program.  It is based on
 the Gaussian(R) 03 system (copyright 2003, Gaussian, Inc.),
 the Gaussian(R) 98 system (copyright 1998, Gaussian, Inc.),
 the Gaussian(R) 94 system (copyright 1995, Gaussian, Inc.),
 the Gaussian 92(TM) system (copyright 1992, Gaussian, Inc.),
 the Gaussian 90(TM) system (copyright 1990, Gaussian, Inc.),
 the Gaussian 88(TM) system (copyright 1988, Gaussian, Inc.),
 the Gaussian 86(TM) system (copyright 1986, Carnegie Mellon
 University), and the Gaussian 82(TM) system (copyright 1983,
 Carnegie Mellon University). Gaussian is a federally registered
 trademark of Gaussian, Inc.
  
 This software contains proprietary and confidential information,
 including trade secrets, belonging to Gaussian, Inc.
  
 This software is provided under written license and may be
 used, copied, transmitted, or stored only in accord with that
 written license.
  
 The following legend is applicable only to US Government
 contracts under FAR:
  
                    RESTRICTED RIGHTS LEGEND
  
 Use, reproduction and disclosure by the US Government is
 subject to restrictions as set forth in subparagraphs (a)
 and (c) of the Commercial Computer Software - Restricted
 Rights clause in FAR 52.227-19.
  
 Gaussian, Inc.
 340 Quinnipiac St., Bldg. 40, Wallingford CT 06492
  
  
 ---------------------------------------------------------------
 Warning -- This program may not be used in any manner that
 competes with the business of Gaussian, Inc. or will provide
 assistance to any competitor of Gaussian, Inc.  The licensee
 of this program is prohibited from giving any competitor of
 Gaussian, Inc. access to this program.  By using this program,
 the user acknowledges that Gaussian, Inc. is engaged in the
 business of creating and licensing software in the field of
 computational chemistry and represents and warrants to the
 licensee that it is not a competitor of Gaussian, Inc. and that
 it will not use this program in any manner prohibited above.
 ---------------------------------------------------------------
  

 Cite this work as:
 Gaussian 09, Revision C.01,
 M. J. Frisch, G. W. Trucks, H. B. Schlegel, G. E. Scuseria, 
 M. A. Robb, J. R. Cheeseman, G. Scalmani, V. Barone, B. Mennucci, 
 G. A. Petersson, H. Nakatsuji, M. Caricato, X. Li, H. P. Hratchian, 
 A. F. Izmaylov, J. Bloino, G. Zheng, J. L. Sonnenberg, M. Hada, 
 M. Ehara, K. Toyota, R. Fukuda, J. Hasegawa, M. Ishida, T. Nakajima, 
 Y. Honda, O. Kitao, H. Nakai, T. Vreven, J. A. Montgomery, Jr., 
 J. E. Peralta, F. Ogliaro, M. Bearpark, J. J. Heyd, E. Brothers, 
 K. N. Kudin, V. N. Staroverov, T. Keith, R. Kobayashi, J. Normand, 
 K. Raghavachari, A. Rendell, J. C. Burant, S. S. Iyengar, J. Tomasi, 
 M. Cossi, N. Rega, J. M. Millam, M. Klene, J. E. Knox, J. B. Cross, 
 V. Bakken, C. Adamo, J. Jaramillo, R. Gomperts, R. E. Stratmann, 
 O. Yazyev, A. J. Austin, R. Cammi, C. Pomelli, J. W. Ochterski, 
 R. L. Martin, K. Morokuma, V. G. Zakrzewski, G. A. Voth, 
 P. Salvador, J. J. Dannenberg, S. Dapprich, A. D. Daniels, 
 O. Farkas, J. B. Foresman, J. V. Ortiz, J. Cioslowski, 
 and D. J. Fox, Gaussian, Inc., Wallingford CT, 2010.
 
 ******************************************
 Gaussian 09:  EM64L-G09RevC.01 23-Sep-2011
                12-Dec-2019 
 ******************************************
 %mem=2GB
 %nproc=2
 Will use up to    2 processors via shared memory.
 -------------------------------------
 #p mp4/aug-cc-PVTz int=ultrafine Scan
 -------------------------------------
 1/38=1,60=1/1,8;
 2/12=2,17=6,18=5,29=3,40=1/2;
 3/5=16,6=1,7=10,11=9,16=1,25=1,30=1,75=-5/1,2,3;
 4//1;
 5/5=2,38=5/2;
 8/6=4,9=120000,10=1/1,4;
 9/5=5/13;
 6/7=2,8=2,9=2,10=2,18=1/1;
 1/60=1/8(1);
 99/9=1/99;
 2/29=3/2;
 3/5=16,6=1,7=10,11=9,16=1,25=1,30=1,75=-5/1,2,3;
 4/5=5,16=3/1;
 5/5=2,38=5/2;
 8/6=4,9=120000,10=1/1,4;
 9/5=5/13;
 1/60=1/8(-6);
 99/9=1/99;
 Leave Link    1 at Thu Dec 12 21:01:24 2019, MaxMem=  268435456 cpu:       0.0
 (Enter /home/matheus/.gaussian/g09/l101.exe)
 ----
 PTCC
 ----
 Charge =  0 Multiplicity = 1
 Symbolic Z-Matrix:
 O                     0.        0.        0.725 
 O                     0.        0.       -0.725 
 H                    -0.79564  -0.45936   1.02351 
 H                     0.        0.91872  -1.02351 
 Kr                    0.       R1        0. 
       Variables:
  R1                    3.     Scan 20    0.1    
 
 NAtoms=      5 NQM=        0 NQMF=       0 NMMI=      5 NMMIF=      0
                NMic=       0 NMicF=      0.
                    Isotopes and Nuclear Properties:
 (Nuclear quadrupole moments (NQMom) in fm**2, nuclear magnetic moments (NMagM)
  in nuclear magnetons)

  Atom         1           2           3           4           5
 IAtWgt=          16          16           1           1          84
 AtmWgt=  15.9949146  15.9949146   1.0078250   1.0078250  83.9115064
 NucSpn=           0           0           1           1           0
 AtZEff=   0.0000000   0.0000000   0.0000000   0.0000000   0.0000000
 NQMom=    0.0000000   0.0000000   0.0000000   0.0000000   0.0000000
 NMagM=    0.0000000   0.0000000   2.7928460   2.7928460   0.0000000
 Leave Link  101 at Thu Dec 12 21:01:24 2019, MaxMem=  268435456 cpu:       0.1
 (Enter /home/matheus/.gaussian/g09/l108.exe)
 Scan the potential surface.
 Variable   Value     No. Steps Step-Size
 -------- ----------- --------- ---------
     1       3.000000      20      0.1000
 A total of     21 points will be computed.
 Leave Link  108 at Thu Dec 12 21:01:25 2019, MaxMem=  268435456 cpu:       0.0
 (Enter /home/matheus/.gaussian/g09/l202.exe)
 ---------------------------------------------------------------------------------------------------
                            Z-MATRIX (ANGSTROMS AND DEGREES)
   CD    Cent   Atom    N1       Length/X        N2       Alpha/Y        N3        Beta/Z          J
 ---------------------------------------------------------------------------------------------------
      1      1  O        0   0.000000          0.000000          0.725000
      2      2  O        0   0.000000          0.000000         -0.725000
      3      3  H        0  -0.795635         -0.459360          1.023510
      4      4  H        0   0.000000          0.918721         -1.023510
      5      5  Kr       0   0.000000          3.000000          0.000000
 ---------------------------------------------------------------------------------------------------
                         Z-Matrix orientation:                         
 ---------------------------------------------------------------------
 Center     Atomic      Atomic             Coordinates (Angstroms)
 Number     Number       Type             X           Y           Z
 ---------------------------------------------------------------------
      1          8           0        0.000000    0.000000    0.725000
      2          8           0        0.000000    0.000000   -0.725000
      3          1           0       -0.795635   -0.459360    1.023510
      4          1           0        0.000000    0.918721   -1.023510
      5         36           0        0.000000    3.000000    0.000000
 ---------------------------------------------------------------------
                    Distance matrix (angstroms):
                    1          2          3          4          5
     1  O    0.000000
     2  O    1.450000   0.000000
     3  H    0.966000   1.975180   0.000000
     4  H    1.975180   0.966000   2.592766   0.000000
     5  Kr   3.086361   3.086361   3.694291   2.319331   0.000000
 Stoichiometry    H2KrO2
 Framework group  C1[X(H2KrO2)]
 Deg. of freedom     9
 Full point group                 C1      NOp   1
 Largest Abelian subgroup         C1      NOp   1
 Largest concise Abelian subgroup C1      NOp   1
                         Standard orientation:                         
 ---------------------------------------------------------------------
 Center     Atomic      Atomic             Coordinates (Angstroms)
 Number     Number       Type             X           Y           Z
 ---------------------------------------------------------------------
      1          8           0       -2.018349   -0.689087   -0.106614
      2          8           0       -1.996994    0.756239    0.007743
      3          1           0       -2.496711   -1.041750    0.654934
      4          1           0       -1.074134    1.038958    0.047181
      5         36           0        0.991489   -0.014845    0.002468
 ---------------------------------------------------------------------
 Rotational constants (GHZ):     25.8792574      2.3237795      2.1427447
 Leave Link  202 at Thu Dec 12 21:01:25 2019, MaxMem=  268435456 cpu:       0.0
 (Enter /home/matheus/.gaussian/g09/l301.exe)
 Standard basis: Aug-CC-pVTZ (5D, 7F)
 Ernie: Thresh=  0.10000D-02 Tol=  0.10000D-05 Strict=F.
 Ernie:  38 primitive shells out of 205 were deleted.
 There are   197 symmetry adapted basis functions of A   symmetry.
 Integral buffers will be    131072 words long.
 Raffenetti 1 integral format.
 Two-electron integral symmetry is turned on.
   197 basis functions,   415 primitive gaussians,   229 cartesian basis functions
    27 alpha electrons       27 beta electrons
       nuclear repulsion energy       148.7418288716 Hartrees.
 IExCor=    0 DFT=F Ex=HF Corr=None ExCW=0 ScaHFX=  1.000000
 ScaDFX=  1.000000  1.000000  1.000000  1.000000 ScalE2=  1.000000  1.000000
 IRadAn=      5 IRanWt=     -1 IRanGd=            0 ICorTp=0
 NAtoms=    5 NActive=    5 NUniq=    5 SFac= 1.00D+00 NAtFMM=   60 NAOKFM=F Big=F
 Leave Link  301 at Thu Dec 12 21:01:25 2019, MaxMem=  268435456 cpu:       0.0
 (Enter /home/matheus/.gaussian/g09/l302.exe)
 NPDir=0 NMtPBC=     1 NCelOv=     1 NCel=       1 NClECP=     1 NCelD=      1
         NCelK=      1 NCelE2=     1 NClLst=     1 CellRange=     0.0.
 One-electron integrals computed using PRISM.
 NBasis=   197 RedAO= T  NBF=   197
 NBsUse=   197 1.00D-06 NBFU=   197
 Leave Link  302 at Thu Dec 12 21:01:25 2019, MaxMem=  268435456 cpu:       0.2
 (Enter /home/matheus/.gaussian/g09/l303.exe)
 DipDrv:  MaxL=1.
 Leave Link  303 at Thu Dec 12 21:01:25 2019, MaxMem=  268435456 cpu:       0.1
 (Enter /home/matheus/.gaussian/g09/l401.exe)
 Harris functional with IExCor=  205 diagonalized for initial guess.
 ExpMin= 2.53D-02 ExpMax= 1.17D+07 ExpMxC= 1.33D+04 IAcc=3 IRadAn=         5 AccDes= 0.00D+00
 HarFok:  IExCor=  205 AccDes= 0.00D+00 IRadAn=         5 IDoV= 1
 ScaDFX=  1.000000  1.000000  1.000000  1.000000
 FoFCou: FMM=F IPFlag=           0 FMFlag=      100000 FMFlg1=           0
         NFxFlg=           0 DoJE=T BraDBF=F KetDBF=T FulRan=T
         Omega=  0.000000  0.000000  1.000000  0.000000  0.000000 ICntrl=     500 IOpCl=  0
         NMat0=    1 NMatS0=    1 NMatT0=    0 NMatD0=    1 NMtDS0=    0 NMtDT0=    0
         I1Cent=           4 NGrid=           0.
 Petite list used in FoFCou.
 Harris En= -2901.93222524940    
 Initial guess orbital symmetries:
       Occupied  (A) (A) (A) (A) (A) (A) (A) (A) (A) (A) (A) (A)
                 (A) (A) (A) (A) (A) (A) (A) (A) (A) (A) (A) (A)
                 (A) (A) (A)
       Virtual   (A) (A) (A) (A) (A) (A) (A) (A) (A) (A) (A) (A)
                 (A) (A) (A) (A) (A) (A) (A) (A) (A) (A) (A) (A)
                 (A) (A) (A) (A) (A) (A) (A) (A) (A) (A) (A) (A)
                 (A) (A) (A) (A) (A) (A) (A) (A) (A) (A) (A) (A)
                 (A) (A) (A) (A) (A) (A) (A) (A) (A) (A) (A) (A)
                 (A) (A) (A) (A) (A) (A) (A) (A) (A) (A) (A) (A)
                 (A) (A) (A) (A) (A) (A) (A) (A) (A) (A) (A) (A)
                 (A) (A) (A) (A) (A) (A) (A) (A) (A) (A) (A) (A)
                 (A) (A) (A) (A) (A) (A) (A) (A) (A) (A) (A) (A)
                 (A) (A) (A) (A) (A) (A) (A) (A) (A) (A) (A) (A)
                 (A) (A) (A) (A) (A) (A) (A) (A) (A) (A) (A) (A)
                 (A) (A) (A) (A) (A) (A) (A) (A) (A) (A) (A) (A)
                 (A) (A) (A) (A) (A) (A) (A) (A) (A) (A) (A) (A)
                 (A) (A) (A) (A) (A) (A) (A) (A) (A) (A) (A) (A)
                 (A) (A)
 The electronic state of the initial guess is 1-A.
 Leave Link  401 at Thu Dec 12 21:01:25 2019, MaxMem=  268435456 cpu:       1.1
 (Enter /home/matheus/.gaussian/g09/l502.exe)
 Closed shell SCF:
 Requested convergence on RMS density matrix=1.00D-08 within 128 cycles.
 Requested convergence on MAX density matrix=1.00D-06.
 Requested convergence on             energy=1.00D-06.
 No special actions if energy rises.
 Using DIIS extrapolation, IDIIS=  1040.
 Integral symmetry usage will be decided dynamically.
 IEnd=      178489 IEndB=      178489 NGot=   268435456 MDV=   268326278
 LenX=   268326278 LenY=   268273396
 Fock matrices will be formed incrementally for  20 cycles.

 Cycle   1  Pass 0  IDiag  1:
 FoFCou: FMM=F IPFlag=           0 FMFlag=      100000 FMFlg1=           0
         NFxFlg=           0 DoJE=F BraDBF=F KetDBF=F FulRan=T
         Omega=  0.000000  0.000000  1.000000  0.000000  0.000000 ICntrl=       0 IOpCl=  0
         NMat0=    1 NMatS0=    1 NMatT0=    0 NMatD0=    1 NMtDS0=    0 NMtDT0=    0
         I1Cent=           0 NGrid=           0.
 Symmetry not used in FoFCou.
 E= -2902.76030407438    
 DIIS: error= 3.10D-02 at cycle   1 NSaved=   1.
 NSaved= 1 IEnMin= 1 EnMin= -2902.76030407438     IErMin= 1 ErrMin= 3.10D-02
 ErrMax= 3.10D-02 EMaxC= 1.00D-01 BMatC= 6.91D-01 BMatP= 6.91D-01
 IDIUse=3 WtCom= 6.90D-01 WtEn= 3.10D-01
 Coeff-Com:  0.100D+01
 Coeff-En:   0.100D+01
 Coeff:      0.100D+01
 Gap=     0.699 Goal=   None    Shift=    0.000
 GapD=    0.699 DampG=2.000 DampE=0.500 DampFc=1.0000 IDamp=-1.
 RMSDP=2.27D-03 MaxDP=1.50D-01              OVMax= 5.26D-02

 Cycle   2  Pass 0  IDiag  1:
 RMSU=  1.59D-03    CP:  1.01D+00
 E= -2902.86483530224     Delta-E=       -0.104531227855 Rises=F Damp=F
 DIIS: error= 7.56D-03 at cycle   2 NSaved=   2.
 NSaved= 2 IEnMin= 2 EnMin= -2902.86483530224     IErMin= 2 ErrMin= 7.56D-03
 ErrMax= 7.56D-03 EMaxC= 1.00D-01 BMatC= 3.99D-02 BMatP= 6.91D-01
 IDIUse=3 WtCom= 9.24D-01 WtEn= 7.56D-02
 Coeff-Com:  0.151D+00 0.849D+00
 Coeff-En:   0.000D+00 0.100D+01
 Coeff:      0.139D+00 0.861D+00
 Gap=     0.532 Goal=   None    Shift=    0.000
 RMSDP=7.97D-04 MaxDP=4.22D-02 DE=-1.05D-01 OVMax= 2.34D-02

 Cycle   3  Pass 0  IDiag  1:
 RMSU=  4.33D-04    CP:  1.01D+00  7.82D-01
 E= -2902.87833398827     Delta-E=       -0.013498686037 Rises=F Damp=F
 DIIS: error= 2.10D-03 at cycle   3 NSaved=   3.
 NSaved= 3 IEnMin= 3 EnMin= -2902.87833398827     IErMin= 3 ErrMin= 2.10D-03
 ErrMax= 2.10D-03 EMaxC= 1.00D-01 BMatC= 2.26D-03 BMatP= 3.99D-02
 IDIUse=3 WtCom= 9.79D-01 WtEn= 2.10D-02
 Coeff-Com: -0.641D-02 0.169D+00 0.838D+00
 Coeff-En:   0.000D+00 0.000D+00 0.100D+01
 Coeff:     -0.628D-02 0.165D+00 0.841D+00
 Gap=     0.511 Goal=   None    Shift=    0.000
 RMSDP=1.23D-04 MaxDP=5.02D-03 DE=-1.35D-02 OVMax= 7.35D-03

 Cycle   4  Pass 0  IDiag  1:
 RMSU=  4.85D-05    CP:  1.01D+00  8.15D-01  8.89D-01
 E= -2902.87941995111     Delta-E=       -0.001085962838 Rises=F Damp=F
 DIIS: error= 3.43D-04 at cycle   4 NSaved=   4.
 NSaved= 4 IEnMin= 4 EnMin= -2902.87941995111     IErMin= 4 ErrMin= 3.43D-04
 ErrMax= 3.43D-04 EMaxC= 1.00D-01 BMatC= 4.53D-05 BMatP= 2.26D-03
 IDIUse=3 WtCom= 9.97D-01 WtEn= 3.43D-03
 Coeff-Com: -0.423D-02 0.996D-02 0.148D+00 0.846D+00
 Coeff-En:   0.000D+00 0.000D+00 0.000D+00 0.100D+01
 Coeff:     -0.421D-02 0.992D-02 0.148D+00 0.846D+00
 Gap=     0.513 Goal=   None    Shift=    0.000
 RMSDP=2.09D-05 MaxDP=7.13D-04 DE=-1.09D-03 OVMax= 1.68D-03

 Cycle   5  Pass 0  IDiag  1:
 RMSU=  1.31D-05    CP:  1.01D+00  8.16D-01  9.04D-01  9.87D-01
 E= -2902.87945850608     Delta-E=       -0.000038554970 Rises=F Damp=F
 DIIS: error= 1.15D-04 at cycle   5 NSaved=   5.
 NSaved= 5 IEnMin= 5 EnMin= -2902.87945850608     IErMin= 5 ErrMin= 1.15D-04
 ErrMax= 1.15D-04 EMaxC= 1.00D-01 BMatC= 3.57D-06 BMatP= 4.53D-05
 IDIUse=3 WtCom= 9.99D-01 WtEn= 1.15D-03
 Coeff-Com:  0.809D-03-0.149D-01-0.715D-01 0.162D-01 0.107D+01
 Coeff-En:   0.000D+00 0.000D+00 0.000D+00 0.000D+00 0.100D+01
 Coeff:      0.808D-03-0.149D-01-0.714D-01 0.161D-01 0.107D+01
 Gap=     0.512 Goal=   None    Shift=    0.000
 RMSDP=1.06D-05 MaxDP=2.91D-04 DE=-3.86D-05 OVMax= 7.90D-04

 Cycle   6  Pass 0  IDiag  1:
 RMSU=  4.98D-06    CP:  1.01D+00  8.14D-01  9.01D-01  1.07D+00  1.24D+00
 E= -2902.87946395489     Delta-E=       -0.000005448809 Rises=F Damp=F
 DIIS: error= 2.82D-05 at cycle   6 NSaved=   6.
 NSaved= 6 IEnMin= 6 EnMin= -2902.87946395489     IErMin= 6 ErrMin= 2.82D-05
 ErrMax= 2.82D-05 EMaxC= 1.00D-01 BMatC= 2.78D-07 BMatP= 3.57D-06
 IDIUse=1 WtCom= 1.00D+00 WtEn= 0.00D+00
 Coeff-Com:  0.229D-03-0.273D-03-0.949D-02-0.587D-01 0.803D-02 0.106D+01
 Coeff:      0.229D-03-0.273D-03-0.949D-02-0.587D-01 0.803D-02 0.106D+01
 Gap=     0.513 Goal=   None    Shift=    0.000
 RMSDP=3.56D-06 MaxDP=1.20D-04 DE=-5.45D-06 OVMax= 3.57D-04

 Initial convergence to 1.0D-05 achieved.  Increase integral accuracy.
 Cycle   7  Pass 1  IDiag  1:
 E= -2902.87946454302     Delta-E=       -0.000000588129 Rises=F Damp=F
 DIIS: error= 1.79D-05 at cycle   1 NSaved=   1.
 NSaved= 1 IEnMin= 1 EnMin= -2902.87946454302     IErMin= 1 ErrMin= 1.79D-05
 ErrMax= 1.79D-05 EMaxC= 1.00D-01 BMatC= 5.33D-08 BMatP= 5.33D-08
 IDIUse=1 WtCom= 1.00D+00 WtEn= 0.00D+00
 Coeff-Com:  0.100D+01
 Coeff:      0.100D+01
 Gap=     0.513 Goal=   None    Shift=    0.000
 RMSDP=3.56D-06 MaxDP=1.20D-04 DE=-5.88D-07 OVMax= 1.59D-04

 Cycle   8  Pass 1  IDiag  1:
 RMSU=  9.08D-07    CP:  1.00D+00
 E= -2902.87946463640     Delta-E=       -0.000000093384 Rises=F Damp=F
 DIIS: error= 9.63D-06 at cycle   2 NSaved=   2.
 NSaved= 2 IEnMin= 2 EnMin= -2902.87946463640     IErMin= 2 ErrMin= 9.63D-06
 ErrMax= 9.63D-06 EMaxC= 1.00D-01 BMatC= 2.70D-08 BMatP= 5.33D-08
 IDIUse=1 WtCom= 1.00D+00 WtEn= 0.00D+00
 Coeff-Com:  0.350D+00 0.650D+00
 Coeff:      0.350D+00 0.650D+00
 Gap=     0.513 Goal=   None    Shift=    0.000
 RMSDP=5.84D-07 MaxDP=2.20D-05 DE=-9.34D-08 OVMax= 6.82D-05

 Cycle   9  Pass 1  IDiag  1:
 RMSU=  3.71D-07    CP:  1.00D+00  1.20D+00
 E= -2902.87946466887     Delta-E=       -0.000000032464 Rises=F Damp=F
 DIIS: error= 5.64D-06 at cycle   3 NSaved=   3.
 NSaved= 3 IEnMin= 3 EnMin= -2902.87946466887     IErMin= 3 ErrMin= 5.64D-06
 ErrMax= 5.64D-06 EMaxC= 1.00D-01 BMatC= 6.14D-09 BMatP= 2.70D-08
 IDIUse=1 WtCom= 1.00D+00 WtEn= 0.00D+00
 Coeff-Com: -0.562D+00-0.359D+00 0.192D+01
 Coeff:     -0.562D+00-0.359D+00 0.192D+01
 Gap=     0.513 Goal=   None    Shift=    0.000
 RMSDP=1.16D-06 MaxDP=2.43D-05 DE=-3.25D-08 OVMax= 1.72D-04

 Cycle  10  Pass 1  IDiag  1:
 RMSU=  1.45D-07    CP:  1.00D+00  1.99D+00  1.99D+00
 E= -2902.87946469937     Delta-E=       -0.000000030502 Rises=F Damp=F
 DIIS: error= 1.25D-06 at cycle   4 NSaved=   4.
 NSaved= 4 IEnMin= 4 EnMin= -2902.87946469937     IErMin= 4 ErrMin= 1.25D-06
 ErrMax= 1.25D-06 EMaxC= 1.00D-01 BMatC= 3.97D-10 BMatP= 6.14D-09
 IDIUse=1 WtCom= 1.00D+00 WtEn= 0.00D+00
 Coeff-Com:  0.196D+00 0.913D-01-0.747D+00 0.146D+01
 Coeff:      0.196D+00 0.913D-01-0.747D+00 0.146D+01
 Gap=     0.513 Goal=   None    Shift=    0.000
 RMSDP=2.47D-07 MaxDP=5.96D-06 DE=-3.05D-08 OVMax= 4.02D-05

 Cycle  11  Pass 1  IDiag  1:
 RMSU=  4.12D-08    CP:  1.00D+00  2.12D+00  2.16D+00  1.73D+00
 E= -2902.87946470121     Delta-E=       -0.000000001836 Rises=F Damp=F
 DIIS: error= 4.55D-07 at cycle   5 NSaved=   5.
 NSaved= 5 IEnMin= 5 EnMin= -2902.87946470121     IErMin= 5 ErrMin= 4.55D-07
 ErrMax= 4.55D-07 EMaxC= 1.00D-01 BMatC= 6.80D-11 BMatP= 3.97D-10
 IDIUse=1 WtCom= 1.00D+00 WtEn= 0.00D+00
 Coeff-Com:  0.136D+00 0.839D-01-0.476D+00 0.161D+00 0.109D+01
 Coeff:      0.136D+00 0.839D-01-0.476D+00 0.161D+00 0.109D+01
 Gap=     0.513 Goal=   None    Shift=    0.000
 RMSDP=9.55D-08 MaxDP=2.26D-06 DE=-1.84D-09 OVMax= 1.53D-05

 Cycle  12  Pass 1  IDiag  1:
 RMSU=  1.46D-08    CP:  1.00D+00  2.16D+00  2.22D+00  2.05D+00  1.39D+00
 E= -2902.87946470147     Delta-E=       -0.000000000261 Rises=F Damp=F
 DIIS: error= 1.06D-07 at cycle   6 NSaved=   6.
 NSaved= 6 IEnMin= 6 EnMin= -2902.87946470147     IErMin= 6 ErrMin= 1.06D-07
 ErrMax= 1.06D-07 EMaxC= 1.00D-01 BMatC= 4.81D-12 BMatP= 6.80D-11
 IDIUse=1 WtCom= 1.00D+00 WtEn= 0.00D+00
 Coeff-Com: -0.848D-02-0.198D-02 0.339D-01-0.112D+00 0.181D-01 0.107D+01
 Coeff:     -0.848D-02-0.198D-02 0.339D-01-0.112D+00 0.181D-01 0.107D+01
 Gap=     0.513 Goal=   None    Shift=    0.000
 RMSDP=2.05D-08 MaxDP=4.36D-07 DE=-2.61D-10 OVMax= 2.99D-06

 Cycle  13  Pass 1  IDiag  1:
 RMSU=  4.21D-09    CP:  1.00D+00  2.17D+00  2.23D+00  2.11D+00  1.59D+00
                    CP:  1.17D+00
 E= -2902.87946470149     Delta-E=       -0.000000000018 Rises=F Damp=F
 DIIS: error= 3.43D-08 at cycle   7 NSaved=   7.
 NSaved= 7 IEnMin= 7 EnMin= -2902.87946470149     IErMin= 7 ErrMin= 3.43D-08
 ErrMax= 3.43D-08 EMaxC= 1.00D-01 BMatC= 4.20D-13 BMatP= 4.81D-12
 IDIUse=1 WtCom= 1.00D+00 WtEn= 0.00D+00
 Coeff-Com: -0.133D-01-0.757D-02 0.460D-01-0.150D-01-0.129D+00 0.711D-01
 Coeff-Com:  0.105D+01
 Coeff:     -0.133D-01-0.757D-02 0.460D-01-0.150D-01-0.129D+00 0.711D-01
 Coeff:      0.105D+01
 Gap=     0.513 Goal=   None    Shift=    0.000
 RMSDP=5.07D-09 MaxDP=1.03D-07 DE=-1.82D-11 OVMax= 6.12D-07

 SCF Done:  E(RHF) =  -2902.87946470     A.U. after   13 cycles
             Convg  =    0.5068D-08             -V/T =  2.0001
 KE= 2.902628255840D+03 PE=-7.238003444302D+03 EE= 1.283753894889D+03
 Leave Link  502 at Thu Dec 12 21:02:15 2019, MaxMem=  268435456 cpu:      99.5
 (Enter /home/matheus/.gaussian/g09/l801.exe)
 Windowed orbitals will be sorted by symmetry type.
 ExpMin= 2.53D-02 ExpMax= 1.17D+07 ExpMxC= 1.33D+04 IAcc=3 IRadAn=         5 AccDes= 0.00D+00
 HarFok:  IExCor=  205 AccDes= 0.00D+00 IRadAn=         5 IDoV=-2
 ScaDFX=  1.000000  1.000000  1.000000  1.000000
 Largest valence mixing into a core orbital is  1.44D-04
 Largest core mixing into a valence orbital is  2.59D-05
 Range of M.O.s used for correlation:    12   197
 NBasis=   197 NAE=    27 NBE=    27 NFC=    11 NFV=     0
 NROrb=    186 NOA=    16 NOB=    16 NVA=   170 NVB=   170

 **** Warning!!: The largest alpha MO coefficient is  0.13159083D+02

 Leave Link  801 at Thu Dec 12 21:02:15 2019, MaxMem=  268435456 cpu:       0.2
 (Enter /home/matheus/.gaussian/g09/l804.exe)
 Closed-shell transformation, MDV=   268435456 ITran=4 ISComp=1.
 Semi-Direct transformation.
 ModeAB=           2 MOrb=            16 LenV=     267326642
 LASXX=     48528660 LTotXX=    48528660 LenRXX=    48528660
 LTotAB=    49298776 MaxLAS=    78372960 LenRXY=    78372960
 NonZer=    97057320 LenScr=   146313216 LnRSAI=           0
 LnScr1=           0 LExtra=           0 Total=    273214836
 MaxDsk=          -1 SrtSym=           F ITran=            4
 DoSDTr:  NPSUse=  2
 JobTyp=0 Pass  1:  I=   1 to  16.
 (rs|ai) integrals will be sorted in core.
 Complete sort for first half transformation.
 First half transformation complete.
 Begin second half transformation for I=  10.
 Begin second half transformation for I=  10.
 Complete sort for second half transformation.
 Second half transformation complete.
 SymMOI:  orbitals are not symmetric.
 Spin components of T(2) and E(2):
     alpha-alpha T2 =       0.2598563844D-01 E2=     -0.9999947562D-01
     alpha-beta  T2 =       0.1420053667D+00 E2=     -0.5567656378D+00
     beta-beta   T2 =       0.2598563844D-01 E2=     -0.9999947562D-01
 ANorm=    0.1092692383D+01
 E2 =    -0.7567645891D+00 EUMP2 =    -0.29036362292905D+04
 Leave Link  804 at Thu Dec 12 21:02:39 2019, MaxMem=  268435456 cpu:      46.4
 (Enter /home/matheus/.gaussian/g09/l913.exe)
 CIDS:  MDV=   268435456.
 Frozen-core window:  NFC=  11 NFV=   0.
 IFCWin=0 IBDFC=1 NFBD=     0     0 NFCmp=     0     0 NFFFC=     0     0
 Using DD3R+UMP44R for 1st iteration, S=T.
 Using DD4RQ for 2nd and later iterations.
 Would need an additional       431206676 words for in-memory AO integral storage.
 MP4(SDTQ)
 =========
 DD1Dir will call FoFDir   1 times, MxPair=       272
 NAB=   136 NAA=     0 NBB=     0 NumPrc=  2.
 Integrals replicated using symmetry in FoFDir.
 MinBra= 0 MaxBra= 3 Meth= 1.
 IRaf=       0 NMat= 272 IRICut=     340 DoRegI=T DoRafI=T ISym2E= 2 JSym2E=2.
 MP4(D)= -0.14977759D-01
 MP4(S)= -0.64747346D-02
 MP4(R+Q)=  0.15413080D-01
 T4(AAA)= -0.10451413D-02
 T4(AAB)= -0.14194402D-01
 Time for triples=     1334.84 seconds.
 MP4(T)=   -0.30479087D-01
 E3=       -0.11224033D-01        EUMP3=      -0.29036474533D+04
 E4(DQ)=    0.43532075D-03        UMP4(DQ)=   -0.29036470180D+04
 E4(SDQ)=  -0.60394139D-02        UMP4(SDQ)=  -0.29036534927D+04
 E4(SDTQ)= -0.36518500D-01        UMP4(SDTQ)= -0.29036839718D+04
 VARIATIONAL ENERGIES WITH THE FIRST-ORDER WAVEFUNCTION:
 E(VAR1)=  -0.29035226838D+04     E(CISD,4)=  -0.29035221112D+04
 Largest amplitude= 2.26D-02
 Leave Link  913 at Thu Dec 12 21:14:34 2019, MaxMem=  268435456 cpu:    1425.0
 (Enter /home/matheus/.gaussian/g09/l601.exe)
 Copying SCF densities to generalized density rwf, IOpCl= 0 IROHF=0.

 **********************************************************************

            Population analysis using the SCF density.

 **********************************************************************

 Orbital symmetries:
       Occupied  (A) (A) (A) (A) (A) (A) (A) (A) (A) (A) (A) (A)
                 (A) (A) (A) (A) (A) (A) (A) (A) (A) (A) (A) (A)
                 (A) (A) (A)
       Virtual   (A) (A) (A) (A) (A) (A) (A) (A) (A) (A) (A) (A)
                 (A) (A) (A) (A) (A) (A) (A) (A) (A) (A) (A) (A)
                 (A) (A) (A) (A) (A) (A) (A) (A) (A) (A) (A) (A)
                 (A) (A) (A) (A) (A) (A) (A) (A) (A) (A) (A) (A)
                 (A) (A) (A) (A) (A) (A) (A) (A) (A) (A) (A) (A)
                 (A) (A) (A) (A) (A) (A) (A) (A) (A) (A) (A) (A)
                 (A) (A) (A) (A) (A) (A) (A) (A) (A) (A) (A) (A)
                 (A) (A) (A) (A) (A) (A) (A) (A) (A) (A) (A) (A)
                 (A) (A) (A) (A) (A) (A) (A) (A) (A) (A) (A) (A)
                 (A) (A) (A) (A) (A) (A) (A) (A) (A) (A) (A) (A)
                 (A) (A) (A) (A) (A) (A) (A) (A) (A) (A) (A) (A)
                 (A) (A) (A) (A) (A) (A) (A) (A) (A) (A) (A) (A)
                 (A) (A) (A) (A) (A) (A) (A) (A) (A) (A) (A) (A)
                 (A) (A) (A) (A) (A) (A) (A) (A) (A) (A) (A) (A)
                 (A) (A)
 The electronic state is 1-A.
 Alpha  occ. eigenvalues -- -520.17488 -69.91243 -63.01902 -63.01899 -63.01896
 Alpha  occ. eigenvalues --  -20.62932 -20.62623 -10.85908  -8.34131  -8.34107
 Alpha  occ. eigenvalues --   -8.34089  -3.83512  -3.83507  -3.83484  -3.83458
 Alpha  occ. eigenvalues --   -3.83454  -1.46628  -1.21761  -1.16500  -0.72373
 Alpha  occ. eigenvalues --   -0.70381  -0.60992  -0.54166  -0.53431  -0.52932
 Alpha  occ. eigenvalues --   -0.50805  -0.47768
 Alpha virt. eigenvalues --    0.03502   0.04513   0.08909   0.10163   0.11582
 Alpha virt. eigenvalues --    0.12501   0.14860   0.15741   0.17473   0.18713
 Alpha virt. eigenvalues --    0.19137   0.21331   0.23398   0.25813   0.26682
 Alpha virt. eigenvalues --    0.28097   0.28453   0.31190   0.34168   0.36023
 Alpha virt. eigenvalues --    0.36435   0.37106   0.38201   0.41957   0.42408
 Alpha virt. eigenvalues --    0.44459   0.46353   0.51697   0.56877   0.59880
 Alpha virt. eigenvalues --    0.60804   0.63960   0.67153   0.71197   0.72926
 Alpha virt. eigenvalues --    0.76003   0.77644   0.78009   0.80501   0.81565
 Alpha virt. eigenvalues --    0.83007   0.83917   0.85355   0.87307   0.88662
 Alpha virt. eigenvalues --    0.91041   0.91143   0.93202   0.95054   0.97350
 Alpha virt. eigenvalues --    0.99608   1.00666   1.01187   1.02883   1.06307
 Alpha virt. eigenvalues --    1.07688   1.09293   1.13297   1.14314   1.17128
 Alpha virt. eigenvalues --    1.17579   1.22103   1.23766   1.25645   1.31095
 Alpha virt. eigenvalues --    1.31725   1.38513   1.42565   1.47535   1.50887
 Alpha virt. eigenvalues --    1.53872   1.58725   1.61427   1.62870   1.69264
 Alpha virt. eigenvalues --    1.76678   1.86313   1.96141   2.01694   2.08215
 Alpha virt. eigenvalues --    2.13387   2.16948   2.25429   2.27570   2.31292
 Alpha virt. eigenvalues --    2.33316   2.36968   2.37623   2.40713   2.42058
 Alpha virt. eigenvalues --    2.44047   2.46940   2.52653   2.53276   2.54679
 Alpha virt. eigenvalues --    2.54777   2.57191   2.61813   2.63211   2.66836
 Alpha virt. eigenvalues --    2.69501   2.69882   2.72173   2.74885   2.75806
 Alpha virt. eigenvalues --    2.78238   2.80185   2.80901   2.85379   2.89548
 Alpha virt. eigenvalues --    2.92432   2.96303   2.98381   3.04111   3.07501
 Alpha virt. eigenvalues --    3.08308   3.24713   3.30546   3.33678   3.82618
 Alpha virt. eigenvalues --    3.89007   4.10888   4.19753   4.25859   4.27673
 Alpha virt. eigenvalues --    4.35417   4.39271   4.43708   4.48603   4.50739
 Alpha virt. eigenvalues --    4.63726   4.72909   4.80265   4.84511   4.97741
 Alpha virt. eigenvalues --    5.13639   5.22187   5.31161   5.37911   5.40008
 Alpha virt. eigenvalues --    5.49898   5.80538   6.16977   6.40221   6.43887
 Alpha virt. eigenvalues --    6.46348   6.64797   6.68835   6.77330   6.89702
 Alpha virt. eigenvalues --    6.94641   7.15049   7.17080   7.19943   7.22100
 Alpha virt. eigenvalues --    7.24807   7.26197   7.27493   7.34120   7.39681
 Alpha virt. eigenvalues --    7.45462   7.56703   7.63197   7.81429   8.12492
 Alpha virt. eigenvalues --    8.20719   8.48411   8.52666  14.59392  15.31839
          Condensed to atoms (all electrons):
              1          2          3          4          5
     1  O    8.116800  -0.074587   0.254594  -0.012791  -0.026132
     2  O   -0.074587   8.143025  -0.000639   0.250736  -0.011387
     3  H    0.254594  -0.000639   0.477482   0.002604   0.001147
     4  H   -0.012791   0.250736   0.002604   0.475172  -0.004008
     5  Kr  -0.026132  -0.011387   0.001147  -0.004008  36.028444
 Mulliken atomic charges:
              1
     1  O   -0.257885
     2  O   -0.307149
     3  H    0.264812
     4  H    0.288286
     5  Kr   0.011936
 Sum of Mulliken atomic charges =   0.00000
 Mulliken charges with hydrogens summed into heavy atoms:
              1
     1  O    0.006927
     2  O   -0.018863
     5  Kr   0.011936
 Sum of Mulliken charges with hydrogens summed into heavy atoms =   0.00000
 Electronic spatial extent (au):  <R**2>=            488.2897
 Charge=              0.0000 electrons
 Dipole moment (field-independent basis, Debye):
    X=              0.9442    Y=             -0.3748    Z=              1.3998  Tot=              1.7296
 Quadrupole moment (field-independent basis, Debye-Ang):
   XX=            -31.0614   YY=            -27.9995   ZZ=            -29.2935
   XY=              3.3404   XZ=             -3.7662   YZ=             -1.6078
 Traceless Quadrupole moment (field-independent basis, Debye-Ang):
   XX=             -1.6099   YY=              1.4519   ZZ=              0.1580
   XY=              3.3404   XZ=             -3.7662   YZ=             -1.6078
 Octapole moment (field-independent basis, Debye-Ang**2):
  XXX=             19.0168  YYY=             -0.9693  ZZZ=              1.0432  XYY=              4.0935
  XXY=            -12.3242  XXZ=              9.6162  XZZ=              5.2195  YZZ=             -1.4640
  YYZ=              1.9797  XYZ=              4.2372
 Hexadecapole moment (field-independent basis, Debye-Ang**3):
 XXXX=           -409.1804 YYYY=            -62.5452 ZZZZ=            -29.0630 XXXY=             33.3371
 XXXZ=            -25.7139 YYYX=              5.5776 YYYZ=             -2.2330 ZZZX=             -3.0401
 ZZZY=             -1.5037 XXYY=            -76.6825 XXZZ=            -71.3843 YYZZ=            -16.0100
 XXYZ=            -11.0954 YYXZ=             -4.9609 ZZXY=              3.2899
 N-N= 1.487418288716D+02 E-N=-7.238003443323D+03  KE= 2.902628255840D+03
 Leave Link  601 at Thu Dec 12 21:14:35 2019, MaxMem=  268435456 cpu:       0.1
 (Enter /home/matheus/.gaussian/g09/l108.exe)
 Variable Step   Value    
 -------- ---- -----------
     1       1    5.858151
 Leave Link  108 at Thu Dec 12 21:14:35 2019, MaxMem=  268435456 cpu:       0.0
 (Enter /home/matheus/.gaussian/g09/l202.exe)
 ---------------------------------------------------------------------------------------------------
                            Z-MATRIX (ANGSTROMS AND DEGREES)
   CD    Cent   Atom    N1       Length/X        N2       Alpha/Y        N3        Beta/Z          J
 ---------------------------------------------------------------------------------------------------
      1      1  O        0   0.000000          0.000000          0.725000
      2      2  O        0   0.000000          0.000000         -0.725000
      3      3  H        0  -0.795635         -0.459360          1.023510
      4      4  H        0   0.000000          0.918721         -1.023510
      5      5  Kr       0   0.000000          3.100000          0.000000
 ---------------------------------------------------------------------------------------------------
                         Z-Matrix orientation:                         
 ---------------------------------------------------------------------
 Center     Atomic      Atomic             Coordinates (Angstroms)
 Number     Number       Type             X           Y           Z
 ---------------------------------------------------------------------
      1          8           0        0.000000    0.000000    0.725000
      2          8           0        0.000000    0.000000   -0.725000
      3          1           0       -0.795635   -0.459360    1.023510
      4          1           0        0.000000    0.918721   -1.023510
      5         36           0        0.000000    3.100000    0.000000
 ---------------------------------------------------------------------
                    Distance matrix (angstroms):
                    1          2          3          4          5
     1  O    0.000000
     2  O    1.450000   0.000000
     3  H    0.966000   1.975180   0.000000
     4  H    1.975180   0.966000   2.592766   0.000000
     5  Kr   3.183650   3.183650   3.788094   2.409472   0.000000
 Stoichiometry    H2KrO2
 Framework group  C1[X(H2KrO2)]
 Deg. of freedom     9
 Full point group                 C1      NOp   1
 RotChk:  IX=0 Diff= 1.79D-03
 Largest Abelian subgroup         C1      NOp   1
 Largest concise Abelian subgroup C1      NOp   1
                         Standard orientation:                         
 ---------------------------------------------------------------------
 Center     Atomic      Atomic             Coordinates (Angstroms)
 Number     Number       Type             X           Y           Z
 ---------------------------------------------------------------------
      1          8           0       -2.084317   -0.690265   -0.106508
      2          8           0       -2.064459    0.755071    0.007984
      3          1           0       -2.561810   -1.043525    0.655308
      4          1           0       -1.141882    1.038790    0.046862
      5         36           0        1.024830   -0.014270    0.002390
 ---------------------------------------------------------------------
 Rotational constants (GHZ):     25.8779979      2.1767055      2.0170695
 Leave Link  202 at Thu Dec 12 21:14:35 2019, MaxMem=  268435456 cpu:       0.0
 (Enter /home/matheus/.gaussian/g09/l301.exe)
 Standard basis: Aug-CC-pVTZ (5D, 7F)
 Ernie: Thresh=  0.10000D-02 Tol=  0.10000D-05 Strict=F.
 Ernie:  38 primitive shells out of 205 were deleted.
 There are   197 symmetry adapted basis functions of A   symmetry.
 Integral buffers will be    131072 words long.
 Raffenetti 1 integral format.
 Two-electron integral symmetry is turned on.
   197 basis functions,   415 primitive gaussians,   229 cartesian basis functions
    27 alpha electrons       27 beta electrons
       nuclear repulsion energy       145.2888945549 Hartrees.
 IExCor=    0 DFT=F Ex=HF Corr=None ExCW=0 ScaHFX=  1.000000
 ScaDFX=  1.000000  1.000000  1.000000  1.000000 ScalE2=  1.000000  1.000000
 IRadAn=      5 IRanWt=     -1 IRanGd=            0 ICorTp=0
 NAtoms=    5 NActive=    5 NUniq=    5 SFac= 1.00D+00 NAtFMM=   60 NAOKFM=F Big=F
 Leave Link  301 at Thu Dec 12 21:14:35 2019, MaxMem=  268435456 cpu:       0.0
 (Enter /home/matheus/.gaussian/g09/l302.exe)
 NPDir=0 NMtPBC=     1 NCelOv=     1 NCel=       1 NClECP=     1 NCelD=      1
         NCelK=      1 NCelE2=     1 NClLst=     1 CellRange=     0.0.
 One-electron integrals computed using PRISM.
 NBasis=   197 RedAO= T  NBF=   197
 NBsUse=   197 1.00D-06 NBFU=   197
 Leave Link  302 at Thu Dec 12 21:14:35 2019, MaxMem=  268435456 cpu:       0.2
 (Enter /home/matheus/.gaussian/g09/l303.exe)
 DipDrv:  MaxL=1.
 Leave Link  303 at Thu Dec 12 21:14:35 2019, MaxMem=  268435456 cpu:       0.0
 (Enter /home/matheus/.gaussian/g09/l401.exe)
 Initial guess read from the read-write file.
 B after Tr=     0.000000    0.000000    0.000000
         Rot=    1.000000    0.000000    0.000000    0.000000 Ang=   0.00 deg.
 Guess basis will be translated and rotated to current coordinates.
 Initial guess orbital symmetries:
       Occupied  (A) (A) (A) (A) (A) (A) (A) (A) (A) (A) (A) (A)
                 (A) (A) (A) (A) (A) (A) (A) (A) (A) (A) (A) (A)
                 (A) (A) (A)
       Virtual   (A) (A) (A) (A) (A) (A) (A) (A) (A) (A) (A) (A)
                 (A) (A) (A) (A) (A) (A) (A) (A) (A) (A) (A) (A)
                 (A) (A) (A) (A) (A) (A) (A) (A) (A) (A) (A) (A)
                 (A) (A) (A) (A) (A) (A) (A) (A) (A) (A) (A) (A)
                 (A) (A) (A) (A) (A) (A) (A) (A) (A) (A) (A) (A)
                 (A) (A) (A) (A) (A) (A) (A) (A) (A) (A) (A) (A)
                 (A) (A) (A) (A) (A) (A) (A) (A) (A) (A) (A) (A)
                 (A) (A) (A) (A) (A) (A) (A) (A) (A) (A) (A) (A)
                 (A) (A) (A) (A) (A) (A) (A) (A) (A) (A) (A) (A)
                 (A) (A) (A) (A) (A) (A) (A) (A) (A) (A) (A) (A)
                 (A) (A) (A) (A) (A) (A) (A) (A) (A) (A) (A) (A)
                 (A) (A) (A) (A) (A) (A) (A) (A) (A) (A) (A) (A)
                 (A) (A) (A) (A) (A) (A) (A) (A) (A) (A) (A) (A)
                 (A) (A) (A) (A) (A) (A) (A) (A) (A) (A) (A) (A)
                 (A) (A)
 The electronic state of the initial guess is 1-A.
 Generating alternative initial guess.
 Harris functional with IExCor=  205 diagonalized for initial guess.
 ExpMin= 2.53D-02 ExpMax= 1.17D+07 ExpMxC= 1.33D+04 IAcc=3 IRadAn=         5 AccDes= 0.00D+00
 HarFok:  IExCor=  205 AccDes= 0.00D+00 IRadAn=         5 IDoV= 1
 ScaDFX=  1.000000  1.000000  1.000000  1.000000
 FoFCou: FMM=F IPFlag=           0 FMFlag=      100000 FMFlg1=           0
         NFxFlg=           0 DoJE=T BraDBF=F KetDBF=T FulRan=T
         Omega=  0.000000  0.000000  1.000000  0.000000  0.000000 ICntrl=     500 IOpCl=  0
         NMat0=    1 NMatS0=    1 NMatT0=    0 NMatD0=    1 NMtDS0=    0 NMtDT0=    0
         I1Cent=           4 NGrid=           0.
 Petite list used in FoFCou.
 Harris En= -2901.93326131197    
 Leave Link  401 at Thu Dec 12 21:14:35 2019, MaxMem=  268435456 cpu:       1.3
 (Enter /home/matheus/.gaussian/g09/l502.exe)
 Closed shell SCF:
 Requested convergence on RMS density matrix=1.00D-08 within 128 cycles.
 Requested convergence on MAX density matrix=1.00D-06.
 Requested convergence on             energy=1.00D-06.
 No special actions if energy rises.
 Using DIIS extrapolation, IDIIS=  1040.
 Integral symmetry usage will be decided dynamically.
 IEnd=      178489 IEndB=      178489 NGot=   268435456 MDV=   268326278
 LenX=   268326278 LenY=   268273396
 Fock matrices will be formed incrementally for  20 cycles.

 Cycle   1  Pass 0  IDiag  1:
 FoFCou: FMM=F IPFlag=           0 FMFlag=      100000 FMFlg1=           0
         NFxFlg=           0 DoJE=F BraDBF=F KetDBF=F FulRan=T
         Omega=  0.000000  0.000000  1.000000  0.000000  0.000000 ICntrl=       0 IOpCl=  0
         NMat0=    1 NMatS0=    1 NMatT0=    0 NMatD0=    1 NMtDS0=    0 NMtDT0=    0
         I1Cent=           0 NGrid=           0.
 Symmetry not used in FoFCou.
 E= -2902.88185720453    
 DIIS: error= 4.70D-04 at cycle   1 NSaved=   1.
 NSaved= 1 IEnMin= 1 EnMin= -2902.88185720453     IErMin= 1 ErrMin= 4.70D-04
 ErrMax= 4.70D-04 EMaxC= 1.00D-01 BMatC= 6.91D-05 BMatP= 6.91D-05
 IDIUse=3 WtCom= 9.95D-01 WtEn= 4.70D-03
 Coeff-Com:  0.100D+01
 Coeff-En:   0.100D+01
 Coeff:      0.100D+01
 Gap=     0.514 Goal=   None    Shift=    0.000
 RMSDP=7.24D-05 MaxDP=3.02D-03              OVMax= 3.01D-03

 Cycle   2  Pass 0  IDiag  1:
 RMSU=  5.12D-05    CP:  1.00D+00
 E= -2902.88193882159     Delta-E=       -0.000081617057 Rises=F Damp=F
 DIIS: error= 7.18D-05 at cycle   2 NSaved=   2.
 NSaved= 2 IEnMin= 2 EnMin= -2902.88193882159     IErMin= 2 ErrMin= 7.18D-05
 ErrMax= 7.18D-05 EMaxC= 1.00D-01 BMatC= 2.39D-06 BMatP= 6.91D-05
 IDIUse=1 WtCom= 1.00D+00 WtEn= 0.00D+00
 Coeff-Com: -0.787D-01 0.108D+01
 Coeff:     -0.787D-01 0.108D+01
 Gap=     0.513 Goal=   None    Shift=    0.000
 RMSDP=1.32D-05 MaxDP=4.80D-04 DE=-8.16D-05 OVMax= 6.36D-04

 Cycle   3  Pass 0  IDiag  1:
 RMSU=  6.23D-06    CP:  1.00D+00  1.14D+00
 E= -2902.88194229316     Delta-E=       -0.000003471571 Rises=F Damp=F
 DIIS: error= 2.64D-05 at cycle   3 NSaved=   3.
 NSaved= 3 IEnMin= 3 EnMin= -2902.88194229316     IErMin= 3 ErrMin= 2.64D-05
 ErrMax= 2.64D-05 EMaxC= 1.00D-01 BMatC= 3.88D-07 BMatP= 2.39D-06
 IDIUse=1 WtCom= 1.00D+00 WtEn= 0.00D+00
 Coeff-Com: -0.439D-01 0.263D+00 0.781D+00
 Coeff:     -0.439D-01 0.263D+00 0.781D+00
 Gap=     0.513 Goal=   None    Shift=    0.000
 RMSDP=2.49D-06 MaxDP=7.07D-05 DE=-3.47D-06 OVMax= 1.62D-04

 Initial convergence to 1.0D-05 achieved.  Increase integral accuracy.
 Cycle   4  Pass 1  IDiag  1:
 E= -2902.88194265589     Delta-E=       -0.000000362723 Rises=F Damp=F
 DIIS: error= 1.06D-05 at cycle   1 NSaved=   1.
 NSaved= 1 IEnMin= 1 EnMin= -2902.88194265589     IErMin= 1 ErrMin= 1.06D-05
 ErrMax= 1.06D-05 EMaxC= 1.00D-01 BMatC= 4.18D-08 BMatP= 4.18D-08
 IDIUse=1 WtCom= 1.00D+00 WtEn= 0.00D+00
 Coeff-Com:  0.100D+01
 Coeff:      0.100D+01
 Gap=     0.513 Goal=   None    Shift=    0.000
 RMSDP=2.49D-06 MaxDP=7.07D-05 DE=-3.63D-07 OVMax= 8.12D-05

 Cycle   5  Pass 1  IDiag  1:
 RMSU=  8.65D-07    CP:  1.00D+00
 E= -2902.88194270892     Delta-E=       -0.000000053030 Rises=F Damp=F
 DIIS: error= 8.21D-06 at cycle   2 NSaved=   2.
 NSaved= 2 IEnMin= 2 EnMin= -2902.88194270892     IErMin= 2 ErrMin= 8.21D-06
 ErrMax= 8.21D-06 EMaxC= 1.00D-01 BMatC= 1.63D-08 BMatP= 4.18D-08
 IDIUse=1 WtCom= 1.00D+00 WtEn= 0.00D+00
 Coeff-Com:  0.331D+00 0.669D+00
 Coeff:      0.331D+00 0.669D+00
 Gap=     0.513 Goal=   None    Shift=    0.000
 RMSDP=3.85D-07 MaxDP=1.51D-05 DE=-5.30D-08 OVMax= 3.43D-05

 Cycle   6  Pass 1  IDiag  1:
 RMSU=  2.66D-07    CP:  1.00D+00  1.07D+00
 E= -2902.88194272446     Delta-E=       -0.000000015549 Rises=F Damp=F
 DIIS: error= 2.87D-06 at cycle   3 NSaved=   3.
 NSaved= 3 IEnMin= 3 EnMin= -2902.88194272446     IErMin= 3 ErrMin= 2.87D-06
 ErrMax= 2.87D-06 EMaxC= 1.00D-01 BMatC= 2.45D-09 BMatP= 1.63D-08
 IDIUse=1 WtCom= 1.00D+00 WtEn= 0.00D+00
 Coeff-Com: -0.342D+00-0.122D+00 0.146D+01
 Coeff:     -0.342D+00-0.122D+00 0.146D+01
 Gap=     0.513 Goal=   None    Shift=    0.000
 RMSDP=4.72D-07 MaxDP=1.26D-05 DE=-1.55D-08 OVMax= 3.71D-05

 Cycle   7  Pass 1  IDiag  1:
 RMSU=  1.07D-07    CP:  1.00D+00  1.41D+00  1.42D+00
 E= -2902.88194273064     Delta-E=       -0.000000006176 Rises=F Damp=F
 DIIS: error= 6.73D-07 at cycle   4 NSaved=   4.
 NSaved= 4 IEnMin= 4 EnMin= -2902.88194273064     IErMin= 4 ErrMin= 6.73D-07
 ErrMax= 6.73D-07 EMaxC= 1.00D-01 BMatC= 9.59D-11 BMatP= 2.45D-09
 IDIUse=1 WtCom= 1.00D+00 WtEn= 0.00D+00
 Coeff-Com: -0.787D-01-0.402D-01 0.260D+00 0.858D+00
 Coeff:     -0.787D-01-0.402D-01 0.260D+00 0.858D+00
 Gap=     0.513 Goal=   None    Shift=    0.000
 RMSDP=5.74D-08 MaxDP=1.96D-06 DE=-6.18D-09 OVMax= 5.06D-06

 Cycle   8  Pass 1  IDiag  1:
 RMSU=  2.56D-08    CP:  1.00D+00  1.42D+00  1.45D+00  1.26D+00
 E= -2902.88194273081     Delta-E=       -0.000000000171 Rises=F Damp=F
 DIIS: error= 2.39D-07 at cycle   5 NSaved=   5.
 NSaved= 5 IEnMin= 5 EnMin= -2902.88194273081     IErMin= 5 ErrMin= 2.39D-07
 ErrMax= 2.39D-07 EMaxC= 1.00D-01 BMatC= 1.75D-11 BMatP= 9.59D-11
 IDIUse=1 WtCom= 1.00D+00 WtEn= 0.00D+00
 Coeff-Com:  0.694D-01 0.346D-01-0.306D+00-0.648D-01 0.127D+01
 Coeff:      0.694D-01 0.346D-01-0.306D+00-0.648D-01 0.127D+01
 Gap=     0.513 Goal=   None    Shift=    0.000
 RMSDP=4.08D-08 MaxDP=1.04D-06 DE=-1.71D-10 OVMax= 3.53D-06

 Cycle   9  Pass 1  IDiag  1:
 RMSU=  1.13D-08    CP:  1.00D+00  1.42D+00  1.46D+00  1.49D+00  1.36D+00
 E= -2902.88194273085     Delta-E=       -0.000000000043 Rises=F Damp=F
 DIIS: error= 6.66D-08 at cycle   6 NSaved=   6.
 NSaved= 6 IEnMin= 6 EnMin= -2902.88194273085     IErMin= 6 ErrMin= 6.66D-08
 ErrMax= 6.66D-08 EMaxC= 1.00D-01 BMatC= 1.31D-12 BMatP= 1.75D-11
 IDIUse=1 WtCom= 1.00D+00 WtEn= 0.00D+00
 Coeff-Com: -0.924D-02-0.195D-02 0.420D-01-0.385D-01-0.252D+00 0.126D+01
 Coeff:     -0.924D-02-0.195D-02 0.420D-01-0.385D-01-0.252D+00 0.126D+01
 Gap=     0.513 Goal=   None    Shift=    0.000
 RMSDP=1.04D-08 MaxDP=2.26D-07 DE=-4.27D-11 OVMax= 1.33D-06

 Cycle  10  Pass 1  IDiag  1:
 RMSU=  3.36D-09    CP:  1.00D+00  1.42D+00  1.46D+00  1.50D+00  1.46D+00
                    CP:  1.51D+00
 E= -2902.88194273088     Delta-E=       -0.000000000025 Rises=F Damp=F
 DIIS: error= 2.87D-08 at cycle   7 NSaved=   7.
 NSaved= 7 IEnMin= 7 EnMin= -2902.88194273088     IErMin= 7 ErrMin= 2.87D-08
 ErrMax= 2.87D-08 EMaxC= 1.00D-01 BMatC= 2.37D-13 BMatP= 1.31D-12
 IDIUse=1 WtCom= 1.00D+00 WtEn= 0.00D+00
 Coeff-Com: -0.131D-01-0.591D-02 0.560D-01 0.157D-01-0.234D+00-0.105D+00
 Coeff-Com:  0.129D+01
 Coeff:     -0.131D-01-0.591D-02 0.560D-01 0.157D-01-0.234D+00-0.105D+00
 Coeff:      0.129D+01
 Gap=     0.513 Goal=   None    Shift=    0.000
 RMSDP=6.20D-09 MaxDP=1.68D-07 DE=-2.46D-11 OVMax= 7.38D-07

 SCF Done:  E(RHF) =  -2902.88194273     A.U. after   10 cycles
             Convg  =    0.6195D-08             -V/T =  2.0001
 KE= 2.902609879698D+03 PE=-7.231083924424D+03 EE= 1.280303207440D+03
 Leave Link  502 at Thu Dec 12 21:15:13 2019, MaxMem=  268435456 cpu:      74.5
 (Enter /home/matheus/.gaussian/g09/l801.exe)
 Windowed orbitals will be sorted by symmetry type.
 ExpMin= 2.53D-02 ExpMax= 1.17D+07 ExpMxC= 1.33D+04 IAcc=3 IRadAn=         5 AccDes= 0.00D+00
 HarFok:  IExCor=  205 AccDes= 0.00D+00 IRadAn=         5 IDoV=-2
 ScaDFX=  1.000000  1.000000  1.000000  1.000000
 DSYEVD returned Info=          93 IAlg= 4 N=    46 NDim=    46 NE2=     4547561 trying DSYEV.
 Largest valence mixing into a core orbital is  1.44D-04
 Largest core mixing into a valence orbital is  2.59D-05
 Range of M.O.s used for correlation:    12   197
 NBasis=   197 NAE=    27 NBE=    27 NFC=    11 NFV=     0
 NROrb=    186 NOA=    16 NOB=    16 NVA=   170 NVB=   170

 **** Warning!!: The largest alpha MO coefficient is  0.13409138D+02

 Leave Link  801 at Thu Dec 12 21:15:13 2019, MaxMem=  268435456 cpu:       0.2
 (Enter /home/matheus/.gaussian/g09/l804.exe)
 Closed-shell transformation, MDV=   268435456 ITran=4 ISComp=1.
 Semi-Direct transformation.
 ModeAB=           2 MOrb=            16 LenV=     267327850
 LASXX=     48528660 LTotXX=    48528660 LenRXX=    48528660
 LTotAB=    49298776 MaxLAS=    78372960 LenRXY=    78372960
 NonZer=    97057320 LenScr=   146313216 LnRSAI=           0
 LnScr1=           0 LExtra=           0 Total=    273214836
 MaxDsk=          -1 SrtSym=           F ITran=            4
 DoSDTr:  NPSUse=  2
 JobTyp=0 Pass  1:  I=   1 to  16.
 (rs|ai) integrals will be sorted in core.
 Complete sort for first half transformation.
 First half transformation complete.
 Begin second half transformation for I=  10.
 Begin second half transformation for I=  10.
 Complete sort for second half transformation.
 Second half transformation complete.
 SymMOI:  orbitals are not symmetric.
 Spin components of T(2) and E(2):
     alpha-alpha T2 =       0.2591161458D-01 E2=     -0.9974226430D-01
     alpha-beta  T2 =       0.1419115038D+00 E2=     -0.5561813613D+00
     beta-beta   T2 =       0.2591161458D-01 E2=     -0.9974226430D-01
 ANorm=    0.1092581682D+01
 E2 =    -0.7556658899D+00 EUMP2 =    -0.29036376086207D+04
 Leave Link  804 at Thu Dec 12 21:15:36 2019, MaxMem=  268435456 cpu:      47.1
 (Enter /home/matheus/.gaussian/g09/l913.exe)
 CIDS:  MDV=   268435456.
 Frozen-core window:  NFC=  11 NFV=   0.
 IFCWin=0 IBDFC=1 NFBD=     0     0 NFCmp=     0     0 NFFFC=     0     0
 Using DD3R+UMP44R for 1st iteration, S=T.
 Using DD4RQ for 2nd and later iterations.
 Would need an additional       431206676 words for in-memory AO integral storage.
 MP4(SDTQ)
 =========
 DD1Dir will call FoFDir   1 times, MxPair=       272
 NAB=   136 NAA=     0 NBB=     0 NumPrc=  2.
 Integrals replicated using symmetry in FoFDir.
 MinBra= 0 MaxBra= 3 Meth= 1.
 IRaf=       0 NMat= 272 IRICut=     340 DoRegI=T DoRafI=T ISym2E= 2 JSym2E=2.
 MP4(D)= -0.14976311D-01
 MP4(S)= -0.64464390D-02
 MP4(R+Q)=  0.15342465D-01
 T4(AAA)= -0.10353260D-02
 T4(AAB)= -0.14131327D-01
 Time for triples=     1307.12 seconds.
 MP4(T)=   -0.30333305D-01
 E3=       -0.11376019D-01        EUMP3=      -0.29036489846D+04
 E4(DQ)=    0.36615381D-03        UMP4(DQ)=   -0.29036486185D+04
 E4(SDQ)=  -0.60802852D-02        UMP4(SDQ)=  -0.29036550649D+04
 E4(SDTQ)= -0.36413591D-01        UMP4(SDTQ)= -0.29036853982D+04
 VARIATIONAL ENERGIES WITH THE FIRST-ORDER WAVEFUNCTION:
 E(VAR1)=  -0.29035244991D+04     E(CISD,4)=  -0.29035240087D+04
 Largest amplitude= 2.55D-02
 Leave Link  913 at Thu Dec 12 21:27:18 2019, MaxMem=  268435456 cpu:    1399.3
 (Enter /home/matheus/.gaussian/g09/l108.exe)
 Variable Step   Value    
 -------- ---- -----------
     1       2    6.047124
 Leave Link  108 at Thu Dec 12 21:27:18 2019, MaxMem=  268435456 cpu:       0.0
 (Enter /home/matheus/.gaussian/g09/l202.exe)
 ---------------------------------------------------------------------------------------------------
                            Z-MATRIX (ANGSTROMS AND DEGREES)
   CD    Cent   Atom    N1       Length/X        N2       Alpha/Y        N3        Beta/Z          J
 ---------------------------------------------------------------------------------------------------
      1      1  O        0   0.000000          0.000000          0.725000
      2      2  O        0   0.000000          0.000000         -0.725000
      3      3  H        0  -0.795635         -0.459360          1.023510
      4      4  H        0   0.000000          0.918721         -1.023510
      5      5  Kr       0   0.000000          3.200000          0.000000
 ---------------------------------------------------------------------------------------------------
                         Z-Matrix orientation:                         
 ---------------------------------------------------------------------
 Center     Atomic      Atomic             Coordinates (Angstroms)
 Number     Number       Type             X           Y           Z
 ---------------------------------------------------------------------
      1          8           0        0.000000    0.000000    0.725000
      2          8           0        0.000000    0.000000   -0.725000
      3          1           0       -0.795635   -0.459360    1.023510
      4          1           0        0.000000    0.918721   -1.023510
      5         36           0        0.000000    3.200000    0.000000
 ---------------------------------------------------------------------
                    Distance matrix (angstroms):
                    1          2          3          4          5
     1  O    0.000000
     2  O    1.450000   0.000000
     3  H    0.966000   1.975180   0.000000
     4  H    1.975180   0.966000   2.592766   0.000000
     5  Kr   3.281101   3.281101   3.882206   2.500362   0.000000
 Stoichiometry    H2KrO2
 Framework group  C1[X(H2KrO2)]
 Deg. of freedom     9
 Full point group                 C1      NOp   1
 RotChk:  IX=0 Diff= 1.62D-03
 Largest Abelian subgroup         C1      NOp   1
 Largest concise Abelian subgroup C1      NOp   1
                         Standard orientation:                         
 ---------------------------------------------------------------------
 Center     Atomic      Atomic             Coordinates (Angstroms)
 Number     Number       Type             X           Y           Z
 ---------------------------------------------------------------------
      1          8           0       -2.150357   -0.691348   -0.106409
      2          8           0       -2.131840    0.753996    0.008209
      3          1           0       -2.627053   -1.045146    0.655657
      4          1           0       -1.209518    1.038610    0.046566
      5         36           0        1.058171   -0.013740    0.002316
 ---------------------------------------------------------------------
 Rotational constants (GHZ):     25.8768573      2.0431342      1.9018494
 Leave Link  202 at Thu Dec 12 21:27:18 2019, MaxMem=  268435456 cpu:       0.0
 (Enter /home/matheus/.gaussian/g09/l301.exe)
 Standard basis: Aug-CC-pVTZ (5D, 7F)
 Ernie: Thresh=  0.10000D-02 Tol=  0.10000D-05 Strict=F.
 Ernie:  38 primitive shells out of 205 were deleted.
 There are   197 symmetry adapted basis functions of A   symmetry.
 Integral buffers will be    131072 words long.
 Raffenetti 1 integral format.
 Two-electron integral symmetry is turned on.
   197 basis functions,   415 primitive gaussians,   229 cartesian basis functions
    27 alpha electrons       27 beta electrons
       nuclear repulsion energy       142.0359814431 Hartrees.
 IExCor=    0 DFT=F Ex=HF Corr=None ExCW=0 ScaHFX=  1.000000
 ScaDFX=  1.000000  1.000000  1.000000  1.000000 ScalE2=  1.000000  1.000000
 IRadAn=      5 IRanWt=     -1 IRanGd=            0 ICorTp=0
 NAtoms=    5 NActive=    5 NUniq=    5 SFac= 1.00D+00 NAtFMM=   60 NAOKFM=F Big=F
 Leave Link  301 at Thu Dec 12 21:27:18 2019, MaxMem=  268435456 cpu:       0.0
 (Enter /home/matheus/.gaussian/g09/l302.exe)
 NPDir=0 NMtPBC=     1 NCelOv=     1 NCel=       1 NClECP=     1 NCelD=      1
         NCelK=      1 NCelE2=     1 NClLst=     1 CellRange=     0.0.
 One-electron integrals computed using PRISM.
 NBasis=   197 RedAO= T  NBF=   197
 NBsUse=   197 1.00D-06 NBFU=   197
 Leave Link  302 at Thu Dec 12 21:27:18 2019, MaxMem=  268435456 cpu:       0.2
 (Enter /home/matheus/.gaussian/g09/l303.exe)
 DipDrv:  MaxL=1.
 Leave Link  303 at Thu Dec 12 21:27:18 2019, MaxMem=  268435456 cpu:       0.0
 (Enter /home/matheus/.gaussian/g09/l401.exe)
 Initial guess read from the read-write file.
 B after Tr=     0.000000    0.000000    0.000000
         Rot=    1.000000    0.000000    0.000000    0.000000 Ang=   0.00 deg.
 Guess basis will be translated and rotated to current coordinates.
 Initial guess orbital symmetries:
       Occupied  (A) (A) (A) (A) (A) (A) (A) (A) (A) (A) (A) (A)
                 (A) (A) (A) (A) (A) (A) (A) (A) (A) (A) (A) (A)
                 (A) (A) (A)
       Virtual   (A) (A) (A) (A) (A) (A) (A) (A) (A) (A) (A) (A)
                 (A) (A) (A) (A) (A) (A) (A) (A) (A) (A) (A) (A)
                 (A) (A) (A) (A) (A) (A) (A) (A) (A) (A) (A) (A)
                 (A) (A) (A) (A) (A) (A) (A) (A) (A) (A) (A) (A)
                 (A) (A) (A) (A) (A) (A) (A) (A) (A) (A) (A) (A)
                 (A) (A) (A) (A) (A) (A) (A) (A) (A) (A) (A) (A)
                 (A) (A) (A) (A) (A) (A) (A) (A) (A) (A) (A) (A)
                 (A) (A) (A) (A) (A) (A) (A) (A) (A) (A) (A) (A)
                 (A) (A) (A) (A) (A) (A) (A) (A) (A) (A) (A) (A)
                 (A) (A) (A) (A) (A) (A) (A) (A) (A) (A) (A) (A)
                 (A) (A) (A) (A) (A) (A) (A) (A) (A) (A) (A) (A)
                 (A) (A) (A) (A) (A) (A) (A) (A) (A) (A) (A) (A)
                 (A) (A) (A) (A) (A) (A) (A) (A) (A) (A) (A) (A)
                 (A) (A) (A) (A) (A) (A) (A) (A) (A) (A) (A) (A)
                 (A) (A)
 The electronic state of the initial guess is 1-A.
 Generating alternative initial guess.
 Harris functional with IExCor=  205 diagonalized for initial guess.
 ExpMin= 2.53D-02 ExpMax= 1.17D+07 ExpMxC= 1.33D+04 IAcc=3 IRadAn=         5 AccDes= 0.00D+00
 HarFok:  IExCor=  205 AccDes= 0.00D+00 IRadAn=         5 IDoV= 1
 ScaDFX=  1.000000  1.000000  1.000000  1.000000
 FoFCou: FMM=F IPFlag=           0 FMFlag=      100000 FMFlg1=           0
         NFxFlg=           0 DoJE=T BraDBF=F KetDBF=T FulRan=T
         Omega=  0.000000  0.000000  1.000000  0.000000  0.000000 ICntrl=     500 IOpCl=  0
         NMat0=    1 NMatS0=    1 NMatT0=    0 NMatD0=    1 NMtDS0=    0 NMtDT0=    0
         I1Cent=           4 NGrid=           0.
 Petite list used in FoFCou.
 Harris En= -2901.93386534234    
 Leave Link  401 at Thu Dec 12 21:27:19 2019, MaxMem=  268435456 cpu:       1.3
 (Enter /home/matheus/.gaussian/g09/l502.exe)
 Closed shell SCF:
 Requested convergence on RMS density matrix=1.00D-08 within 128 cycles.
 Requested convergence on MAX density matrix=1.00D-06.
 Requested convergence on             energy=1.00D-06.
 No special actions if energy rises.
 Using DIIS extrapolation, IDIIS=  1040.
 Integral symmetry usage will be decided dynamically.
 IEnd=      178489 IEndB=      178489 NGot=   268435456 MDV=   268326278
 LenX=   268326278 LenY=   268273396
 Fock matrices will be formed incrementally for  20 cycles.

 Cycle   1  Pass 0  IDiag  1:
 FoFCou: FMM=F IPFlag=           0 FMFlag=      100000 FMFlg1=           0
         NFxFlg=           0 DoJE=F BraDBF=F KetDBF=F FulRan=T
         Omega=  0.000000  0.000000  1.000000  0.000000  0.000000 ICntrl=       0 IOpCl=  0
         NMat0=    1 NMatS0=    1 NMatT0=    0 NMatD0=    1 NMtDS0=    0 NMtDT0=    0
         I1Cent=           0 NGrid=           0.
 Symmetry not used in FoFCou.
 E= -2902.88363773763    
 DIIS: error= 3.12D-04 at cycle   1 NSaved=   1.
 NSaved= 1 IEnMin= 1 EnMin= -2902.88363773763     IErMin= 1 ErrMin= 3.12D-04
 ErrMax= 3.12D-04 EMaxC= 1.00D-01 BMatC= 5.18D-05 BMatP= 5.18D-05
 IDIUse=3 WtCom= 9.97D-01 WtEn= 3.12D-03
 Coeff-Com:  0.100D+01
 Coeff-En:   0.100D+01
 Coeff:      0.100D+01
 Gap=     0.515 Goal=   None    Shift=    0.000
 RMSDP=6.38D-05 MaxDP=2.15D-03              OVMax= 2.74D-03

 Cycle   2  Pass 0  IDiag  1:
 RMSU=  4.51D-05    CP:  1.00D+00
 E= -2902.88369929583     Delta-E=       -0.000061558199 Rises=F Damp=F
 DIIS: error= 6.01D-05 at cycle   2 NSaved=   2.
 NSaved= 2 IEnMin= 2 EnMin= -2902.88369929583     IErMin= 2 ErrMin= 6.01D-05
 ErrMax= 6.01D-05 EMaxC= 1.00D-01 BMatC= 1.64D-06 BMatP= 5.18D-05
 IDIUse=1 WtCom= 1.00D+00 WtEn= 0.00D+00
 Coeff-Com: -0.845D-01 0.108D+01
 Coeff:     -0.845D-01 0.108D+01
 Gap=     0.514 Goal=   None    Shift=    0.000
 RMSDP=1.14D-05 MaxDP=3.94D-04 DE=-6.16D-05 OVMax= 5.85D-04

 Cycle   3  Pass 0  IDiag  1:
 RMSU=  5.31D-06    CP:  1.00D+00  1.14D+00
 E= -2902.88370182263     Delta-E=       -0.000002526802 Rises=F Damp=F
 DIIS: error= 2.17D-05 at cycle   3 NSaved=   3.
 NSaved= 3 IEnMin= 3 EnMin= -2902.88370182263     IErMin= 3 ErrMin= 2.17D-05
 ErrMax= 2.17D-05 EMaxC= 1.00D-01 BMatC= 2.40D-07 BMatP= 1.64D-06
 IDIUse=1 WtCom= 1.00D+00 WtEn= 0.00D+00
 Coeff-Com: -0.406D-01 0.247D+00 0.793D+00
 Coeff:     -0.406D-01 0.247D+00 0.793D+00
 Gap=     0.514 Goal=   None    Shift=    0.000
 RMSDP=2.13D-06 MaxDP=6.74D-05 DE=-2.53D-06 OVMax= 1.40D-04

 Initial convergence to 1.0D-05 achieved.  Increase integral accuracy.
 Cycle   4  Pass 1  IDiag  1:
 E= -2902.88370205960     Delta-E=       -0.000000236972 Rises=F Damp=F
 DIIS: error= 8.09D-06 at cycle   1 NSaved=   1.
 NSaved= 1 IEnMin= 1 EnMin= -2902.88370205960     IErMin= 1 ErrMin= 8.09D-06
 ErrMax= 8.09D-06 EMaxC= 1.00D-01 BMatC= 2.98D-08 BMatP= 2.98D-08
 IDIUse=1 WtCom= 1.00D+00 WtEn= 0.00D+00
 Coeff-Com:  0.100D+01
 Coeff:      0.100D+01
 Gap=     0.514 Goal=   None    Shift=    0.000
 RMSDP=2.13D-06 MaxDP=6.74D-05 DE=-2.37D-07 OVMax= 6.90D-05

 Cycle   5  Pass 1  IDiag  1:
 RMSU=  7.51D-07    CP:  1.00D+00
 E= -2902.88370209722     Delta-E=       -0.000000037620 Rises=F Damp=F
 DIIS: error= 6.49D-06 at cycle   2 NSaved=   2.
 NSaved= 2 IEnMin= 2 EnMin= -2902.88370209722     IErMin= 2 ErrMin= 6.49D-06
 ErrMax= 6.49D-06 EMaxC= 1.00D-01 BMatC= 1.18D-08 BMatP= 2.98D-08
 IDIUse=1 WtCom= 1.00D+00 WtEn= 0.00D+00
 Coeff-Com:  0.334D+00 0.666D+00
 Coeff:      0.334D+00 0.666D+00
 Gap=     0.514 Goal=   None    Shift=    0.000
 RMSDP=3.26D-07 MaxDP=1.26D-05 DE=-3.76D-08 OVMax= 2.88D-05

 Cycle   6  Pass 1  IDiag  1:
 RMSU=  2.25D-07    CP:  1.00D+00  1.07D+00
 E= -2902.88370210832     Delta-E=       -0.000000011096 Rises=F Damp=F
 DIIS: error= 2.30D-06 at cycle   3 NSaved=   3.
 NSaved= 3 IEnMin= 3 EnMin= -2902.88370210832     IErMin= 3 ErrMin= 2.30D-06
 ErrMax= 2.30D-06 EMaxC= 1.00D-01 BMatC= 1.71D-09 BMatP= 1.18D-08
 IDIUse=1 WtCom= 1.00D+00 WtEn= 0.00D+00
 Coeff-Com: -0.342D+00-0.131D+00 0.147D+01
 Coeff:     -0.342D+00-0.131D+00 0.147D+01
 Gap=     0.514 Goal=   None    Shift=    0.000
 RMSDP=4.02D-07 MaxDP=1.17D-05 DE=-1.11D-08 OVMax= 3.19D-05

 Cycle   7  Pass 1  IDiag  1:
 RMSU=  9.24D-08    CP:  1.00D+00  1.40D+00  1.42D+00
 E= -2902.88370211271     Delta-E=       -0.000000004394 Rises=F Damp=F
 DIIS: error= 5.73D-07 at cycle   4 NSaved=   4.
 NSaved= 4 IEnMin= 4 EnMin= -2902.88370211271     IErMin= 4 ErrMin= 5.73D-07
 ErrMax= 5.73D-07 EMaxC= 1.00D-01 BMatC= 7.06D-11 BMatP= 1.71D-09
 IDIUse=1 WtCom= 1.00D+00 WtEn= 0.00D+00
 Coeff-Com: -0.815D-01-0.437D-01 0.274D+00 0.851D+00
 Coeff:     -0.815D-01-0.437D-01 0.274D+00 0.851D+00
 Gap=     0.514 Goal=   None    Shift=    0.000
 RMSDP=4.88D-08 MaxDP=1.66D-06 DE=-4.39D-09 OVMax= 4.43D-06

 Cycle   8  Pass 1  IDiag  1:
 RMSU=  2.19D-08    CP:  1.00D+00  1.41D+00  1.45D+00  1.26D+00
 E= -2902.88370211283     Delta-E=       -0.000000000125 Rises=F Damp=F
 DIIS: error= 2.31D-07 at cycle   5 NSaved=   5.
 NSaved= 5 IEnMin= 5 EnMin= -2902.88370211283     IErMin= 5 ErrMin= 2.31D-07
 ErrMax= 2.31D-07 EMaxC= 1.00D-01 BMatC= 1.29D-11 BMatP= 7.06D-11
 IDIUse=1 WtCom= 1.00D+00 WtEn= 0.00D+00
 Coeff-Com:  0.744D-01 0.387D-01-0.327D+00-0.784D-01 0.129D+01
 Coeff:      0.744D-01 0.387D-01-0.327D+00-0.784D-01 0.129D+01
 Gap=     0.514 Goal=   None    Shift=    0.000
 RMSDP=3.67D-08 MaxDP=1.00D-06 DE=-1.25D-10 OVMax= 3.15D-06

 Cycle   9  Pass 1  IDiag  1:
 RMSU=  9.93D-09    CP:  1.00D+00  1.41D+00  1.45D+00  1.50D+00  1.37D+00
 E= -2902.88370211285     Delta-E=       -0.000000000015 Rises=F Damp=F
 DIIS: error= 6.34D-08 at cycle   6 NSaved=   6.
 NSaved= 6 IEnMin= 6 EnMin= -2902.88370211285     IErMin= 6 ErrMin= 6.34D-08
 ErrMax= 6.34D-08 EMaxC= 1.00D-01 BMatC= 9.54D-13 BMatP= 1.29D-11
 IDIUse=1 WtCom= 1.00D+00 WtEn= 0.00D+00
 Coeff-Com: -0.218D-01-0.858D-02 0.964D-01-0.197D-01-0.463D+00 0.142D+01
 Coeff:     -0.218D-01-0.858D-02 0.964D-01-0.197D-01-0.463D+00 0.142D+01
 Gap=     0.514 Goal=   None    Shift=    0.000
 RMSDP=1.03D-08 MaxDP=2.36D-07 DE=-1.55D-11 OVMax= 1.24D-06

 Cycle  10  Pass 1  IDiag  1:
 RMSU=  2.96D-09    CP:  1.00D+00  1.41D+00  1.46D+00  1.50D+00  1.47D+00
                    CP:  1.61D+00
 E= -2902.88370211286     Delta-E=       -0.000000000007 Rises=F Damp=F
 DIIS: error= 2.42D-08 at cycle   7 NSaved=   7.
 NSaved= 7 IEnMin= 7 EnMin= -2902.88370211286     IErMin= 7 ErrMin= 2.42D-08
 ErrMax= 2.42D-08 EMaxC= 1.00D-01 BMatC= 1.43D-13 BMatP= 9.54D-13
 IDIUse=1 WtCom= 1.00D+00 WtEn= 0.00D+00
 Coeff-Com: -0.123D-01-0.593D-02 0.530D-01 0.136D-01-0.215D+00-0.343D-01
 Coeff-Com:  0.120D+01
 Coeff:     -0.123D-01-0.593D-02 0.530D-01 0.136D-01-0.215D+00-0.343D-01
 Coeff:      0.120D+01
 Gap=     0.514 Goal=   None    Shift=    0.000
 RMSDP=4.77D-09 MaxDP=1.27D-07 DE=-7.28D-12 OVMax= 5.37D-07

 SCF Done:  E(RHF) =  -2902.88370211     A.U. after   10 cycles
             Convg  =    0.4774D-08             -V/T =  2.0001
 KE= 2.902596327516D+03 PE=-7.224570901351D+03 EE= 1.277054890280D+03
 Leave Link  502 at Thu Dec 12 21:27:55 2019, MaxMem=  268435456 cpu:      72.8
 (Enter /home/matheus/.gaussian/g09/l801.exe)
 Windowed orbitals will be sorted by symmetry type.
 ExpMin= 2.53D-02 ExpMax= 1.17D+07 ExpMxC= 1.33D+04 IAcc=3 IRadAn=         5 AccDes= 0.00D+00
 HarFok:  IExCor=  205 AccDes= 0.00D+00 IRadAn=         5 IDoV=-2
 ScaDFX=  1.000000  1.000000  1.000000  1.000000
 DSYEVD returned Info=          93 IAlg= 4 N=    46 NDim=    46 NE2=     4547561 trying DSYEV.
 DSYEVD returned Info=          93 IAlg= 4 N=    46 NDim=    46 NE2=     4547561 trying DSYEV.
 Largest valence mixing into a core orbital is  1.44D-04
 Largest core mixing into a valence orbital is  2.60D-05
 Range of M.O.s used for correlation:    12   197
 NBasis=   197 NAE=    27 NBE=    27 NFC=    11 NFV=     0
 NROrb=    186 NOA=    16 NOB=    16 NVA=   170 NVB=   170

 **** Warning!!: The largest alpha MO coefficient is  0.16893192D+02

 Leave Link  801 at Thu Dec 12 21:27:55 2019, MaxMem=  268435456 cpu:       0.2
 (Enter /home/matheus/.gaussian/g09/l804.exe)
 Closed-shell transformation, MDV=   268435456 ITran=4 ISComp=1.
 Semi-Direct transformation.
 ModeAB=           4 MOrb=            16 LenV=     267328870
 LASXX=     48528660 LTotXX=    48528660 LenRXX=    97827436
 LTotAB=    49298776 MaxLAS=    78349152 LenRXY=           0
 NonZer=   146356096 LenScr=   220395520 LnRSAI=    78349152
 LnScr1=   118292480 LExtra=           0 Total=    514864588
 MaxDsk=          -1 SrtSym=           T ITran=            4
 DoSDTr:  NPSUse=  2
 JobTyp=0 Pass  1:  I=   1 to  16.
 (rs|ai) integrals will be sorted in core.
 Complete sort for first half transformation.
 First half transformation complete.
 Begin second half transformation for I=  10.
 Complete sort for second half transformation.
 Second half transformation complete.
 SymMOI:  orbitals are not symmetric.
 Spin components of T(2) and E(2):
     alpha-alpha T2 =       0.2584819834D-01 E2=     -0.9952524874D-01
     alpha-beta  T2 =       0.1418267307D+00 E2=     -0.5556803441D+00
     beta-beta   T2 =       0.2584819834D-01 E2=     -0.9952524874D-01
 ANorm=    0.1092484841D+01
 E2 =    -0.7547308416D+00 EUMP2 =    -0.29036384329545D+04
 Leave Link  804 at Thu Dec 12 21:28:18 2019, MaxMem=  268435456 cpu:      45.0
 (Enter /home/matheus/.gaussian/g09/l913.exe)
 CIDS:  MDV=   268435456.
 Frozen-core window:  NFC=  11 NFV=   0.
 IFCWin=0 IBDFC=1 NFBD=     0     0 NFCmp=     0     0 NFFFC=     0     0
 Using DD3R+UMP44R for 1st iteration, S=T.
 Using DD4RQ for 2nd and later iterations.
 Would need an additional       431206676 words for in-memory AO integral storage.
 MP4(SDTQ)
 =========
 DD1Dir will call FoFDir   1 times, MxPair=       272
 NAB=   136 NAA=     0 NBB=     0 NumPrc=  2.
 Integrals replicated using symmetry in FoFDir.
 MinBra= 0 MaxBra= 3 Meth= 1.
 IRaf=       0 NMat= 272 IRICut=     340 DoRegI=T DoRafI=T ISym2E= 2 JSym2E=2.
 MP4(D)= -0.14975583D-01
 MP4(S)= -0.64220109D-02
 MP4(R+Q)=  0.15281705D-01
 T4(AAA)= -0.10269861D-02
 T4(AAB)= -0.14077439D-01
 Time for triples=     1458.95 seconds.
 MP4(T)=   -0.30208851D-01
 E3=       -0.11496148D-01        EUMP3=      -0.29036499291D+04
 E4(DQ)=    0.30612276D-03        UMP4(DQ)=   -0.29036496230D+04
 E4(SDQ)=  -0.61158881D-02        UMP4(SDQ)=  -0.29036560450D+04
 E4(SDTQ)= -0.36324739D-01        UMP4(SDTQ)= -0.29036862538D+04
 VARIATIONAL ENERGIES WITH THE FIRST-ORDER WAVEFUNCTION:
 E(VAR1)=  -0.29035256897D+04     E(CISD,4)=  -0.29035252688D+04
 Largest amplitude= 2.71D-02
 Leave Link  913 at Thu Dec 12 21:41:20 2019, MaxMem=  268435456 cpu:    1559.5
 (Enter /home/matheus/.gaussian/g09/l108.exe)
 Variable Step   Value    
 -------- ---- -----------
     1       3    6.236096
 Leave Link  108 at Thu Dec 12 21:41:20 2019, MaxMem=  268435456 cpu:       0.0
 (Enter /home/matheus/.gaussian/g09/l202.exe)
 ---------------------------------------------------------------------------------------------------
                            Z-MATRIX (ANGSTROMS AND DEGREES)
   CD    Cent   Atom    N1       Length/X        N2       Alpha/Y        N3        Beta/Z          J
 ---------------------------------------------------------------------------------------------------
      1      1  O        0   0.000000          0.000000          0.725000
      2      2  O        0   0.000000          0.000000         -0.725000
      3      3  H        0  -0.795635         -0.459360          1.023510
      4      4  H        0   0.000000          0.918721         -1.023510
      5      5  Kr       0   0.000000          3.300000          0.000000
 ---------------------------------------------------------------------------------------------------
                         Z-Matrix orientation:                         
 ---------------------------------------------------------------------
 Center     Atomic      Atomic             Coordinates (Angstroms)
 Number     Number       Type             X           Y           Z
 ---------------------------------------------------------------------
      1          8           0        0.000000    0.000000    0.725000
      2          8           0        0.000000    0.000000   -0.725000
      3          1           0       -0.795635   -0.459360    1.023510
      4          1           0        0.000000    0.918721   -1.023510
      5         36           0        0.000000    3.300000    0.000000
 ---------------------------------------------------------------------
                    Distance matrix (angstroms):
                    1          2          3          4          5
     1  O    0.000000
     2  O    1.450000   0.000000
     3  H    0.966000   1.975180   0.000000
     4  H    1.975180   0.966000   2.592766   0.000000
     5  Kr   3.378702   3.378702   3.976606   2.591923   0.000000
 Stoichiometry    H2KrO2
 Framework group  C1[X(H2KrO2)]
 Deg. of freedom     9
 Full point group                 C1      NOp   1
 RotChk:  IX=0 Diff= 1.47D-03
 Largest Abelian subgroup         C1      NOp   1
 Largest concise Abelian subgroup C1      NOp   1
                         Standard orientation:                         
 ---------------------------------------------------------------------
 Center     Atomic      Atomic             Coordinates (Angstroms)
 Number     Number       Type             X           Y           Z
 ---------------------------------------------------------------------
      1          8           0       -2.216460   -0.692349   -0.106315
      2          8           0       -2.199150    0.753001    0.008419
      3          1           0       -2.692423   -1.046632    0.655983
      4          1           0       -1.277057    1.038423    0.046292
      5         36           0        1.091510   -0.013250    0.002247
 ---------------------------------------------------------------------
 Rotational constants (GHZ):     25.8758203      1.9214653      1.7959870
 Leave Link  202 at Thu Dec 12 21:41:20 2019, MaxMem=  268435456 cpu:       0.0
 (Enter /home/matheus/.gaussian/g09/l301.exe)
 Standard basis: Aug-CC-pVTZ (5D, 7F)
 Ernie: Thresh=  0.10000D-02 Tol=  0.10000D-05 Strict=F.
 Ernie:  38 primitive shells out of 205 were deleted.
 There are   197 symmetry adapted basis functions of A   symmetry.
 Integral buffers will be    131072 words long.
 Raffenetti 1 integral format.
 Two-electron integral symmetry is turned on.
   197 basis functions,   415 primitive gaussians,   229 cartesian basis functions
    27 alpha electrons       27 beta electrons
       nuclear repulsion energy       138.9668171308 Hartrees.
 IExCor=    0 DFT=F Ex=HF Corr=None ExCW=0 ScaHFX=  1.000000
 ScaDFX=  1.000000  1.000000  1.000000  1.000000 ScalE2=  1.000000  1.000000
 IRadAn=      5 IRanWt=     -1 IRanGd=            0 ICorTp=0
 NAtoms=    5 NActive=    5 NUniq=    5 SFac= 1.00D+00 NAtFMM=   60 NAOKFM=F Big=F
 Leave Link  301 at Thu Dec 12 21:41:20 2019, MaxMem=  268435456 cpu:       0.0
 (Enter /home/matheus/.gaussian/g09/l302.exe)
 NPDir=0 NMtPBC=     1 NCelOv=     1 NCel=       1 NClECP=     1 NCelD=      1
         NCelK=      1 NCelE2=     1 NClLst=     1 CellRange=     0.0.
 One-electron integrals computed using PRISM.
 NBasis=   197 RedAO= T  NBF=   197
 NBsUse=   197 1.00D-06 NBFU=   197
 Leave Link  302 at Thu Dec 12 21:41:20 2019, MaxMem=  268435456 cpu:       0.2
 (Enter /home/matheus/.gaussian/g09/l303.exe)
 DipDrv:  MaxL=1.
 Leave Link  303 at Thu Dec 12 21:41:20 2019, MaxMem=  268435456 cpu:       0.0
 (Enter /home/matheus/.gaussian/g09/l401.exe)
 Initial guess read from the read-write file.
 B after Tr=     0.000000    0.000000    0.000000
         Rot=    1.000000    0.000000    0.000000    0.000000 Ang=   0.00 deg.
 Guess basis will be translated and rotated to current coordinates.
 Initial guess orbital symmetries:
       Occupied  (A) (A) (A) (A) (A) (A) (A) (A) (A) (A) (A) (A)
                 (A) (A) (A) (A) (A) (A) (A) (A) (A) (A) (A) (A)
                 (A) (A) (A)
       Virtual   (A) (A) (A) (A) (A) (A) (A) (A) (A) (A) (A) (A)
                 (A) (A) (A) (A) (A) (A) (A) (A) (A) (A) (A) (A)
                 (A) (A) (A) (A) (A) (A) (A) (A) (A) (A) (A) (A)
                 (A) (A) (A) (A) (A) (A) (A) (A) (A) (A) (A) (A)
                 (A) (A) (A) (A) (A) (A) (A) (A) (A) (A) (A) (A)
                 (A) (A) (A) (A) (A) (A) (A) (A) (A) (A) (A) (A)
                 (A) (A) (A) (A) (A) (A) (A) (A) (A) (A) (A) (A)
                 (A) (A) (A) (A) (A) (A) (A) (A) (A) (A) (A) (A)
                 (A) (A) (A) (A) (A) (A) (A) (A) (A) (A) (A) (A)
                 (A) (A) (A) (A) (A) (A) (A) (A) (A) (A) (A) (A)
                 (A) (A) (A) (A) (A) (A) (A) (A) (A) (A) (A) (A)
                 (A) (A) (A) (A) (A) (A) (A) (A) (A) (A) (A) (A)
                 (A) (A) (A) (A) (A) (A) (A) (A) (A) (A) (A) (A)
                 (A) (A) (A) (A) (A) (A) (A) (A) (A) (A) (A) (A)
                 (A) (A)
 The electronic state of the initial guess is 1-A.
 Generating alternative initial guess.
 Harris functional with IExCor=  205 diagonalized for initial guess.
 ExpMin= 2.53D-02 ExpMax= 1.17D+07 ExpMxC= 1.33D+04 IAcc=3 IRadAn=         5 AccDes= 0.00D+00
 HarFok:  IExCor=  205 AccDes= 0.00D+00 IRadAn=         5 IDoV= 1
 ScaDFX=  1.000000  1.000000  1.000000  1.000000
 FoFCou: FMM=F IPFlag=           0 FMFlag=      100000 FMFlg1=           0
         NFxFlg=           0 DoJE=T BraDBF=F KetDBF=T FulRan=T
         Omega=  0.000000  0.000000  1.000000  0.000000  0.000000 ICntrl=     500 IOpCl=  0
         NMat0=    1 NMatS0=    1 NMatT0=    0 NMatD0=    1 NMtDS0=    0 NMtDT0=    0
         I1Cent=           4 NGrid=           0.
 Petite list used in FoFCou.
 Harris En= -2901.93419701067    
 Leave Link  401 at Thu Dec 12 21:41:21 2019, MaxMem=  268435456 cpu:       1.2
 (Enter /home/matheus/.gaussian/g09/l502.exe)
 Closed shell SCF:
 Requested convergence on RMS density matrix=1.00D-08 within 128 cycles.
 Requested convergence on MAX density matrix=1.00D-06.
 Requested convergence on             energy=1.00D-06.
 No special actions if energy rises.
 Using DIIS extrapolation, IDIIS=  1040.
 Integral symmetry usage will be decided dynamically.
 IEnd=      178489 IEndB=      178489 NGot=   268435456 MDV=   268326278
 LenX=   268326278 LenY=   268273396
 Fock matrices will be formed incrementally for  20 cycles.

 Cycle   1  Pass 0  IDiag  1:
 FoFCou: FMM=F IPFlag=           0 FMFlag=      100000 FMFlg1=           0
         NFxFlg=           0 DoJE=F BraDBF=F KetDBF=F FulRan=T
         Omega=  0.000000  0.000000  1.000000  0.000000  0.000000 ICntrl=       0 IOpCl=  0
         NMat0=    1 NMatS0=    1 NMatT0=    0 NMatD0=    1 NMtDS0=    0 NMtDT0=    0
         I1Cent=           0 NGrid=           0.
 Symmetry not used in FoFCou.
 E= -2902.88489623030    
 DIIS: error= 2.63D-04 at cycle   1 NSaved=   1.
 NSaved= 1 IEnMin= 1 EnMin= -2902.88489623030     IErMin= 1 ErrMin= 2.63D-04
 ErrMax= 2.63D-04 EMaxC= 1.00D-01 BMatC= 3.90D-05 BMatP= 3.90D-05
 IDIUse=3 WtCom= 9.97D-01 WtEn= 2.63D-03
 Coeff-Com:  0.100D+01
 Coeff-En:   0.100D+01
 Coeff:      0.100D+01
 Gap=     0.515 Goal=   None    Shift=    0.000
 RMSDP=5.77D-05 MaxDP=1.52D-03              OVMax= 2.49D-03

 Cycle   2  Pass 0  IDiag  1:
 RMSU=  4.08D-05    CP:  1.00D+00
 E= -2902.88494278391     Delta-E=       -0.000046553610 Rises=F Damp=F
 DIIS: error= 5.65D-05 at cycle   2 NSaved=   2.
 NSaved= 2 IEnMin= 2 EnMin= -2902.88494278391     IErMin= 2 ErrMin= 5.65D-05
 ErrMax= 5.65D-05 EMaxC= 1.00D-01 BMatC= 1.14D-06 BMatP= 3.90D-05
 IDIUse=1 WtCom= 1.00D+00 WtEn= 0.00D+00
 Coeff-Com: -0.886D-01 0.109D+01
 Coeff:     -0.886D-01 0.109D+01
 Gap=     0.514 Goal=   None    Shift=    0.000
 RMSDP=1.01D-05 MaxDP=3.18D-04 DE=-4.66D-05 OVMax= 5.35D-04

 Cycle   3  Pass 0  IDiag  1:
 RMSU=  4.59D-06    CP:  1.00D+00  1.13D+00
 E= -2902.88494463506     Delta-E=       -0.000001851158 Rises=F Damp=F
 DIIS: error= 1.94D-05 at cycle   3 NSaved=   3.
 NSaved= 3 IEnMin= 3 EnMin= -2902.88494463506     IErMin= 3 ErrMin= 1.94D-05
 ErrMax= 1.94D-05 EMaxC= 1.00D-01 BMatC= 1.48D-07 BMatP= 1.14D-06
 IDIUse=1 WtCom= 1.00D+00 WtEn= 0.00D+00
 Coeff-Com: -0.370D-01 0.226D+00 0.811D+00
 Coeff:     -0.370D-01 0.226D+00 0.811D+00
 Gap=     0.514 Goal=   None    Shift=    0.000
 RMSDP=1.86D-06 MaxDP=6.20D-05 DE=-1.85D-06 OVMax= 1.24D-04

 Initial convergence to 1.0D-05 achieved.  Increase integral accuracy.
 Cycle   4  Pass 1  IDiag  1:
 E= -2902.88494479160     Delta-E=       -0.000000156531 Rises=F Damp=F
 DIIS: error= 7.07D-06 at cycle   1 NSaved=   1.
 NSaved= 1 IEnMin= 1 EnMin= -2902.88494479160     IErMin= 1 ErrMin= 7.07D-06
 ErrMax= 7.07D-06 EMaxC= 1.00D-01 BMatC= 2.13D-08 BMatP= 2.13D-08
 IDIUse=1 WtCom= 1.00D+00 WtEn= 0.00D+00
 Coeff-Com:  0.100D+01
 Coeff:      0.100D+01
 Gap=     0.514 Goal=   None    Shift=    0.000
 RMSDP=1.86D-06 MaxDP=6.20D-05 DE=-1.57D-07 OVMax= 5.82D-05

 Cycle   5  Pass 1  IDiag  1:
 RMSU=  6.48D-07    CP:  1.00D+00
 E= -2902.88494481816     Delta-E=       -0.000000026567 Rises=F Damp=F
 DIIS: error= 5.01D-06 at cycle   2 NSaved=   2.
 NSaved= 2 IEnMin= 2 EnMin= -2902.88494481816     IErMin= 2 ErrMin= 5.01D-06
 ErrMax= 5.01D-06 EMaxC= 1.00D-01 BMatC= 8.59D-09 BMatP= 2.13D-08
 IDIUse=1 WtCom= 1.00D+00 WtEn= 0.00D+00
 Coeff-Com:  0.340D+00 0.660D+00
 Coeff:      0.340D+00 0.660D+00
 Gap=     0.514 Goal=   None    Shift=    0.000
 RMSDP=2.75D-07 MaxDP=1.06D-05 DE=-2.66D-08 OVMax= 2.43D-05

 Cycle   6  Pass 1  IDiag  1:
 RMSU=  1.90D-07    CP:  1.00D+00  1.06D+00
 E= -2902.88494482611     Delta-E=       -0.000000007943 Rises=F Damp=F
 DIIS: error= 1.98D-06 at cycle   3 NSaved=   3.
 NSaved= 3 IEnMin= 3 EnMin= -2902.88494482611     IErMin= 3 ErrMin= 1.98D-06
 ErrMax= 1.98D-06 EMaxC= 1.00D-01 BMatC= 1.18D-09 BMatP= 8.59D-09
 IDIUse=1 WtCom= 1.00D+00 WtEn= 0.00D+00
 Coeff-Com: -0.342D+00-0.144D+00 0.149D+01
 Coeff:     -0.342D+00-0.144D+00 0.149D+01
 Gap=     0.514 Goal=   None    Shift=    0.000
 RMSDP=3.39D-07 MaxDP=1.04D-05 DE=-7.94D-09 OVMax= 2.70D-05

 Cycle   7  Pass 1  IDiag  1:
 RMSU=  8.03D-08    CP:  1.00D+00  1.39D+00  1.42D+00
 E= -2902.88494482922     Delta-E=       -0.000000003113 Rises=F Damp=F
 DIIS: error= 4.87D-07 at cycle   4 NSaved=   4.
 NSaved= 4 IEnMin= 4 EnMin= -2902.88494482922     IErMin= 4 ErrMin= 4.87D-07
 ErrMax= 4.87D-07 EMaxC= 1.00D-01 BMatC= 5.02D-11 BMatP= 1.18D-09
 IDIUse=1 WtCom= 1.00D+00 WtEn= 0.00D+00
 Coeff-Com: -0.815D-01-0.464D-01 0.277D+00 0.851D+00
 Coeff:     -0.815D-01-0.464D-01 0.277D+00 0.851D+00
 Gap=     0.514 Goal=   None    Shift=    0.000
 RMSDP=4.14D-08 MaxDP=1.38D-06 DE=-3.11D-09 OVMax= 3.81D-06

[...]
     5  Kr   5.052289   5.052289   5.611170   4.207661   0.000000
 Stoichiometry    H2KrO2
 Framework group  C1[X(H2KrO2)]
 Deg. of freedom     9
 Full point group                 C1      NOp   1
 RotChk:  IX=0 Diff= 4.51D-04
 Largest Abelian subgroup         C1      NOp   1
 Largest concise Abelian subgroup C1      NOp   1
                         Standard orientation:                         
 ---------------------------------------------------------------------
 Center     Atomic      Atomic             Coordinates (Angstroms)
 Number     Number       Type             X           Y           Z
 ---------------------------------------------------------------------
      1          8           0       -3.345053   -0.702336   -0.105259
      2          8           0       -3.337899    0.743003    0.010688
      3          1           0       -3.813958   -1.060833    0.659439
      4          1           0       -2.417764    1.035288    0.043520
      5         36           0        1.658204   -0.008328    0.001489
 ---------------------------------------------------------------------
 Rotational constants (GHZ):     25.8664909      0.8376392      0.8128765
 Leave Link  202 at Fri Dec 13 01:18:17 2019, MaxMem=  268435456 cpu:       0.0
 (Enter /home/matheus/.gaussian/g09/l301.exe)
 Standard basis: Aug-CC-pVTZ (5D, 7F)
 Ernie: Thresh=  0.10000D-02 Tol=  0.10000D-05 Strict=F.
 Ernie:  38 primitive shells out of 205 were deleted.
 There are   197 symmetry adapted basis functions of A   symmetry.
 Integral buffers will be    131072 words long.
 Raffenetti 1 integral format.
 Two-electron integral symmetry is turned on.
   197 basis functions,   415 primitive gaussians,   229 cartesian basis functions
    27 alpha electrons       27 beta electrons
       nuclear repulsion energy       104.8652577366 Hartrees.
 IExCor=    0 DFT=F Ex=HF Corr=None ExCW=0 ScaHFX=  1.000000
 ScaDFX=  1.000000  1.000000  1.000000  1.000000 ScalE2=  1.000000  1.000000
 IRadAn=      5 IRanWt=     -1 IRanGd=            0 ICorTp=0
 NAtoms=    5 NActive=    5 NUniq=    5 SFac= 1.00D+00 NAtFMM=   60 NAOKFM=F Big=F
 Leave Link  301 at Fri Dec 13 01:18:17 2019, MaxMem=  268435456 cpu:       0.0
 (Enter /home/matheus/.gaussian/g09/l302.exe)
 NPDir=0 NMtPBC=     1 NCelOv=     1 NCel=       1 NClECP=     1 NCelD=      1
         NCelK=      1 NCelE2=     1 NClLst=     1 CellRange=     0.0.
 One-electron integrals computed using PRISM.
 NBasis=   197 RedAO= T  NBF=   197
 NBsUse=   197 1.00D-06 NBFU=   197
 Leave Link  302 at Fri Dec 13 01:18:17 2019, MaxMem=  268435456 cpu:       0.2
 (Enter /home/matheus/.gaussian/g09/l303.exe)
 DipDrv:  MaxL=1.
 Leave Link  303 at Fri Dec 13 01:18:17 2019, MaxMem=  268435456 cpu:       0.1
 (Enter /home/matheus/.gaussian/g09/l401.exe)
 Initial guess read from the read-write file.
 B after Tr=     0.000000    0.000000    0.000000
         Rot=    1.000000    0.000000    0.000000    0.000000 Ang=   0.00 deg.
 Guess basis will be translated and rotated to current coordinates.
 Initial guess orbital symmetries:
       Occupied  (A) (A) (A) (A) (A) (A) (A) (A) (A) (A) (A) (A)
                 (A) (A) (A) (A) (A) (A) (A) (A) (A) (A) (A) (A)
                 (A) (A) (A)
       Virtual   (A) (A) (A) (A) (A) (A) (A) (A) (A) (A) (A) (A)
                 (A) (A) (A) (A) (A) (A) (A) (A) (A) (A) (A) (A)
                 (A) (A) (A) (A) (A) (A) (A) (A) (A) (A) (A) (A)
                 (A) (A) (A) (A) (A) (A) (A) (A) (A) (A) (A) (A)
                 (A) (A) (A) (A) (A) (A) (A) (A) (A) (A) (A) (A)
                 (A) (A) (A) (A) (A) (A) (A) (A) (A) (A) (A) (A)
                 (A) (A) (A) (A) (A) (A) (A) (A) (A) (A) (A) (A)
                 (A) (A) (A) (A) (A) (A) (A) (A) (A) (A) (A) (A)
                 (A) (A) (A) (A) (A) (A) (A) (A) (A) (A) (A) (A)
                 (A) (A) (A) (A) (A) (A) (A) (A) (A) (A) (A) (A)
                 (A) (A) (A) (A) (A) (A) (A) (A) (A) (A) (A) (A)
                 (A) (A) (A) (A) (A) (A) (A) (A) (A) (A) (A) (A)
                 (A) (A) (A) (A) (A) (A) (A) (A) (A) (A) (A) (A)
                 (A) (A) (A) (A) (A) (A) (A) (A) (A) (A) (A) (A)
                 (A) (A)
 The electronic state of the initial guess is 1-A.
 Generating alternative initial guess.
 Harris functional with IExCor=  205 diagonalized for initial guess.
 ExpMin= 2.53D-02 ExpMax= 1.17D+07 ExpMxC= 1.33D+04 IAcc=3 IRadAn=         5 AccDes= 0.00D+00
 HarFok:  IExCor=  205 AccDes= 0.00D+00 IRadAn=         5 IDoV= 1
 ScaDFX=  1.000000  1.000000  1.000000  1.000000
 FoFCou: FMM=F IPFlag=           0 FMFlag=      100000 FMFlg1=           0
         NFxFlg=           0 DoJE=T BraDBF=F KetDBF=T FulRan=T
         Omega=  0.000000  0.000000  1.000000  0.000000  0.000000 ICntrl=     500 IOpCl=  0
         NMat0=    1 NMatS0=    1 NMatT0=    0 NMatD0=    1 NMtDS0=    0 NMtDT0=    0
         I1Cent=           4 NGrid=           0.
 Petite list used in FoFCou.
 Harris En= -2901.93378527336    
 Leave Link  401 at Fri Dec 13 01:18:18 2019, MaxMem=  268435456 cpu:       1.5
 (Enter /home/matheus/.gaussian/g09/l502.exe)
 Closed shell SCF:
 Requested convergence on RMS density matrix=1.00D-08 within 128 cycles.
 Requested convergence on MAX density matrix=1.00D-06.
 Requested convergence on             energy=1.00D-06.
 No special actions if energy rises.
 Using DIIS extrapolation, IDIIS=  1040.
 Integral symmetry usage will be decided dynamically.
 IEnd=      178489 IEndB=      178489 NGot=   268435456 MDV=   268326278
 LenX=   268326278 LenY=   268273396
 Fock matrices will be formed incrementally for  20 cycles.

 Cycle   1  Pass 0  IDiag  1:
 FoFCou: FMM=F IPFlag=           0 FMFlag=      100000 FMFlg1=           0
         NFxFlg=           0 DoJE=F BraDBF=F KetDBF=F FulRan=T
         Omega=  0.000000  0.000000  1.000000  0.000000  0.000000 ICntrl=       0 IOpCl=  0
         NMat0=    1 NMatS0=    1 NMatT0=    0 NMatD0=    1 NMtDS0=    0 NMtDT0=    0
         I1Cent=           0 NGrid=           0.
 Symmetry not used in FoFCou.
 E= -2902.88769662773    
 DIIS: error= 3.69D-05 at cycle   1 NSaved=   1.
 NSaved= 1 IEnMin= 1 EnMin= -2902.88769662773     IErMin= 1 ErrMin= 3.69D-05
 ErrMax= 3.69D-05 EMaxC= 1.00D-01 BMatC= 5.76D-07 BMatP= 5.76D-07
 IDIUse=1 WtCom= 1.00D+00 WtEn= 0.00D+00
 Coeff-Com:  0.100D+01
 Coeff:      0.100D+01
 Gap=     0.516 Goal=   None    Shift=    0.000
 RMSDP=1.78D-05 MaxDP=7.72D-04              OVMax= 3.08D-04

 Cycle   2  Pass 0  IDiag  1:
 RMSU=  1.26D-05    CP:  1.00D+00
 E= -2902.88769725308     Delta-E=       -0.000000625343 Rises=F Damp=F
 DIIS: error= 7.53D-06 at cycle   2 NSaved=   2.
 NSaved= 2 IEnMin= 2 EnMin= -2902.88769725308     IErMin= 2 ErrMin= 7.53D-06
 ErrMax= 7.53D-06 EMaxC= 1.00D-01 BMatC= 1.41D-08 BMatP= 5.76D-07
 IDIUse=1 WtCom= 1.00D+00 WtEn= 0.00D+00
 Coeff-Com: -0.470D-01 0.105D+01
 Coeff:     -0.470D-01 0.105D+01
 Gap=     0.516 Goal=   None    Shift=    0.000
 RMSDP=2.30D-06 MaxDP=9.77D-05 DE=-6.25D-07 OVMax= 5.30D-05

 Initial convergence to 1.0D-05 achieved.  Increase integral accuracy.
 Cycle   3  Pass 1  IDiag  1:
 E= -2902.88769727482     Delta-E=       -0.000000021740 Rises=F Damp=F
 DIIS: error= 3.06D-06 at cycle   1 NSaved=   1.
 NSaved= 1 IEnMin= 1 EnMin= -2902.88769727482     IErMin= 1 ErrMin= 3.06D-06
 ErrMax= 3.06D-06 EMaxC= 1.00D-01 BMatC= 1.28D-09 BMatP= 1.28D-09
 IDIUse=1 WtCom= 1.00D+00 WtEn= 0.00D+00
 Coeff-Com:  0.100D+01
 Coeff:      0.100D+01
 Gap=     0.516 Goal=   None    Shift=    0.000
 RMSDP=2.30D-06 MaxDP=9.77D-05 DE=-2.17D-08 OVMax= 1.99D-05

 Cycle   4  Pass 1  IDiag  1:
 RMSU=  1.98D-07    CP:  1.00D+00
 E= -2902.88769727699     Delta-E=       -0.000000002167 Rises=F Damp=F
 DIIS: error= 8.17D-07 at cycle   2 NSaved=   2.
 NSaved= 2 IEnMin= 2 EnMin= -2902.88769727699     IErMin= 2 ErrMin= 8.17D-07
 ErrMax= 8.17D-07 EMaxC= 1.00D-01 BMatC= 2.60D-10 BMatP= 1.28D-09
 IDIUse=1 WtCom= 1.00D+00 WtEn= 0.00D+00
 Coeff-Com:  0.165D+00 0.835D+00
 Coeff:      0.165D+00 0.835D+00
 Gap=     0.516 Goal=   None    Shift=    0.000
 RMSDP=7.40D-08 MaxDP=2.00D-06 DE=-2.17D-09 OVMax= 5.38D-06

 Cycle   5  Pass 1  IDiag  1:
 RMSU=  4.28D-08    CP:  1.00D+00  1.15D+00
 E= -2902.88769727734     Delta-E=       -0.000000000353 Rises=F Damp=F
 DIIS: error= 4.54D-07 at cycle   3 NSaved=   3.
 NSaved= 3 IEnMin= 3 EnMin= -2902.88769727734     IErMin= 3 ErrMin= 4.54D-07
 ErrMax= 4.54D-07 EMaxC= 1.00D-01 BMatC= 6.38D-11 BMatP= 2.60D-10
 IDIUse=1 WtCom= 1.00D+00 WtEn= 0.00D+00
 Coeff-Com: -0.152D+00 0.740D-01 0.108D+01
 Coeff:     -0.152D+00 0.740D-01 0.108D+01
 Gap=     0.516 Goal=   None    Shift=    0.000
 RMSDP=5.27D-08 MaxDP=1.50D-06 DE=-3.53D-10 OVMax= 4.62D-06

 Cycle   6  Pass 1  IDiag  1:
 RMSU=  2.25D-08    CP:  1.00D+00  1.29D+00  1.27D+00
 E= -2902.88769727751     Delta-E=       -0.000000000168 Rises=F Damp=F
 DIIS: error= 2.09D-07 at cycle   4 NSaved=   4.
 NSaved= 4 IEnMin= 4 EnMin= -2902.88769727751     IErMin= 4 ErrMin= 2.09D-07
 ErrMax= 2.09D-07 EMaxC= 1.00D-01 BMatC= 1.19D-11 BMatP= 6.38D-11
 IDIUse=1 WtCom= 1.00D+00 WtEn= 0.00D+00
 Coeff-Com: -0.750D-01-0.136D+00 0.304D+00 0.908D+00
 Coeff:     -0.750D-01-0.136D+00 0.304D+00 0.908D+00
 Gap=     0.516 Goal=   None    Shift=    0.000
 RMSDP=2.08D-08 MaxDP=5.90D-07 DE=-1.68D-10 OVMax= 2.35D-06

 Cycle   7  Pass 1  IDiag  1:
 RMSU=  8.07D-09    CP:  1.00D+00  1.32D+00  1.47D+00  1.29D+00
 E= -2902.88769727753     Delta-E=       -0.000000000025 Rises=F Damp=F
 DIIS: error= 6.41D-08 at cycle   5 NSaved=   5.
 NSaved= 5 IEnMin= 5 EnMin= -2902.88769727753     IErMin= 5 ErrMin= 6.41D-08
 ErrMax= 6.41D-08 EMaxC= 1.00D-01 BMatC= 9.76D-13 BMatP= 1.19D-11
 IDIUse=1 WtCom= 1.00D+00 WtEn= 0.00D+00
 Coeff-Com:  0.559D-01 0.720D-01-0.274D+00-0.511D+00 0.166D+01
 Coeff:      0.559D-01 0.720D-01-0.274D+00-0.511D+00 0.166D+01
 Gap=     0.516 Goal=   None    Shift=    0.000
 RMSDP=1.33D-08 MaxDP=3.56D-07 DE=-2.46D-11 OVMax= 1.60D-06

 Cycle   8  Pass 1  IDiag  1:
 RMSU=  3.74D-09    CP:  1.00D+00  1.31D+00  1.50D+00  1.55D+00  1.64D+00
 E= -2902.88769727753     Delta-E=       -0.000000000004 Rises=F Damp=F
 DIIS: error= 2.55D-08 at cycle   6 NSaved=   6.
 NSaved= 6 IEnMin= 6 EnMin= -2902.88769727753     IErMin= 6 ErrMin= 2.55D-08
 ErrMax= 2.55D-08 EMaxC= 1.00D-01 BMatC= 1.15D-13 BMatP= 9.76D-13
 IDIUse=1 WtCom= 1.00D+00 WtEn= 0.00D+00
 Coeff-Com:  0.165D-03 0.190D-02 0.748D-02-0.126D-01-0.193D+00 0.120D+01
 Coeff:      0.165D-03 0.190D-02 0.748D-02-0.126D-01-0.193D+00 0.120D+01
 Gap=     0.516 Goal=   None    Shift=    0.000
 RMSDP=3.26D-09 MaxDP=7.94D-08 DE=-4.09D-12 OVMax= 4.91D-07

 SCF Done:  E(RHF) =  -2902.88769728     A.U. after    8 cycles
             Convg  =    0.3260D-08             -V/T =  2.0001
 KE= 2.902564908704D+03 PE=-7.150362244916D+03 EE= 1.240044381198D+03
 Leave Link  502 at Fri Dec 13 01:18:39 2019, MaxMem=  268435456 cpu:      41.9
 (Enter /home/matheus/.gaussian/g09/l801.exe)
 Windowed orbitals will be sorted by symmetry type.
 ExpMin= 2.53D-02 ExpMax= 1.17D+07 ExpMxC= 1.33D+04 IAcc=3 IRadAn=         5 AccDes= 0.00D+00
 HarFok:  IExCor=  205 AccDes= 0.00D+00 IRadAn=         5 IDoV=-2
 ScaDFX=  1.000000  1.000000  1.000000  1.000000
 DSYEVD returned Info=          93 IAlg= 4 N=    46 NDim=    46 NE2=     4547561 trying DSYEV.
 DSYEVD returned Info=          89 IAlg= 4 N=    59 NDim=    59 NE2=     4547561 trying DSYEV.
 Largest valence mixing into a core orbital is  1.47D-04
 Largest core mixing into a valence orbital is  2.60D-05
 Range of M.O.s used for correlation:    12   197
 NBasis=   197 NAE=    27 NBE=    27 NFC=    11 NFV=     0
 NROrb=    186 NOA=    16 NOB=    16 NVA=   170 NVB=   170

 **** Warning!!: The largest alpha MO coefficient is  0.12537310D+02

 Leave Link  801 at Fri Dec 13 01:18:39 2019, MaxMem=  268435456 cpu:       0.3
 (Enter /home/matheus/.gaussian/g09/l804.exe)
 Closed-shell transformation, MDV=   268435456 ITran=4 ISComp=1.
 Semi-Direct transformation.
 ModeAB=           4 MOrb=            16 LenV=     267350758
 LASXX=     48528660 LTotXX=    48528660 LenRXX=    97827436
 LTotAB=    49298776 MaxLAS=    72182880 LenRXY=           0
 NonZer=   146356096 LenScr=   220395520 LnRSAI=    72182880
 LnScr1=   109029376 LExtra=           0 Total=    499435212
 MaxDsk=          -1 SrtSym=           T ITran=            4
 DoSDTr:  NPSUse=  2
 JobTyp=0 Pass  1:  I=   1 to  16.
 (rs|ai) integrals will be sorted in core.
 Complete sort for first half transformation.
 First half transformation complete.
 Begin second half transformation for I=  10.
 Complete sort for second half transformation.
 Second half transformation complete.
 SymMOI:  orbitals are not symmetric.
 Spin components of T(2) and E(2):
     alpha-alpha T2 =       0.2549067387D-01 E2=     -0.9839575067D-01
     alpha-beta  T2 =       0.1412050037D+00 E2=     -0.5528363018D+00
     beta-beta   T2 =       0.2549067387D-01 E2=     -0.9839575067D-01
 ANorm=    0.1091872864D+01
 E2 =    -0.7496278032D+00 EUMP2 =    -0.29036373250807D+04
 Leave Link  804 at Fri Dec 13 01:19:00 2019, MaxMem=  268435456 cpu:      41.0
 (Enter /home/matheus/.gaussian/g09/l913.exe)
 CIDS:  MDV=   268435456.
 Frozen-core window:  NFC=  11 NFV=   0.
 IFCWin=0 IBDFC=1 NFBD=     0     0 NFCmp=     0     0 NFFFC=     0     0
 Using DD3R+UMP44R for 1st iteration, S=T.
 Using DD4RQ for 2nd and later iterations.
 Would need an additional       431206676 words for in-memory AO integral storage.
 MP4(SDTQ)
 =========
 DD1Dir will call FoFDir   1 times, MxPair=       272
 NAB=   136 NAA=     0 NBB=     0 NumPrc=  2.
 Integrals replicated using symmetry in FoFDir.
 MinBra= 0 MaxBra= 3 Meth= 1.
 IRaf=       0 NMat= 272 IRICut=     340 DoRegI=T DoRafI=T ISym2E= 2 JSym2E=2.
 MP4(D)= -0.14964871D-01
 MP4(S)= -0.62744126D-02
 MP4(R+Q)=  0.14962563D-01
 T4(AAA)= -0.98290007D-03
 T4(AAB)= -0.13782432D-01
 Time for triples=     1347.11 seconds.
 MP4(T)=   -0.29530665D-01
 E3=       -0.12028053D-01        EUMP3=      -0.29036493531D+04
 E4(DQ)=   -0.23078069D-05        UMP4(DQ)=   -0.29036493554D+04
 E4(SDQ)=  -0.62767204D-02        UMP4(SDQ)=  -0.29036556299D+04
 E4(SDTQ)= -0.35807385D-01        UMP4(SDTQ)= -0.29036851605D+04
 VARIATIONAL ENERGIES WITH THE FIRST-ORDER WAVEFUNCTION:
 E(VAR1)=  -0.29035265704D+04     E(CISD,4)=  -0.29035265242D+04
 Largest amplitude= 1.75D-02
 Leave Link  913 at Fri Dec 13 01:31:17 2019, MaxMem=  268435456 cpu:    1430.1
 (Enter /home/matheus/.gaussian/g09/l108.exe)
 Scan completed.

 Summary of the potential surface scan:
   N      R1          SCF          MP2          MP3         MP4DQ       MP4SDQ       MP4SDTQ  
 ----  ---------  -----------  -----------  -----------  -----------  -----------  -----------
    1     3.0000  -2902.87946  -2903.63623  -2903.64745  -2903.64702  -2903.65349  -2903.68397
    2     3.1000  -2902.88194  -2903.63761  -2903.64898  -2903.64862  -2903.65506  -2903.68540
    3     3.2000  -2902.88370  -2903.63843  -2903.64993  -2903.64962  -2903.65604  -2903.68625
    4     3.3000  -2902.88494  -2903.63888  -2903.65047  -2903.65021  -2903.65661  -2903.68672
    5     3.4000  -2902.88582  -2903.63907  -2903.65073  -2903.65052  -2903.65691  -2903.68692
    6     3.5000  -2902.88643  -2903.63909  -2903.65082  -2903.65065  -2903.65701  -2903.68695
    7     3.6000  -2902.88685  -2903.63901  -2903.65079  -2903.65065  -2903.65700  -2903.68687
    8     3.7000  -2902.88714  -2903.63887  -2903.65070  -2903.65058  -2903.65692  -2903.68673
    9     3.8000  -2902.88734  -2903.63871  -2903.65057  -2903.65047  -2903.65680  -2903.68656
   10     3.9000  -2902.88747  -2903.63853  -2903.65042  -2903.65035  -2903.65667  -2903.68639
   11     4.0000  -2902.88756  -2903.63836  -2903.65027  -2903.65021  -2903.65653  -2903.68621
   12     4.1000  -2902.88762  -2903.63820  -2903.65013  -2903.65009  -2903.65639  -2903.68605
   13     4.2000  -2902.88765  -2903.63805  -2903.65000  -2903.64997  -2903.65627  -2903.68590
   14     4.3000  -2902.88768  -2903.63792  -2903.64989  -2903.64986  -2903.65615  -2903.68576
   15     4.4000  -2902.88769  -2903.63780  -2903.64978  -2903.64976  -2903.65605  -2903.68564
   16     4.5000  -2902.88770  -2903.63770  -2903.64969  -2903.64967  -2903.65596  -2903.68554
   17     4.6000  -2902.88770  -2903.63760  -2903.64960  -2903.64959  -2903.65588  -2903.68544
   18     4.7000  -2902.88770  -2903.63752  -2903.64953  -2903.64952  -2903.65580  -2903.68536
   19     4.8000  -2902.88770  -2903.63745  -2903.64946  -2903.64946  -2903.65574  -2903.68528
   20     4.9000  -2902.88770  -2903.63738  -2903.64941  -2903.64941  -2903.65568  -2903.68522
   21     5.0000  -2902.88770  -2903.63733  -2903.64935  -2903.64936  -2903.65563  -2903.68516
 ----  ---------  -----------  -----------  -----------  -----------  -----------  -----------
  
 Leave Link  108 at Fri Dec 13 01:31:18 2019, MaxMem=  268435456 cpu:       0.3
 (Enter /home/matheus/.gaussian/g09/l9999.exe)
 1\1\GINC-REDGIANT\Scan\RMP4SDTQ-FC\Aug-CC-pVTZ\H2Kr1O2\ROOT\13-Dec-201
 9\1\\#p mp4/aug-cc-PVTz int=ultrafine Scan\\PTCC\\0,1\O,0,0.,0.,0.725\
 O,0,0.,0.,-0.725\H,0,-0.795635374,-0.4593602974,1.0235104166\H,0,0.,0.
 9187205947,-1.0235104166\Kr,0,0.,R1,0.\\R1=3.,s,20,0.1\\Version=EM64L-
 G09RevC.01\State=1-A\HF=-2902.8794647,-2902.8819427,-2902.8837021,-290
 2.8849448,-2902.8858179,-2902.8864276,-2902.8868503,-2902.8871409,-290
 2.8873386,-2902.8874714,-2902.8875592,-2902.8876163,-2902.8876528,-290
 2.8876754,-2902.887689,-2902.8876966,-2902.8877002,-2902.8877013,-2902
 .8877007,-2902.8876992,-2902.8876973\MP2=-2903.6362293,-2903.6376086,-
 2903.638433,-2903.6388768,-2903.6390654,-2903.6390885,-2903.6390095,-2
 903.6388723,-2903.6387068,-2903.6385324,-2903.6383613,-2903.6382005,-2
 903.6380531,-2903.6379204,-2903.637802,-2903.6376968,-2903.6376036,-29
 03.6375209,-2903.6374476,-2903.6373826,-2903.6373251\MP3=-2903.6474533
 ,-2903.6489846,-2903.6499291,-2903.6504685,-2903.6507338,-2903.6508189
 ,-2903.6507907,-2903.6506956,-2903.6505652,-2903.6504203,-2903.6502741
 ,-2903.6501343,-2903.6500048,-2903.6498873,-2903.6497818,-2903.6496878
 ,-2903.6496041,-2903.6495297,-2903.6494637,-2903.6494051,-2903.6493531
 \MP4D=-2903.6624311,-2903.663961,-2903.6649047,-2903.6654435,-2903.665
 7082,-2903.6657927,-2903.6657637,-2903.6656677,-2903.6655365,-2903.665
 3909,-2903.665244,-2903.6651035,-2903.6649734,-2903.6648554,-2903.6647
 494,-2903.6646548,-2903.6645707,-2903.6644958,-2903.6644293,-2903.6643
 703,-2903.664318\MP4DQ=-2903.647018,-2903.6486185,-2903.649623,-2903.6
 502139,-2903.6505232,-2903.6506456,-2903.6506487,-2903.65058,-2903.650
 4716,-2903.6503452,-2903.6502143,-2903.6500871,-2903.6499681,-2903.649
 8593,-2903.649761,-2903.6496728,-2903.649594,-2903.6495237,-2903.64946
 09,-2903.6494051,-2903.6493554\MP4SDQ=-2903.6534927,-2903.6550649,-290
 3.656045,-2903.6566147,-2903.6569055,-2903.6570117,-2903.6570008,-2903
 .6569198,-2903.6568009,-2903.6566652,-2903.6565264,-2903.6563924,-2903
 .6562676,-2903.6561537,-2903.6560511,-2903.6559593,-2903.6558773,-2903
 .6558042,-2903.6557391,-2903.6556812,-2903.6556299\MP4SDTQ=-2903.68397
 18,-2903.6853982,-2903.6862538,-2903.6867171,-2903.6869168,-2903.68694
 51,-2903.6868675,-2903.6867296,-2903.6865623,-2903.6863857,-2903.68621
 22,-2903.6860489,-2903.6858993,-2903.6857645,-2903.6856442,-2903.68553
 74,-2903.6854427,-2903.6853588,-2903.6852845,-2903.6852187,-2903.68516
 05\RMSD=5.068e-09,6.195e-09,4.774e-09,3.451e-09,2.789e-09,2.583e-09,9.
 296e-09,7.899e-09,7.833e-09,2.998e-09,8.657e-09,7.257e-09,6.603e-09,6.
 294e-09,6.191e-09,6.179e-09,5.907e-09,5.163e-09,4.328e-09,3.695e-09,3.
 260e-09\PG=C01 [X(H2Kr1O2)]\\@


 KEEP CLOSE TO NATURES HEART, YOURSELF;
 AND BREAK CLEAR AWAY, ONCE IN A WHILE, AND
 CLIMB A MOUNTAIN OR SPEND A WEEK IN THE
 WOODS.  WASH YOUR SPIRIT CLEAN...
                                         -- JOHN MUIR
 Job cpu time:  0 days  8 hours 56 minutes 25.4 seconds.
 File lengths (MBytes):  RWF=   3955 Int=      0 D2E=      0 Chk=      4 Scr=      1
 Normal termination of Gaussian 09 at Fri Dec 13 01:31:18 2019.
