 Entering Gaussian System, Link 0=g09
 Input=Inputs-MP4/H2O2-Kr_0.com
 Output=Logs-MP4/H2O2-Kr_inf.log
 Initial command:
 /home/matheus/.gaussian/g09/l1.exe /home/matheus/.gaussian/g09/scratch/Gau-27233.inp -scrdir=/home/matheus/.gaussian/g09/scratch/
 Entering Link 1 = /home/matheus/.gaussian/g09/l1.exe PID=     27235.
  
 Copyright (c) 1988,1990,1992,1993,1995,1998,2003,2009,2011,
            Gaussian, Inc.  All Rights Reserved.
  
 This is part of the Gaussian(R) 09 program.  It is based on
 the Gaussian(R) 03 system (copyright 2003, Gaussian, Inc.),
 the Gaussian(R) 98 system (copyright 1998, Gaussian, Inc.),
 the Gaussian(R) 94 system (copyright 1995, Gaussian, Inc.),
 the Gaussian 92(TM) system (copyright 1992, Gaussian, Inc.),
 the Gaussian 90(TM) system (copyright 1990, Gaussian, Inc.),
 the Gaussian 88(TM) system (copyright 1988, Gaussian, Inc.),
 the Gaussian 86(TM) system (copyright 1986, Carnegie Mellon
 University), and the Gaussian 82(TM) system (copyright 1983,
 Carnegie Mellon University). Gaussian is a federally registered
 trademark of Gaussian, Inc.
  
 This software contains proprietary and confidential information,
 including trade secrets, belonging to Gaussian, Inc.
  
 This software is provided under written license and may be
 used, copied, transmitted, or stored only in accord with that
 written license.
  
 The following legend is applicable only to US Government
 contracts under FAR:
  
                    RESTRICTED RIGHTS LEGEND
  
 Use, reproduction and disclosure by the US Government is
 subject to restrictions as set forth in subparagraphs (a)
 and (c) of the Commercial Computer Software - Restricted
 Rights clause in FAR 52.227-19.
  
 Gaussian, Inc.
 340 Quinnipiac St., Bldg. 40, Wallingford CT 06492
  
  
 ---------------------------------------------------------------
 Warning -- This program may not be used in any manner that
 competes with the business of Gaussian, Inc. or will provide
 assistance to any competitor of Gaussian, Inc.  The licensee
 of this program is prohibited from giving any competitor of
 Gaussian, Inc. access to this program.  By using this program,
 the user acknowledges that Gaussian, Inc. is engaged in the
 business of creating and licensing software in the field of
 computational chemistry and represents and warrants to the
 licensee that it is not a competitor of Gaussian, Inc. and that
 it will not use this program in any manner prohibited above.
 ---------------------------------------------------------------
  

 Cite this work as:
 Gaussian 09, Revision C.01,
 M. J. Frisch, G. W. Trucks, H. B. Schlegel, G. E. Scuseria, 
 M. A. Robb, J. R. Cheeseman, G. Scalmani, V. Barone, B. Mennucci, 
 G. A. Petersson, H. Nakatsuji, M. Caricato, X. Li, H. P. Hratchian, 
 A. F. Izmaylov, J. Bloino, G. Zheng, J. L. Sonnenberg, M. Hada, 
 M. Ehara, K. Toyota, R. Fukuda, J. Hasegawa, M. Ishida, T. Nakajima, 
 Y. Honda, O. Kitao, H. Nakai, T. Vreven, J. A. Montgomery, Jr., 
 J. E. Peralta, F. Ogliaro, M. Bearpark, J. J. Heyd, E. Brothers, 
 K. N. Kudin, V. N. Staroverov, T. Keith, R. Kobayashi, J. Normand, 
 K. Raghavachari, A. Rendell, J. C. Burant, S. S. Iyengar, J. Tomasi, 
 M. Cossi, N. Rega, J. M. Millam, M. Klene, J. E. Knox, J. B. Cross, 
 V. Bakken, C. Adamo, J. Jaramillo, R. Gomperts, R. E. Stratmann, 
 O. Yazyev, A. J. Austin, R. Cammi, C. Pomelli, J. W. Ochterski, 
 R. L. Martin, K. Morokuma, V. G. Zakrzewski, G. A. Voth, 
 P. Salvador, J. J. Dannenberg, S. Dapprich, A. D. Daniels, 
 O. Farkas, J. B. Foresman, J. V. Ortiz, J. Cioslowski, 
 and D. J. Fox, Gaussian, Inc., Wallingford CT, 2010.
 
 ******************************************
 Gaussian 09:  EM64L-G09RevC.01 23-Sep-2011
                12-Mar-2020 
 ******************************************
 %mem=8GB
 %nproc=8
 Will use up to    8 processors via shared memory.
 --------------------------------
 #p mp4/aug-cc-PVTz int=ultrafine
 --------------------------------
 1/38=1/1;
 2/12=2,17=6,18=5,40=1/2;
 3/5=16,6=1,7=10,11=9,16=1,25=1,30=1,75=-5/1,2,3;
 4//1;
 5/5=2,38=5/2;
 8/6=4,9=120000,10=1/1,4;
 9/5=5/13;
 6/7=2,8=2,9=2,10=2/1;
 99/5=1,9=1/99;
 Leave Link    1 at Thu Mar 12 22:00:59 2020, MaxMem= 1073741824 cpu:       0.1
 (Enter /home/matheus/.gaussian/g09/l101.exe)
 ----
 PTCC
 ----
 Charge =  0 Multiplicity = 1
 Symbolic Z-Matrix:
 O                     0.        0.        0.725 
 O                     0.        0.       -0.725 
 H                     0.        0.91872   1.02351 
 H                     0.        0.91872  -1.02351 
 Kr                    0.       R1        0. 
       Variables:
  R1                   15.                       
 
 NAtoms=      5 NQM=        0 NQMF=       0 NMMI=      5 NMMIF=      0
                NMic=       0 NMicF=      0.
                    Isotopes and Nuclear Properties:
 (Nuclear quadrupole moments (NQMom) in fm**2, nuclear magnetic moments (NMagM)
  in nuclear magnetons)

  Atom         1           2           3           4           5
 IAtWgt=          16          16           1           1          84
 AtmWgt=  15.9949146  15.9949146   1.0078250   1.0078250  83.9115064
 NucSpn=           0           0           1           1           0
 AtZEff=   0.0000000   0.0000000   0.0000000   0.0000000   0.0000000
 NQMom=    0.0000000   0.0000000   0.0000000   0.0000000   0.0000000
 NMagM=    0.0000000   0.0000000   2.7928460   2.7928460   0.0000000
 Leave Link  101 at Thu Mar 12 22:00:59 2020, MaxMem= 1073741824 cpu:       0.4
 (Enter /home/matheus/.gaussian/g09/l202.exe)
                          Input orientation:                          
 ---------------------------------------------------------------------
 Center     Atomic      Atomic             Coordinates (Angstroms)
 Number     Number       Type             X           Y           Z
 ---------------------------------------------------------------------
      1          8           0        0.000000    0.000000    0.725000
      2          8           0        0.000000    0.000000   -0.725000
      3          1           0        0.000000    0.918721    1.023510
      4          1           0        0.000000    0.918721   -1.023510
      5         36           0        0.000000   15.000000    0.000000
 ---------------------------------------------------------------------
                    Distance matrix (angstroms):
                    1          2          3          4          5
     1  O    0.000000
     2  O    1.450000   0.000000
     3  H    0.966000   1.975180   0.000000
     4  H    1.975180   0.966000   2.047021   0.000000
     5  Kr  15.017511  15.017511  14.118428  14.118428   0.000000
 Stoichiometry    H2KrO2
 Framework group  C2V[C2(Kr),SGV(H2O2)]
 Deg. of freedom     4
 Full point group                 C2V     NOp   4
 Largest Abelian subgroup         C2V     NOp   4
 Largest concise Abelian subgroup C2      NOp   2
                         Standard orientation:                         
 ---------------------------------------------------------------------
 Center     Atomic      Atomic             Coordinates (Angstroms)
 Number     Number       Type             X           Y           Z
 ---------------------------------------------------------------------
      1          8           0        0.000000    0.725000  -10.034027
      2          8           0        0.000000   -0.725000  -10.034027
      3          1           0        0.000000    1.023510   -9.115306
      4          1           0        0.000000   -1.023510   -9.115306
      5         36           0        0.000000    0.000000    4.965973
 ---------------------------------------------------------------------
 Rotational constants (GHZ):     26.7026195      0.0934698      0.0931437
 Leave Link  202 at Thu Mar 12 22:00:59 2020, MaxMem= 1073741824 cpu:       0.1
 (Enter /home/matheus/.gaussian/g09/l301.exe)
 Standard basis: Aug-CC-pVTZ (5D, 7F)
 Ernie: Thresh=  0.10000D-02 Tol=  0.10000D-05 Strict=F.
 Ernie:  38 primitive shells out of 205 were deleted.
 There are    71 symmetry adapted basis functions of A1  symmetry.
 There are    29 symmetry adapted basis functions of A2  symmetry.
 There are    37 symmetry adapted basis functions of B1  symmetry.
 There are    60 symmetry adapted basis functions of B2  symmetry.
 Integral buffers will be    131072 words long.
 Raffenetti 1 integral format.
 Two-electron integral symmetry is turned on.
   197 basis functions,   415 primitive gaussians,   229 cartesian basis functions
    27 alpha electrons       27 beta electrons
       nuclear repulsion energy        59.6621178727 Hartrees.
 IExCor=    0 DFT=F Ex=HF Corr=None ExCW=0 ScaHFX=  1.000000
 ScaDFX=  1.000000  1.000000  1.000000  1.000000 ScalE2=  1.000000  1.000000
 IRadAn=      5 IRanWt=     -1 IRanGd=            0 ICorTp=0
 NAtoms=    5 NActive=    5 NUniq=    3 SFac= 2.78D+00 NAtFMM=   60 NAOKFM=F Big=F
 Leave Link  301 at Thu Mar 12 22:00:59 2020, MaxMem= 1073741824 cpu:       0.2
 (Enter /home/matheus/.gaussian/g09/l302.exe)
 NPDir=0 NMtPBC=     1 NCelOv=     1 NCel=       1 NClECP=     1 NCelD=      1
         NCelK=      1 NCelE2=     1 NClLst=     1 CellRange=     0.0.
 One-electron integrals computed using PRISM.
 One-electron integral symmetry used in STVInt
 NBasis=   197 RedAO= T  NBF=    71    29    37    60
 NBsUse=   197 1.00D-06 NBFU=    71    29    37    60
 Leave Link  302 at Thu Mar 12 22:00:59 2020, MaxMem= 1073741824 cpu:       1.1
 (Enter /home/matheus/.gaussian/g09/l303.exe)
 DipDrv:  MaxL=1.
 Leave Link  303 at Thu Mar 12 22:00:59 2020, MaxMem= 1073741824 cpu:       0.2
 (Enter /home/matheus/.gaussian/g09/l401.exe)
 Harris functional with IExCor=  205 diagonalized for initial guess.
 ExpMin= 2.53D-02 ExpMax= 1.17D+07 ExpMxC= 1.33D+04 IAcc=3 IRadAn=         5 AccDes= 0.00D+00
 HarFok:  IExCor=  205 AccDes= 0.00D+00 IRadAn=         5 IDoV= 1
 ScaDFX=  1.000000  1.000000  1.000000  1.000000
 FoFCou: FMM=F IPFlag=           0 FMFlag=      100000 FMFlg1=           0
         NFxFlg=           0 DoJE=T BraDBF=F KetDBF=T FulRan=T
         Omega=  0.000000  0.000000  1.000000  0.000000  0.000000 ICntrl=     500 IOpCl=  0
         NMat0=    1 NMatS0=    1 NMatT0=    0 NMatD0=    1 NMtDS0=    0 NMtDT0=    0
         I1Cent=           4 NGrid=           0.
 Petite list used in FoFCou.
 DSYEVD returned Info=         143 IAlg= 4 N=    71 NDim=   197 NE2=     5449925 trying DSYEV.
 Harris En= -2901.93021066563    
 Initial guess orbital symmetries:
       Occupied  (A1) (A1) (A1) (B1) (B2) (B2) (A1) (A1) (B1) (B2)
                 (A1) (A2) (B1) (B2) (A1) (A1) (A1) (B2) (A1) (A1)
                 (A1) (B1) (B2) (B1) (B2) (A1) (A2)
       Virtual   (B2) (A1) (A1) (B2) (A1) (B2) (B1) (A1) (B1) (A1)
                 (B2) (A1) (A2) (B1) (B2) (A1) (B2) (A1) (A2) (B1)
                 (A1) (B2) (A1) (A2) (B2) (A1) (B2) (B2) (A1) (B1)
                 (B2) (A1) (A1) (B1) (B1) (A1) (B2) (A1) (A2) (A1)
                 (B1) (B2) (A1) (A2) (B1) (A2) (B2) (A1) (B2) (A1)
                 (A1) (B1) (B1) (A1) (B2) (B2) (B1) (A2) (A1) (B1)
                 (A1) (B2) (A2) (B2) (B2) (A1) (A2) (B2) (A2) (A1)
                 (B2) (B1) (A1) (B2) (A2) (A1) (B2) (B1) (A1) (A1)
                 (B2) (B1) (A1) (A2) (B1) (B2) (A1) (B2) (B1) (A1)
                 (A2) (A2) (A1) (B2) (B1) (A1) (A1) (B2) (B2) (A1)
                 (B1) (B1) (A1) (B2) (B2) (B1) (A2) (A1) (B2) (B1)
                 (B2) (A2) (A2) (A1) (A1) (B2) (B2) (A2) (B2) (A1)
                 (A1) (B1) (B2) (A1) (B1) (A2) (B1) (A2) (A1) (B2)
                 (A2) (A1) (A1) (B2) (B2) (A1) (A1) (B1) (B2) (B2)
                 (A2) (B2) (A1) (B1) (A1) (B2) (B1) (A1) (A2) (B2)
                 (B1) (A1) (A1) (A2) (B1) (B1) (B2) (A2) (A2) (A1)
                 (B2) (A2) (A1) (B2) (B2) (A1) (B2) (B2) (A1) (B2)
 The electronic state of the initial guess is 1-A1.
 Leave Link  401 at Thu Mar 12 22:00:59 2020, MaxMem= 1073741824 cpu:       1.2
 (Enter /home/matheus/.gaussian/g09/l502.exe)
 Closed shell SCF:
 Requested convergence on RMS density matrix=1.00D-08 within 128 cycles.
 Requested convergence on MAX density matrix=1.00D-06.
 Requested convergence on             energy=1.00D-06.
 No special actions if energy rises.
 Using DIIS extrapolation, IDIIS=  1040.
 Integral symmetry usage will be decided dynamically.
 Keep R1 ints in memory in canonical form, NReq=353042018.
 IEnd=      179339 IEndB=      179339 NGot=  1073741824 MDV=   726852488
 LenX=   726852488 LenY=   726799606
 Symmetry not used in FoFDir.
 MinBra= 0 MaxBra= 3 Meth= 1.
 IRaf=       0 NMat=   1 IRICut=       1 DoRegI=T DoRafI=F ISym2E= 0 JSym2E=0.

 Cycle   1  Pass 1  IDiag  1:
 E= -2902.75727915750    
 DIIS: error= 1.20D-01 at cycle   1 NSaved=   1.
 NSaved= 1 IEnMin= 1 EnMin= -2902.75727915750     IErMin= 1 ErrMin= 1.20D-01
 ErrMax= 1.20D-01 EMaxC= 1.00D-01 BMatC= 6.71D-01 BMatP= 6.71D-01
 IDIUse=3 WtCom= 0.00D+00 WtEn= 1.00D+00
 Coeff-Com:  0.100D+01
 Coeff-En:   0.100D+01
 Coeff:      0.100D+01
 Gap=     0.469 Goal=   None    Shift=    0.000
 GapD=    0.469 DampG=2.000 DampE=0.250 DampFc=0.5000 IDamp=-1.
 Damping current iteration by 5.00D-01
 RMSDP=1.89D-03 MaxDP=1.34D-01              OVMax= 6.47D-02

 Cycle   2  Pass 1  IDiag  1:
 E= -2902.82214704088     Delta-E=       -0.064867883380 Rises=F Damp=T
 DIIS: error= 5.54D-02 at cycle   2 NSaved=   2.
 NSaved= 2 IEnMin= 2 EnMin= -2902.82214704088     IErMin= 2 ErrMin= 5.54D-02
 ErrMax= 5.54D-02 EMaxC= 1.00D-01 BMatC= 1.26D-01 BMatP= 6.71D-01
 IDIUse=3 WtCom= 4.46D-01 WtEn= 5.54D-01
 Coeff-Com: -0.681D+00 0.168D+01
 Coeff-En:   0.000D+00 0.100D+01
 Coeff:     -0.303D+00 0.130D+01
 Gap=     0.488 Goal=   None    Shift=    0.000
 RMSDP=7.73D-04 MaxDP=3.92D-02 DE=-6.49D-02 OVMax= 2.04D-02

 Cycle   3  Pass 1  IDiag  1:
 E= -2902.87953174892     Delta-E=       -0.057384708040 Rises=F Damp=F
 DIIS: error= 1.92D-03 at cycle   3 NSaved=   3.
 NSaved= 3 IEnMin= 3 EnMin= -2902.87953174892     IErMin= 3 ErrMin= 1.92D-03
 ErrMax= 1.92D-03 EMaxC= 1.00D-01 BMatC= 5.60D-04 BMatP= 1.26D-01
 IDIUse=3 WtCom= 9.81D-01 WtEn= 1.92D-02
 Coeff-Com:  0.774D-01-0.162D+00 0.108D+01
 Coeff-En:   0.000D+00 0.000D+00 0.100D+01
 Coeff:      0.759D-01-0.159D+00 0.108D+01
 Gap=     0.483 Goal=   None    Shift=    0.000
 RMSDP=8.83D-05 MaxDP=4.77D-03 DE=-5.74D-02 OVMax= 5.06D-03

 Cycle   4  Pass 1  IDiag  1:
 E= -2902.87980913330     Delta-E=       -0.000277384378 Rises=F Damp=F
 DIIS: error= 9.08D-04 at cycle   4 NSaved=   4.
 NSaved= 4 IEnMin= 4 EnMin= -2902.87980913330     IErMin= 4 ErrMin= 9.08D-04
 ErrMax= 9.08D-04 EMaxC= 1.00D-01 BMatC= 5.91D-05 BMatP= 5.60D-04
 IDIUse=3 WtCom= 9.91D-01 WtEn= 9.08D-03
 Coeff-Com:  0.317D-01-0.728D-01 0.226D+00 0.815D+00
 Coeff-En:   0.000D+00 0.000D+00 0.000D+00 0.100D+01
 Coeff:      0.314D-01-0.722D-01 0.224D+00 0.817D+00
 Gap=     0.488 Goal=   None    Shift=    0.000
 RMSDP=2.19D-05 MaxDP=7.68D-04 DE=-2.77D-04 OVMax= 1.88D-03

 Cycle   5  Pass 1  IDiag  1:
 E= -2902.87985467597     Delta-E=       -0.000045542678 Rises=F Damp=F
 DIIS: error= 1.87D-04 at cycle   5 NSaved=   5.
 NSaved= 5 IEnMin= 5 EnMin= -2902.87985467597     IErMin= 5 ErrMin= 1.87D-04
 ErrMax= 1.87D-04 EMaxC= 1.00D-01 BMatC= 3.58D-06 BMatP= 5.91D-05
 IDIUse=3 WtCom= 9.98D-01 WtEn= 1.87D-03
 Coeff-Com: -0.734D-02 0.164D-01-0.983D-01-0.388D-01 0.113D+01
 Coeff-En:   0.000D+00 0.000D+00 0.000D+00 0.000D+00 0.100D+01
 Coeff:     -0.733D-02 0.163D-01-0.981D-01-0.387D-01 0.113D+01
 Gap=     0.488 Goal=   None    Shift=    0.000
 RMSDP=1.14D-05 MaxDP=3.76D-04 DE=-4.55D-05 OVMax= 9.85D-04

 Cycle   6  Pass 1  IDiag  1:
 E= -2902.87986060049     Delta-E=       -0.000005924517 Rises=F Damp=F
 DIIS: error= 5.55D-05 at cycle   6 NSaved=   6.
 NSaved= 6 IEnMin= 6 EnMin= -2902.87986060049     IErMin= 6 ErrMin= 5.55D-05
 ErrMax= 5.55D-05 EMaxC= 1.00D-01 BMatC= 2.11D-07 BMatP= 3.58D-06
 IDIUse=1 WtCom= 1.00D+00 WtEn= 0.00D+00
 Coeff-Com: -0.188D-02 0.414D-02-0.826D-02-0.498D-01-0.629D-01 0.112D+01
 Coeff:     -0.188D-02 0.414D-02-0.826D-02-0.498D-01-0.629D-01 0.112D+01
 Gap=     0.488 Goal=   None    Shift=    0.000
 RMSDP=3.39D-06 MaxDP=1.08D-04 DE=-5.92D-06 OVMax= 3.21D-04

 Cycle   7  Pass 1  IDiag  1:
 E= -2902.87986106895     Delta-E=       -0.000000468462 Rises=F Damp=F
 DIIS: error= 1.50D-05 at cycle   7 NSaved=   7.
 NSaved= 7 IEnMin= 7 EnMin= -2902.87986106895     IErMin= 7 ErrMin= 1.50D-05
 ErrMax= 1.50D-05 EMaxC= 1.00D-01 BMatC= 1.18D-08 BMatP= 2.11D-07
 IDIUse=1 WtCom= 1.00D+00 WtEn= 0.00D+00
 Coeff-Com:  0.638D-03-0.139D-02 0.626D-02 0.828D-02-0.596D-01-0.167D+00
 Coeff-Com:  0.121D+01
 Coeff:      0.638D-03-0.139D-02 0.626D-02 0.828D-02-0.596D-01-0.167D+00
 Coeff:      0.121D+01
 Gap=     0.488 Goal=   None    Shift=    0.000
 RMSDP=1.18D-06 MaxDP=4.18D-05 DE=-4.68D-07 OVMax= 1.16D-04

 Cycle   8  Pass 1  IDiag  1:
 E= -2902.87986110400     Delta-E=       -0.000000035049 Rises=F Damp=F
 DIIS: error= 3.77D-06 at cycle   8 NSaved=   8.
 NSaved= 8 IEnMin= 8 EnMin= -2902.87986110400     IErMin= 8 ErrMin= 3.77D-06
 ErrMax= 3.77D-06 EMaxC= 1.00D-01 BMatC= 7.50D-10 BMatP= 1.18D-08
 IDIUse=1 WtCom= 1.00D+00 WtEn= 0.00D+00
 Coeff-Com: -0.302D-04 0.634D-04-0.100D-02 0.987D-03 0.154D-01-0.162D-01
 Coeff-Com: -0.261D+00 0.126D+01
 Coeff:     -0.302D-04 0.634D-04-0.100D-02 0.987D-03 0.154D-01-0.162D-01
 Coeff:     -0.261D+00 0.126D+01
 Gap=     0.488 Goal=   None    Shift=    0.000
 RMSDP=2.55D-07 MaxDP=5.72D-06 DE=-3.50D-08 OVMax= 3.23D-05

 Cycle   9  Pass 1  IDiag  1:
 E= -2902.87986110636     Delta-E=       -0.000000002358 Rises=F Damp=F
 DIIS: error= 1.58D-06 at cycle   9 NSaved=   9.
 NSaved= 9 IEnMin= 9 EnMin= -2902.87986110636     IErMin= 9 ErrMin= 1.58D-06
 ErrMax= 1.58D-06 EMaxC= 1.00D-01 BMatC= 9.34D-11 BMatP= 7.50D-10
 IDIUse=1 WtCom= 1.00D+00 WtEn= 0.00D+00
 Coeff-Com: -0.571D-04 0.123D-03-0.954D-04-0.144D-02-0.213D-02 0.246D-01
 Coeff-Com:  0.262D-01-0.656D+00 0.161D+01
 Coeff:     -0.571D-04 0.123D-03-0.954D-04-0.144D-02-0.213D-02 0.246D-01
 Coeff:      0.262D-01-0.656D+00 0.161D+01
 Gap=     0.488 Goal=   None    Shift=    0.000
 RMSDP=1.12D-07 MaxDP=2.62D-06 DE=-2.36D-09 OVMax= 1.56D-05

 Cycle  10  Pass 1  IDiag  1:
 E= -2902.87986110671     Delta-E=       -0.000000000351 Rises=F Damp=F
 DIIS: error= 2.85D-07 at cycle  10 NSaved=  10.
 NSaved=10 IEnMin=10 EnMin= -2902.87986110671     IErMin=10 ErrMin= 2.85D-07
 ErrMax= 2.85D-07 EMaxC= 1.00D-01 BMatC= 3.95D-12 BMatP= 9.34D-11
 IDIUse=1 WtCom= 1.00D+00 WtEn= 0.00D+00
 Coeff-Com:  0.233D-04-0.497D-04 0.939D-04 0.459D-03-0.420D-03-0.717D-02
 Coeff-Com:  0.112D-01 0.117D+00-0.485D+00 0.136D+01
 Coeff:      0.233D-04-0.497D-04 0.939D-04 0.459D-03-0.420D-03-0.717D-02
 Coeff:      0.112D-01 0.117D+00-0.485D+00 0.136D+01
 Gap=     0.488 Goal=   None    Shift=    0.000
 RMSDP=2.37D-08 MaxDP=7.42D-07 DE=-3.51D-10 OVMax= 3.14D-06

 Cycle  11  Pass 1  IDiag  1:
 E= -2902.87986110673     Delta-E=       -0.000000000020 Rises=F Damp=F
 DIIS: error= 5.10D-08 at cycle  11 NSaved=  11.
 NSaved=11 IEnMin=11 EnMin= -2902.87986110673     IErMin=11 ErrMin= 5.10D-08
 ErrMax= 5.10D-08 EMaxC= 1.00D-01 BMatC= 1.99D-13 BMatP= 3.95D-12
 IDIUse=1 WtCom= 1.00D+00 WtEn= 0.00D+00
 Coeff-Com: -0.536D-05 0.112D-04-0.274D-04-0.592D-04 0.278D-03 0.471D-03
 Coeff-Com: -0.280D-02-0.898D-02 0.809D-01-0.469D+00 0.140D+01
 Coeff:     -0.536D-05 0.112D-04-0.274D-04-0.592D-04 0.278D-03 0.471D-03
 Coeff:     -0.280D-02-0.898D-02 0.809D-01-0.469D+00 0.140D+01
 Gap=     0.488 Goal=   None    Shift=    0.000
 RMSDP=4.99D-09 MaxDP=1.33D-07 DE=-2.05D-11 OVMax= 5.64D-07

 SCF Done:  E(RHF) =  -2902.87986111     A.U. after   11 cycles
             Convg  =    0.4988D-08             -V/T =  2.0001
 KE= 2.902595660364D+03 PE=-7.060017400148D+03 EE= 1.194879760804D+03
 Leave Link  502 at Thu Mar 12 22:01:07 2020, MaxMem= 1073741824 cpu:      59.1
 (Enter /home/matheus/.gaussian/g09/l801.exe)
 Windowed orbitals will be sorted by symmetry type.
 ExpMin= 2.53D-02 ExpMax= 1.17D+07 ExpMxC= 1.33D+04 IAcc=3 IRadAn=         5 AccDes= 0.00D+00
 HarFok:  IExCor=  205 AccDes= 0.00D+00 IRadAn=         5 IDoV=-2
 ScaDFX=  1.000000  1.000000  1.000000  1.000000
 DSYEVD returned Info=          89 IAlg= 4 N=    59 NDim=    59 NE2=    18196822 trying DSYEV.
 Largest valence mixing into a core orbital is  1.48D-04
 Largest core mixing into a valence orbital is  2.65D-05
 Range of M.O.s used for correlation:    12   197
 NBasis=   197 NAE=    27 NBE=    27 NFC=    11 NFV=     0
 NROrb=    186 NOA=    16 NOB=    16 NVA=   170 NVB=   170

 **** Warning!!: The largest alpha MO coefficient is  0.17412645D+02

 Leave Link  801 at Thu Mar 12 22:01:07 2020, MaxMem= 1073741824 cpu:       0.4
 (Enter /home/matheus/.gaussian/g09/l804.exe)
 Closed-shell transformation, MDV=  1073741824 ITran=4 ISComp=2.
 Semi-Direct transformation.
 ModeAB=           4 MOrb=            16 LenV=    1072715354
 LASXX=     12259514 LTotXX=    12259514 LenRXX=    24734919
 LTotAB=    12475405 MaxLAS=    29143968 LenRXY=           0
 NonZer=    36994433 LenScr=    56254464 LnRSAI=    29143968
 LnScr1=    44476416 LExtra=           0 Total=    154609767
 MaxDsk=          -1 SrtSym=           T ITran=            4
 DoSDTr:  NPSUse=  8
 JobTyp=0 Pass  1:  I=   1 to  16.
 (rs|ai) integrals will be sorted in core.
 Complete sort for first half transformation.
 First half transformation complete.
 Begin second half transformation for I=  10.
 Complete sort for second half transformation.
 Second half transformation complete.
 Spin components of T(2) and E(2):
     alpha-alpha T2 =       0.2555092859D-01 E2=     -0.9838597883D-01
     alpha-beta  T2 =       0.1413692630D+00 E2=     -0.5526818545D+00
     beta-beta   T2 =       0.2555092859D-01 E2=     -0.9838597883D-01
 ANorm=    0.1092003260D+01
 E2 =    -0.7494538121D+00 EUMP2 =    -0.29036293149189D+04
 Leave Link  804 at Thu Mar 12 22:01:10 2020, MaxMem= 1073741824 cpu:      26.7
 (Enter /home/matheus/.gaussian/g09/l913.exe)
 CIDS:  MDV=  1073741824.
 Frozen-core window:  NFC=  11 NFV=   0.
 IFCWin=0 IBDFC=1 NFBD=     0     0 NFCmp=     0     0 NFFFC=     0     0
 Using DD3R+UMP44R for 1st iteration, S=T.
 Using DD4RQ for 2nd and later iterations.
 R2 and R3 integrals will be kept in memory, NReq=   699641945.
 Symmetry not used in FoFDir.
 MinBra= 0 MaxBra= 3 Meth= 1.
 IRaf=       0 NMat=   1 IRICut=       1 DoRegI=T DoRafI=F ISym2E= 0 JSym2E=0.
 MP4(SDTQ)
 =========
 DD1Dir will call FoFMem   1 times, MxPair=       272
 NAB=   136 NAA=     0 NBB=     0.
 MP4(D)= -0.14897567D-01
 MP4(S)= -0.62837744D-02
 MP4(R+Q)=  0.15030346D-01
 IPart=  5 IA=   10   10.34% done.
 IPart=  8 IA=   19   20.11% done.
 IPart=  1 IA=   29   30.31% done.
 IPart=  6 IA=   40   40.72% done.
 IPart=  5 IA=   51   50.30% done.
 IPart=  6 IA=   64   60.52% done.
 IPart=  6 IA=   78   70.22% done.
 IPart=  6 IA=   95   80.16% done.
 IPart=  8 IA=  117   90.04% done.
 Time for triples=      586.96 seconds.
 MP4(T)=   -0.29661529D-01
 E3=       -0.12001457D-01        EUMP3=      -0.29036413164D+04
 E4(DQ)=    0.13277862D-03        UMP4(DQ)=   -0.29036411836D+04
 E4(SDQ)=  -0.61509958D-02        UMP4(SDQ)=  -0.29036474674D+04
 E4(SDTQ)= -0.35812525D-01        UMP4(SDTQ)= -0.29036771289D+04
 VARIATIONAL ENERGIES WITH THE FIRST-ORDER WAVEFUNCTION:
 E(VAR1)=  -0.29035184135D+04     E(CISD,4)=  -0.29035182495D+04
 Largest amplitude= 2.85D-02
 Leave Link  913 at Thu Mar 12 22:02:35 2020, MaxMem= 1073741824 cpu:     677.3
 (Enter /home/matheus/.gaussian/g09/l601.exe)
 Copying SCF densities to generalized density rwf, IOpCl= 0 IROHF=0.

 **********************************************************************

            Population analysis using the SCF density.

 **********************************************************************

 Orbital symmetries:
       Occupied  (A1) (A1) (A1) (B2) (B1) (A1) (B2) (A1) (A1) (B2)
                 (B1) (A1) (B2) (B1) (A2) (A1) (A1) (B2) (A1) (A1)
                 (B1) (A1) (B2) (A1) (B2) (B1) (A2)
       Virtual   (A1) (B2) (A1) (A1) (B2) (B1) (A1) (B2) (B2) (B1)
                 (A1) (A1) (A2) (B1) (B2) (B2) (A1) (A1) (B2) (B1)
                 (A2) (A1) (A1) (A2) (B2) (A1) (B2) (B2) (A1) (B2)
                 (B1) (A1) (B1) (A1) (B2) (B1) (A1) (A1) (A2) (A2)
                 (A1) (B2) (B1) (A2) (A1) (B1) (B2) (A1) (B2) (A1)
                 (A1) (B1) (A1) (B1) (B2) (A2) (B2) (B2) (A1) (B2)
                 (B1) (A2) (A1) (B2) (B1) (A1) (A2) (B2) (A2) (B2)
                 (A1) (B1) (B2) (A1) (A2) (A1) (B2) (B1) (A1) (B2)
                 (A1) (B1) (A1) (A2) (B1) (B2) (A1) (A1) (B2) (B1)
                 (A2) (A1) (B2) (A1) (B2) (B1) (A2) (A1) (B2) (A1)
                 (B1) (B2) (A1) (B2) (B1) (A2) (A1) (B2) (B1) (B1)
                 (B2) (A2) (A2) (A1) (A1) (B2) (B2) (A2) (B2) (A1)
                 (B2) (A1) (B1) (B1) (A1) (B1) (A2) (A1) (A2) (B2)
                 (A2) (A1) (A1) (B2) (B2) (A1) (B1) (A1) (B2) (A2)
                 (B2) (B2) (A1) (B1) (A1) (B2) (B1) (A1) (A2) (B2)
                 (A1) (B1) (A2) (A1) (B1) (B1) (B2) (A2) (A2) (A1)
                 (B2) (A2) (A1) (B2) (B2) (A1) (B2) (B2) (A1) (B2)
 The electronic state is 1-A1.
 Alpha  occ. eigenvalues -- -520.16721 -69.90464 -63.01120 -63.01120 -63.01120
 Alpha  occ. eigenvalues --  -20.63488 -20.63461 -10.85122  -8.33322  -8.33322
 Alpha  occ. eigenvalues --   -8.33322  -3.82698  -3.82698  -3.82698  -3.82698
 Alpha  occ. eigenvalues --   -3.82698  -1.47340  -1.22057  -1.15486  -0.77065
 Alpha  occ. eigenvalues --   -0.63039  -0.59950  -0.58046  -0.52605  -0.52603
 Alpha  occ. eigenvalues --   -0.52603  -0.46245
 Alpha virt. eigenvalues --    0.02572   0.04147   0.10298   0.10412   0.10420
 Alpha virt. eigenvalues --    0.10420   0.12380   0.14028   0.15917   0.16565
 Alpha virt. eigenvalues --    0.17559   0.19333   0.20056   0.24925   0.27715
 Alpha virt. eigenvalues --    0.27967   0.28041   0.30313   0.30315   0.30315
 Alpha virt. eigenvalues --    0.30318   0.30318   0.31005   0.33446   0.36236
 Alpha virt. eigenvalues --    0.40945   0.44248   0.46637   0.55653   0.55660
 Alpha virt. eigenvalues --    0.55660   0.60863   0.67387   0.68753   0.69622
 Alpha virt. eigenvalues --    0.71212   0.73171   0.74297   0.80494   0.83617
 Alpha virt. eigenvalues --    0.84302   0.84302   0.84303   0.84305   0.84305
 Alpha virt. eigenvalues --    0.84632   0.86037   0.86382   0.88874   0.91188
 Alpha virt. eigenvalues --    0.97487   0.98317   0.98455   0.99069   1.00354
 Alpha virt. eigenvalues --    1.00481   1.04033   1.06424   1.14700   1.14700
 Alpha virt. eigenvalues --    1.14700   1.14701   1.14701   1.14703   1.14703
 Alpha virt. eigenvalues --    1.14813   1.16570   1.20198   1.31967   1.38721
 Alpha virt. eigenvalues --    1.41478   1.48301   1.52305   1.53164   1.59814
 Alpha virt. eigenvalues --    1.68541   1.70941   1.90812   1.94598   2.03285
 Alpha virt. eigenvalues --    2.07352   2.10724   2.17353   2.26563   2.31028
 Alpha virt. eigenvalues --    2.32159   2.35270   2.36136   2.36138   2.36138
 Alpha virt. eigenvalues --    2.40568   2.44009   2.46002   2.51563   2.51563
 Alpha virt. eigenvalues --    2.51563   2.51565   2.51565   2.52542   2.55788
 Alpha virt. eigenvalues --    2.59371   2.65668   2.69387   2.69387   2.69387
 Alpha virt. eigenvalues --    2.69387   2.69387   2.69388   2.69388   2.72079
 Alpha virt. eigenvalues --    2.81266   2.84592   2.87593   2.88860   3.06517
 Alpha virt. eigenvalues --    3.08853   3.22082   3.28877   3.30245   3.62449
 Alpha virt. eigenvalues --    3.89680   3.91633   4.07597   4.10025   4.21699
 Alpha virt. eigenvalues --    4.27105   4.29364   4.33389   4.34181   4.36381
 Alpha virt. eigenvalues --    4.48992   4.51847   4.67181   4.75866   4.98095
 Alpha virt. eigenvalues --    5.17580   5.25966   5.26078   5.27196   5.40948
 Alpha virt. eigenvalues --    5.43519   5.87752   6.11089   6.28524   6.37772
 Alpha virt. eigenvalues --    6.39252   6.58166   6.66903   6.79918   6.91278
 Alpha virt. eigenvalues --    7.01001   7.08768   7.10423   7.14743   7.15961
 Alpha virt. eigenvalues --    7.22448   7.23534   7.25840   7.29799   7.35997
 Alpha virt. eigenvalues --    7.42846   7.61372   7.61703   7.67954   7.99050
 Alpha virt. eigenvalues --    8.34614   8.44706   8.54511  14.13320  15.38065
          Condensed to atoms (all electrons):
              1          2          3          4          5
     1  O    8.098068  -0.121414   0.234464   0.030077   0.000000
     2  O   -0.121414   8.098068   0.030077   0.234464   0.000000
     3  H    0.234464   0.030077   0.507587  -0.013322   0.000000
     4  H    0.030077   0.234464  -0.013322   0.507587   0.000000
     5  Kr   0.000000   0.000000   0.000000   0.000000  36.000000
 Mulliken atomic charges:
              1
     1  O   -0.241194
     2  O   -0.241194
     3  H    0.241194
     4  H    0.241194
     5  Kr   0.000000
 Sum of Mulliken atomic charges =   0.00000
 Mulliken charges with hydrogens summed into heavy atoms:
              1
     1  O    0.000000
     2  O    0.000000
     5  Kr   0.000000
 Sum of Mulliken charges with hydrogens summed into heavy atoms =   0.00000
 Electronic spatial extent (au):  <R**2>=           9665.9298
 Charge=              0.0000 electrons
 Dipole moment (field-independent basis, Debye):
    X=              0.0000    Y=              0.0000    Z=              3.2750  Tot=              3.2750
 Quadrupole moment (field-independent basis, Debye-Ang):
   XX=            -30.6149   YY=            -28.1913   ZZ=            -91.7940
   XY=              0.0000   XZ=              0.0000   YZ=              0.0000
 Traceless Quadrupole moment (field-independent basis, Debye-Ang):
   XX=             19.5852   YY=             22.0088   ZZ=            -41.5939
   XY=              0.0000   XZ=              0.0000   YZ=              0.0000
 Octapole moment (field-independent basis, Debye-Ang**2):
  XXX=              0.0000  YYY=              0.0000  ZZZ=            980.1416  XYY=              0.0000
  XXY=              0.0000  XXZ=             40.2427  XZZ=              0.0000  YZZ=              0.0000
  YYZ=             20.2136  XYZ=              0.0000
 Hexadecapole moment (field-independent basis, Debye-Ang**3):
 XXXX=            -28.8942 YYYY=            -62.9467 ZZZZ=         -21022.5916 XXXY=              0.0000
 XXXZ=              0.0000 YYYX=              0.0000 YYYZ=              0.0000 ZZZX=              0.0000
 ZZZY=              0.0000 XXYY=            -17.1977 XXZZ=          -1725.4771 YYZZ=          -1570.4821
 XXYZ=              0.0000 YYXZ=              0.0000 ZZXY=              0.0000
 N-N= 5.966211787272D+01 E-N=-7.060017403139D+03  KE= 2.902595660364D+03
 Symmetry A1   KE= 2.058538517366D+03
 Symmetry A2   KE= 5.313346644363D+01
 Symmetry B1   KE= 3.631509554626D+02
 Symmetry B2   KE= 4.277727210919D+02
 Leave Link  601 at Thu Mar 12 22:02:36 2020, MaxMem= 1073741824 cpu:       0.8
 (Enter /home/matheus/.gaussian/g09/l9999.exe)
 1\1\GINC-REDGIANT\SP\RMP4SDTQ-FC\Aug-CC-pVTZ\H2Kr1O2\ROOT\12-Mar-2020\
 0\\#p mp4/aug-cc-PVTz int=ultrafine\\PTCC\\0,1\O,0,0.,0.,0.725\O,0,0.,
 0.,-0.725\H,0,0.,0.9187205947,1.0235104166\H,0,0.,0.9187205947,-1.0235
 104166\Kr,0,0.,15.,0.\\Version=EM64L-G09RevC.01\State=1-A1\HF=-2902.87
 98611\MP2=-2903.6293149\MP3=-2903.6413164\MP4D=-2903.6562139\MP4DQ=-29
 03.6411836\MP4SDQ=-2903.6474674\MP4SDTQ=-2903.6771289\RMSD=4.988e-09\P
 G=C02V [C2(Kr1),SGV(H2O2)]\\@


 WE HAVE SEEN THAT MAN ON THE AVERAGE DOES NOT LIVE ABOVE
 TWO-AND-TWENTY YEARS.  DURING THESE TWO AND TWENTY
 YEARS HE IS LIABLE TO TWO AND TWENTY THOUSAND EVILS,
 MANY OF WHICH ARE INCURABLE.  YET EVEN IN THIS DREADFUL STATE
 MEN STILL STRUT AND POSE ON THE STAGE OF LIFE.
 THEY MAKE LOVE AT THE RISK OF DESTRUCTION,
 INTRIGUE, CARRY ON WAR, AND FORM PROJECTS, JUST AS IF THEY
 WERE TO LIVE IN LUXURY AND HAPPINESS FOR A THOUSAND
 AGES.

                                              -- VOLTAIRE
 Job cpu time:  0 days  0 hours 12 minutes 48.2 seconds.
 File lengths (MBytes):  RWF=   1200 Int=      0 D2E=      0 Chk=      3 Scr=      1
 Normal termination of Gaussian 09 at Thu Mar 12 22:02:36 2020.
