 Entering Gaussian System, Link 0=g09
 Input=/home/matheus/.ptcc/Inputs/H2O2-Kr_33.com
 Output=/home/matheus/.ptcc/Logs-MP4/H2O2-Kr_33.log
 Initial command:
 /home/matheus/.gaussian/g09/l1.exe /home/matheus/.gaussian/g09/scratch/Gau-3219.inp -scrdir=/home/matheus/.gaussian/g09/scratch/
 Entering Link 1 = /home/matheus/.gaussian/g09/l1.exe PID=      3221.
  
 Copyright (c) 1988,1990,1992,1993,1995,1998,2003,2009,2011,
            Gaussian, Inc.  All Rights Reserved.
  
 This is part of the Gaussian(R) 09 program.  It is based on
 the Gaussian(R) 03 system (copyright 2003, Gaussian, Inc.),
 the Gaussian(R) 98 system (copyright 1998, Gaussian, Inc.),
 the Gaussian(R) 94 system (copyright 1995, Gaussian, Inc.),
 the Gaussian 92(TM) system (copyright 1992, Gaussian, Inc.),
 the Gaussian 90(TM) system (copyright 1990, Gaussian, Inc.),
 the Gaussian 88(TM) system (copyright 1988, Gaussian, Inc.),
 the Gaussian 86(TM) system (copyright 1986, Carnegie Mellon
 University), and the Gaussian 82(TM) system (copyright 1983,
 Carnegie Mellon University). Gaussian is a federally registered
 trademark of Gaussian, Inc.
  
 This software contains proprietary and confidential information,
 including trade secrets, belonging to Gaussian, Inc.
  
 This software is provided under written license and may be
 used, copied, transmitted, or stored only in accord with that
 written license.
  
 The following legend is applicable only to US Government
 contracts under FAR:
  
                    RESTRICTED RIGHTS LEGEND
  
 Use, reproduction and disclosure by the US Government is
 subject to restrictions as set forth in subparagraphs (a)
 and (c) of the Commercial Computer Software - Restricted
 Rights clause in FAR 52.227-19.
  
 Gaussian, Inc.
 340 Quinnipiac St., Bldg. 40, Wallingford CT 06492
  
  
 ---------------------------------------------------------------
 Warning -- This program may not be used in any manner that
 competes with the business of Gaussian, Inc. or will provide
 assistance to any competitor of Gaussian, Inc.  The licensee
 of this program is prohibited from giving any competitor of
 Gaussian, Inc. access to this program.  By using this program,
 the user acknowledges that Gaussian, Inc. is engaged in the
 business of creating and licensing software in the field of
 computational chemistry and represents and warrants to the
 licensee that it is not a competitor of Gaussian, Inc. and that
 it will not use this program in any manner prohibited above.
 ---------------------------------------------------------------
  

 Cite this work as:
 Gaussian 09, Revision C.01,
 M. J. Frisch, G. W. Trucks, H. B. Schlegel, G. E. Scuseria, 
 M. A. Robb, J. R. Cheeseman, G. Scalmani, V. Barone, B. Mennucci, 
 G. A. Petersson, H. Nakatsuji, M. Caricato, X. Li, H. P. Hratchian, 
 A. F. Izmaylov, J. Bloino, G. Zheng, J. L. Sonnenberg, M. Hada, 
 M. Ehara, K. Toyota, R. Fukuda, J. Hasegawa, M. Ishida, T. Nakajima, 
 Y. Honda, O. Kitao, H. Nakai, T. Vreven, J. A. Montgomery, Jr., 
 J. E. Peralta, F. Ogliaro, M. Bearpark, J. J. Heyd, E. Brothers, 
 K. N. Kudin, V. N. Staroverov, T. Keith, R. Kobayashi, J. Normand, 
 K. Raghavachari, A. Rendell, J. C. Burant, S. S. Iyengar, J. Tomasi, 
 M. Cossi, N. Rega, J. M. Millam, M. Klene, J. E. Knox, J. B. Cross, 
 V. Bakken, C. Adamo, J. Jaramillo, R. Gomperts, R. E. Stratmann, 
 O. Yazyev, A. J. Austin, R. Cammi, C. Pomelli, J. W. Ochterski, 
 R. L. Martin, K. Morokuma, V. G. Zakrzewski, G. A. Voth, 
 P. Salvador, J. J. Dannenberg, S. Dapprich, A. D. Daniels, 
 O. Farkas, J. B. Foresman, J. V. Ortiz, J. Cioslowski, 
 and D. J. Fox, Gaussian, Inc., Wallingford CT, 2010.
 
 ******************************************
 Gaussian 09:  EM64L-G09RevC.01 23-Sep-2011
                18-Dec-2019 
 ******************************************
 %mem=2GB
 %nproc=2
 Will use up to    2 processors via shared memory.
 -------------------------------------
 #p mp4/aug-cc-PVTz int=ultrafine Scan
 -------------------------------------
 1/38=1,60=1/1,8;
 2/12=2,17=6,18=5,29=3,40=1/2;
 3/5=16,6=1,7=10,11=9,16=1,25=1,30=1,75=-5/1,2,3;
 4//1;
 5/5=2,38=5/2;
 8/6=4,9=120000,10=1/1,4;
 9/5=5/13;
 6/7=2,8=2,9=2,10=2,18=1/1;
 1/60=1/8(1);
 99/9=1/99;
 2/29=3/2;
 3/5=16,6=1,7=10,11=9,16=1,25=1,30=1,75=-5/1,2,3;
 4/5=5,16=3/1;
 5/5=2,38=5/2;
 8/6=4,9=120000,10=1/1,4;
 9/5=5/13;
 1/60=1/8(-6);
 99/9=1/99;
 Leave Link    1 at Wed Dec 18 15:47:25 2019, MaxMem=  268435456 cpu:       0.0
 (Enter /home/matheus/.gaussian/g09/l101.exe)
 ----
 PTCC
 ----
 Charge =  0 Multiplicity = 1
 Symbolic Z-Matrix:
 O                     0.        0.        0.725 
 O                     0.        0.       -0.725 
 H                    -0.45936   0.79564   1.02351 
 H                     0.        0.91872  -1.02351 
 Kr                    0.       R1        0. 
       Variables:
  R1                    3.     Scan 20    0.1    
 
 NAtoms=      5 NQM=        0 NQMF=       0 NMMI=      5 NMMIF=      0
                NMic=       0 NMicF=      0.
                    Isotopes and Nuclear Properties:
 (Nuclear quadrupole moments (NQMom) in fm**2, nuclear magnetic moments (NMagM)
  in nuclear magnetons)

  Atom         1           2           3           4           5
 IAtWgt=          16          16           1           1          84
 AtmWgt=  15.9949146  15.9949146   1.0078250   1.0078250  83.9115064
 NucSpn=           0           0           1           1           0
 AtZEff=   0.0000000   0.0000000   0.0000000   0.0000000   0.0000000
 NQMom=    0.0000000   0.0000000   0.0000000   0.0000000   0.0000000
 NMagM=    0.0000000   0.0000000   2.7928460   2.7928460   0.0000000
 Leave Link  101 at Wed Dec 18 15:47:25 2019, MaxMem=  268435456 cpu:       0.1
 (Enter /home/matheus/.gaussian/g09/l108.exe)
 Scan the potential surface.
 Variable   Value     No. Steps Step-Size
 -------- ----------- --------- ---------
     1       3.000000      20      0.1000
 A total of     21 points will be computed.
 Leave Link  108 at Wed Dec 18 15:47:25 2019, MaxMem=  268435456 cpu:       0.0
 (Enter /home/matheus/.gaussian/g09/l202.exe)
 ---------------------------------------------------------------------------------------------------
                            Z-MATRIX (ANGSTROMS AND DEGREES)
   CD    Cent   Atom    N1       Length/X        N2       Alpha/Y        N3        Beta/Z          J
 ---------------------------------------------------------------------------------------------------
      1      1  O        0   0.000000          0.000000          0.725000
      2      2  O        0   0.000000          0.000000         -0.725000
      3      3  H        0  -0.459360          0.795635          1.023510
      4      4  H        0   0.000000          0.918721         -1.023510
      5      5  Kr       0   0.000000          3.000000          0.000000
 ---------------------------------------------------------------------------------------------------
                         Z-Matrix orientation:                         
 ---------------------------------------------------------------------
 Center     Atomic      Atomic             Coordinates (Angstroms)
 Number     Number       Type             X           Y           Z
 ---------------------------------------------------------------------
      1          8           0        0.000000    0.000000    0.725000
      2          8           0        0.000000    0.000000   -0.725000
      3          1           0       -0.459360    0.795635    1.023510
      4          1           0        0.000000    0.918721   -1.023510
      5         36           0        0.000000    3.000000    0.000000
 ---------------------------------------------------------------------
                    Distance matrix (angstroms):
                    1          2          3          4          5
     1  O    0.000000
     2  O    1.450000   0.000000
     3  H    0.966000   1.975180   0.000000
     4  H    1.975180   0.966000   2.101537   0.000000
     5  Kr   3.086361   3.086361   2.473420   2.319331   0.000000
 Stoichiometry    H2KrO2
 Framework group  C1[X(H2KrO2)]
 Deg. of freedom     9
 Full point group                 C1      NOp   1
 Largest Abelian subgroup         C1      NOp   1
 Largest concise Abelian subgroup C1      NOp   1
                         Standard orientation:                         
 ---------------------------------------------------------------------
 Center     Atomic      Atomic             Coordinates (Angstroms)
 Number     Number       Type             X           Y           Z
 ---------------------------------------------------------------------
      1          8           0       -2.032679   -0.720517   -0.052579
      2          8           0       -2.030654    0.727985    0.013298
      3          1           0       -1.240025   -1.040895    0.397102
      4          1           0       -1.111532    1.024673    0.031898
      5         36           0        0.968284   -0.001209   -0.003188
 ---------------------------------------------------------------------
 Rotational constants (GHZ):     26.4110984      2.3830252      2.1895357
 Leave Link  202 at Wed Dec 18 15:47:25 2019, MaxMem=  268435456 cpu:       0.0
 (Enter /home/matheus/.gaussian/g09/l301.exe)
 Standard basis: Aug-CC-pVTZ (5D, 7F)
 Ernie: Thresh=  0.10000D-02 Tol=  0.10000D-05 Strict=F.
 Ernie:  38 primitive shells out of 205 were deleted.
 There are   197 symmetry adapted basis functions of A   symmetry.
 Integral buffers will be    131072 words long.
 Raffenetti 1 integral format.
 Two-electron integral symmetry is turned on.
   197 basis functions,   415 primitive gaussians,   229 cartesian basis functions
    27 alpha electrons       27 beta electrons
       nuclear repulsion energy       151.3348661682 Hartrees.
 IExCor=    0 DFT=F Ex=HF Corr=None ExCW=0 ScaHFX=  1.000000
 ScaDFX=  1.000000  1.000000  1.000000  1.000000 ScalE2=  1.000000  1.000000
 IRadAn=      5 IRanWt=     -1 IRanGd=            0 ICorTp=0
 NAtoms=    5 NActive=    5 NUniq=    5 SFac= 1.00D+00 NAtFMM=   60 NAOKFM=F Big=F
 Leave Link  301 at Wed Dec 18 15:47:25 2019, MaxMem=  268435456 cpu:       0.1
 (Enter /home/matheus/.gaussian/g09/l302.exe)
 NPDir=0 NMtPBC=     1 NCelOv=     1 NCel=       1 NClECP=     1 NCelD=      1
         NCelK=      1 NCelE2=     1 NClLst=     1 CellRange=     0.0.
 One-electron integrals computed using PRISM.
 NBasis=   197 RedAO= T  NBF=   197
 NBsUse=   197 1.00D-06 NBFU=   197
 Leave Link  302 at Wed Dec 18 15:47:25 2019, MaxMem=  268435456 cpu:       0.2
 (Enter /home/matheus/.gaussian/g09/l303.exe)
 DipDrv:  MaxL=1.
 Leave Link  303 at Wed Dec 18 15:47:25 2019, MaxMem=  268435456 cpu:       0.1
 (Enter /home/matheus/.gaussian/g09/l401.exe)
 Harris functional with IExCor=  205 diagonalized for initial guess.
 ExpMin= 2.53D-02 ExpMax= 1.17D+07 ExpMxC= 1.33D+04 IAcc=3 IRadAn=         5 AccDes= 0.00D+00
 HarFok:  IExCor=  205 AccDes= 0.00D+00 IRadAn=         5 IDoV= 1
 ScaDFX=  1.000000  1.000000  1.000000  1.000000
 FoFCou: FMM=F IPFlag=           0 FMFlag=      100000 FMFlg1=           0
         NFxFlg=           0 DoJE=T BraDBF=F KetDBF=T FulRan=T
         Omega=  0.000000  0.000000  1.000000  0.000000  0.000000 ICntrl=     500 IOpCl=  0
         NMat0=    1 NMatS0=    1 NMatT0=    0 NMatD0=    1 NMtDS0=    0 NMtDT0=    0
         I1Cent=           4 NGrid=           0.
 Petite list used in FoFCou.
 Harris En= -2901.92578686608    
 Initial guess orbital symmetries:
       Occupied  (A) (A) (A) (A) (A) (A) (A) (A) (A) (A) (A) (A)
                 (A) (A) (A) (A) (A) (A) (A) (A) (A) (A) (A) (A)
                 (A) (A) (A)
       Virtual   (A) (A) (A) (A) (A) (A) (A) (A) (A) (A) (A) (A)
                 (A) (A) (A) (A) (A) (A) (A) (A) (A) (A) (A) (A)
                 (A) (A) (A) (A) (A) (A) (A) (A) (A) (A) (A) (A)
                 (A) (A) (A) (A) (A) (A) (A) (A) (A) (A) (A) (A)
                 (A) (A) (A) (A) (A) (A) (A) (A) (A) (A) (A) (A)
                 (A) (A) (A) (A) (A) (A) (A) (A) (A) (A) (A) (A)
                 (A) (A) (A) (A) (A) (A) (A) (A) (A) (A) (A) (A)
                 (A) (A) (A) (A) (A) (A) (A) (A) (A) (A) (A) (A)
                 (A) (A) (A) (A) (A) (A) (A) (A) (A) (A) (A) (A)
                 (A) (A) (A) (A) (A) (A) (A) (A) (A) (A) (A) (A)
                 (A) (A) (A) (A) (A) (A) (A) (A) (A) (A) (A) (A)
                 (A) (A) (A) (A) (A) (A) (A) (A) (A) (A) (A) (A)
                 (A) (A) (A) (A) (A) (A) (A) (A) (A) (A) (A) (A)
                 (A) (A) (A) (A) (A) (A) (A) (A) (A) (A) (A) (A)
                 (A) (A)
 The electronic state of the initial guess is 1-A.
 Leave Link  401 at Wed Dec 18 15:47:26 2019, MaxMem=  268435456 cpu:       1.3
 (Enter /home/matheus/.gaussian/g09/l502.exe)
 Closed shell SCF:
 Requested convergence on RMS density matrix=1.00D-08 within 128 cycles.
 Requested convergence on MAX density matrix=1.00D-06.
 Requested convergence on             energy=1.00D-06.
 No special actions if energy rises.
 Using DIIS extrapolation, IDIIS=  1040.
 Integral symmetry usage will be decided dynamically.
 IEnd=      178489 IEndB=      178489 NGot=   268435456 MDV=   268326278
 LenX=   268326278 LenY=   268273396
 Fock matrices will be formed incrementally for  20 cycles.

 Cycle   1  Pass 0  IDiag  1:
 FoFCou: FMM=F IPFlag=           0 FMFlag=      100000 FMFlg1=           0
         NFxFlg=           0 DoJE=F BraDBF=F KetDBF=F FulRan=T
         Omega=  0.000000  0.000000  1.000000  0.000000  0.000000 ICntrl=       0 IOpCl=  0
         NMat0=    1 NMatS0=    1 NMatT0=    0 NMatD0=    1 NMtDS0=    0 NMtDT0=    0
         I1Cent=           0 NGrid=           0.
 Symmetry not used in FoFCou.
 E= -2902.74801517485    
 DIIS: error= 6.01D-02 at cycle   1 NSaved=   1.
 NSaved= 1 IEnMin= 1 EnMin= -2902.74801517485     IErMin= 1 ErrMin= 6.01D-02
 ErrMax= 6.01D-02 EMaxC= 1.00D-01 BMatC= 7.04D-01 BMatP= 7.04D-01
 IDIUse=3 WtCom= 3.99D-01 WtEn= 6.01D-01
 Coeff-Com:  0.100D+01
 Coeff-En:   0.100D+01
 Coeff:      0.100D+01
 Gap=     0.684 Goal=   None    Shift=    0.000
 GapD=    0.684 DampG=2.000 DampE=0.500 DampFc=1.0000 IDamp=-1.
 RMSDP=2.30D-03 MaxDP=1.55D-01              OVMax= 5.46D-02

 Cycle   2  Pass 0  IDiag  1:
 RMSU=  1.61D-03    CP:  1.01D+00
 E= -2902.85467346490     Delta-E=       -0.106658290055 Rises=F Damp=F
 DIIS: error= 8.46D-03 at cycle   2 NSaved=   2.
 NSaved= 2 IEnMin= 2 EnMin= -2902.85467346490     IErMin= 2 ErrMin= 8.46D-03
 ErrMax= 8.46D-03 EMaxC= 1.00D-01 BMatC= 4.36D-02 BMatP= 7.04D-01
 IDIUse=3 WtCom= 9.15D-01 WtEn= 8.46D-02
 Coeff-Com:  0.156D+00 0.844D+00
 Coeff-En:   0.000D+00 0.100D+01
 Coeff:      0.143D+00 0.857D+00
 Gap=     0.517 Goal=   None    Shift=    0.000
 RMSDP=8.52D-04 MaxDP=4.40D-02 DE=-1.07D-01 OVMax= 2.46D-02

 Cycle   3  Pass 0  IDiag  1:
 RMSU=  4.68D-04    CP:  1.01D+00  7.74D-01
 E= -2902.86985397361     Delta-E=       -0.015180508706 Rises=F Damp=F
 DIIS: error= 2.26D-03 at cycle   3 NSaved=   3.
 NSaved= 3 IEnMin= 3 EnMin= -2902.86985397361     IErMin= 3 ErrMin= 2.26D-03
 ErrMax= 2.26D-03 EMaxC= 1.00D-01 BMatC= 2.60D-03 BMatP= 4.36D-02
 IDIUse=3 WtCom= 9.77D-01 WtEn= 2.26D-02
 Coeff-Com: -0.563D-02 0.175D+00 0.831D+00
 Coeff-En:   0.000D+00 0.000D+00 0.100D+01
 Coeff:     -0.550D-02 0.171D+00 0.835D+00
 Gap=     0.492 Goal=   None    Shift=    0.000
 RMSDP=1.34D-04 MaxDP=5.14D-03 DE=-1.52D-02 OVMax= 7.90D-03

 Cycle   4  Pass 0  IDiag  1:
 RMSU=  5.07D-05    CP:  1.01D+00  8.06D-01  8.73D-01
 E= -2902.87114026456     Delta-E=       -0.001286290948 Rises=F Damp=F
 DIIS: error= 3.86D-04 at cycle   4 NSaved=   4.
 NSaved= 4 IEnMin= 4 EnMin= -2902.87114026456     IErMin= 4 ErrMin= 3.86D-04
 ErrMax= 3.86D-04 EMaxC= 1.00D-01 BMatC= 5.48D-05 BMatP= 2.60D-03
 IDIUse=3 WtCom= 9.96D-01 WtEn= 3.86D-03
 Coeff-Com: -0.460D-02 0.130D-01 0.161D+00 0.831D+00
 Coeff-En:   0.000D+00 0.000D+00 0.000D+00 0.100D+01
 Coeff:     -0.458D-02 0.130D-01 0.160D+00 0.831D+00
 Gap=     0.497 Goal=   None    Shift=    0.000
 RMSDP=2.41D-05 MaxDP=7.16D-04 DE=-1.29D-03 OVMax= 1.75D-03

 Cycle   5  Pass 0  IDiag  1:
 RMSU=  1.43D-05    CP:  1.01D+00  8.08D-01  8.92D-01  9.58D-01
 E= -2902.87118506425     Delta-E=       -0.000044799687 Rises=F Damp=F
 DIIS: error= 1.45D-04 at cycle   5 NSaved=   5.
 NSaved= 5 IEnMin= 5 EnMin= -2902.87118506425     IErMin= 5 ErrMin= 1.45D-04
 ErrMax= 1.45D-04 EMaxC= 1.00D-01 BMatC= 3.72D-06 BMatP= 5.48D-05
 IDIUse=3 WtCom= 9.99D-01 WtEn= 1.45D-03
 Coeff-Com:  0.866D-03-0.153D-01-0.733D-01-0.515D-03 0.109D+01
 Coeff-En:   0.000D+00 0.000D+00 0.000D+00 0.000D+00 0.100D+01
 Coeff:      0.865D-03-0.153D-01-0.732D-01-0.515D-03 0.109D+01
 Gap=     0.497 Goal=   None    Shift=    0.000
 RMSDP=1.14D-05 MaxDP=3.28D-04 DE=-4.48D-05 OVMax= 7.43D-04

 Cycle   6  Pass 0  IDiag  1:
 RMSU=  5.01D-06    CP:  1.01D+00  8.06D-01  8.89D-01  1.05D+00  1.25D+00
 E= -2902.87119052525     Delta-E=       -0.000005461007 Rises=F Damp=F
 DIIS: error= 2.74D-05 at cycle   6 NSaved=   6.
 NSaved= 6 IEnMin= 6 EnMin= -2902.87119052525     IErMin= 6 ErrMin= 2.74D-05
 ErrMax= 2.74D-05 EMaxC= 1.00D-01 BMatC= 2.08D-07 BMatP= 3.72D-06
 IDIUse=1 WtCom= 1.00D+00 WtEn= 0.00D+00
 Coeff-Com:  0.174D-03 0.386D-03-0.545D-02-0.488D-01-0.500D-01 0.110D+01
 Coeff:      0.174D-03 0.386D-03-0.545D-02-0.488D-01-0.500D-01 0.110D+01
 Gap=     0.497 Goal=   None    Shift=    0.000
 RMSDP=3.35D-06 MaxDP=1.10D-04 DE=-5.46D-06 OVMax= 2.27D-04

 Initial convergence to 1.0D-05 achieved.  Increase integral accuracy.
 Cycle   7  Pass 1  IDiag  1:
 E= -2902.87119096864     Delta-E=       -0.000000443386 Rises=F Damp=F
 DIIS: error= 9.12D-06 at cycle   1 NSaved=   1.
 NSaved= 1 IEnMin= 1 EnMin= -2902.87119096864     IErMin= 1 ErrMin= 9.12D-06
 ErrMax= 9.12D-06 EMaxC= 1.00D-01 BMatC= 2.31D-08 BMatP= 2.31D-08
 IDIUse=1 WtCom= 1.00D+00 WtEn= 0.00D+00
 Coeff-Com:  0.100D+01
 Coeff:      0.100D+01
 Gap=     0.497 Goal=   None    Shift=    0.000
 RMSDP=3.35D-06 MaxDP=1.10D-04 DE=-4.43D-07 OVMax= 6.59D-05

 Cycle   8  Pass 1  IDiag  1:
 RMSU=  6.75D-07    CP:  1.00D+00
 E= -2902.87119101090     Delta-E=       -0.000000042259 Rises=F Damp=F
 DIIS: error= 5.16D-06 at cycle   2 NSaved=   2.
 NSaved= 2 IEnMin= 2 EnMin= -2902.87119101090     IErMin= 2 ErrMin= 5.16D-06
 ErrMax= 5.16D-06 EMaxC= 1.00D-01 BMatC= 9.21D-09 BMatP= 2.31D-08
 IDIUse=1 WtCom= 1.00D+00 WtEn= 0.00D+00
 Coeff-Com:  0.272D+00 0.728D+00
 Coeff:      0.272D+00 0.728D+00
 Gap=     0.497 Goal=   None    Shift=    0.000
 RMSDP=3.93D-07 MaxDP=1.63D-05 DE=-4.23D-08 OVMax= 2.79D-05

 Cycle   9  Pass 1  IDiag  1:
 RMSU=  2.28D-07    CP:  1.00D+00  1.24D+00
 E= -2902.87119102236     Delta-E=       -0.000000011460 Rises=F Damp=F
 DIIS: error= 3.59D-06 at cycle   3 NSaved=   3.
 NSaved= 3 IEnMin= 3 EnMin= -2902.87119102236     IErMin= 3 ErrMin= 3.59D-06
 ErrMax= 3.59D-06 EMaxC= 1.00D-01 BMatC= 2.21D-09 BMatP= 9.21D-09
 IDIUse=1 WtCom= 1.00D+00 WtEn= 0.00D+00
 Coeff-Com: -0.415D+00-0.636D-01 0.148D+01
 Coeff:     -0.415D+00-0.636D-01 0.148D+01
 Gap=     0.497 Goal=   None    Shift=    0.000
 RMSDP=5.45D-07 MaxDP=1.47D-05 DE=-1.15D-08 OVMax= 4.66D-05

 Cycle  10  Pass 1  IDiag  1:
 RMSU=  6.80D-08    CP:  1.00D+00  1.77D+00  1.52D+00
 E= -2902.87119102939     Delta-E=       -0.000000007034 Rises=F Damp=F
 DIIS: error= 6.50D-07 at cycle   4 NSaved=   4.
 NSaved= 4 IEnMin= 4 EnMin= -2902.87119102939     IErMin= 4 ErrMin= 6.50D-07
 ErrMax= 6.50D-07 EMaxC= 1.00D-01 BMatC= 7.40D-11 BMatP= 2.21D-09
 IDIUse=1 WtCom= 1.00D+00 WtEn= 0.00D+00
 Coeff-Com:  0.384D-01-0.256D-01-0.168D+00 0.116D+01
 Coeff:      0.384D-01-0.256D-01-0.168D+00 0.116D+01
 Gap=     0.497 Goal=   None    Shift=    0.000
 RMSDP=7.32D-08 MaxDP=1.63D-06 DE=-7.03D-09 OVMax= 7.62D-06

 Cycle  11  Pass 1  IDiag  1:
 RMSU=  1.87D-08    CP:  1.00D+00  1.82D+00  1.60D+00  1.45D+00
 E= -2902.87119102963     Delta-E=       -0.000000000235 Rises=F Damp=F
 DIIS: error= 3.01D-07 at cycle   5 NSaved=   5.
 NSaved= 5 IEnMin= 5 EnMin= -2902.87119102963     IErMin= 5 ErrMin= 3.01D-07
 ErrMax= 3.01D-07 EMaxC= 1.00D-01 BMatC= 1.27D-11 BMatP= 7.40D-11
 IDIUse=1 WtCom= 1.00D+00 WtEn= 0.00D+00
 Coeff-Com:  0.567D-01 0.121D-01-0.201D+00-0.191D+00 0.132D+01
 Coeff:      0.567D-01 0.121D-01-0.201D+00-0.191D+00 0.132D+01
 Gap=     0.497 Goal=   None    Shift=    0.000
 RMSDP=3.65D-08 MaxDP=9.79D-07 DE=-2.35D-10 OVMax= 4.02D-06

 Cycle  12  Pass 1  IDiag  1:
 RMSU=  6.94D-09    CP:  1.00D+00  1.83D+00  1.63D+00  1.73D+00  1.57D+00
 E= -2902.87119102968     Delta-E=       -0.000000000048 Rises=F Damp=F
 DIIS: error= 6.89D-08 at cycle   6 NSaved=   6.
 NSaved= 6 IEnMin= 6 EnMin= -2902.87119102968     IErMin= 6 ErrMin= 6.89D-08
 ErrMax= 6.89D-08 EMaxC= 1.00D-01 BMatC= 9.32D-13 BMatP= 1.27D-11
 IDIUse=1 WtCom= 1.00D+00 WtEn= 0.00D+00
 Coeff-Com: -0.151D-01-0.134D-02 0.557D-01-0.143D-01-0.384D+00 0.136D+01
 Coeff:     -0.151D-01-0.134D-02 0.557D-01-0.143D-01-0.384D+00 0.136D+01
 Gap=     0.497 Goal=   None    Shift=    0.000
 RMSDP=9.59D-09 MaxDP=2.87D-07 DE=-4.77D-11 OVMax= 9.72D-07

 SCF Done:  E(RHF) =  -2902.87119103     A.U. after   12 cycles
             Convg  =    0.9586D-08             -V/T =  2.0001
 KE= 2.902664760358D+03 PE=-7.242311943724D+03 EE= 1.285441126168D+03
 Leave Link  502 at Wed Dec 18 15:48:18 2019, MaxMem=  268435456 cpu:     102.6
 (Enter /home/matheus/.gaussian/g09/l801.exe)
 Windowed orbitals will be sorted by symmetry type.
 ExpMin= 2.53D-02 ExpMax= 1.17D+07 ExpMxC= 1.33D+04 IAcc=3 IRadAn=         5 AccDes= 0.00D+00
 HarFok:  IExCor=  205 AccDes= 0.00D+00 IRadAn=         5 IDoV=-2
 ScaDFX=  1.000000  1.000000  1.000000  1.000000
 DSYEVD returned Info=          93 IAlg= 4 N=    46 NDim=    46 NE2=     4547561 trying DSYEV.
 Largest valence mixing into a core orbital is  1.45D-04
 Largest core mixing into a valence orbital is  2.63D-05
 Range of M.O.s used for correlation:    12   197
 NBasis=   197 NAE=    27 NBE=    27 NFC=    11 NFV=     0
 NROrb=    186 NOA=    16 NOB=    16 NVA=   170 NVB=   170

 **** Warning!!: The largest alpha MO coefficient is  0.17109188D+02

 Leave Link  801 at Wed Dec 18 15:48:18 2019, MaxMem=  268435456 cpu:       0.3
 (Enter /home/matheus/.gaussian/g09/l804.exe)
 Closed-shell transformation, MDV=   268435456 ITran=4 ISComp=1.
 Semi-Direct transformation.
 ModeAB=           2 MOrb=            16 LenV=     267323478
 LASXX=     48528660 LTotXX=    48528660 LenRXX=    48528660
 LTotAB=    49298776 MaxLAS=    78372960 LenRXY=    78372960
 NonZer=    97057320 LenScr=   146313216 LnRSAI=           0
 LnScr1=           0 LExtra=           0 Total=    273214836
 MaxDsk=          -1 SrtSym=           F ITran=            4
 DoSDTr:  NPSUse=  2
 JobTyp=0 Pass  1:  I=   1 to  16.
 (rs|ai) integrals will be sorted in core.
 Complete sort for first half transformation.
 First half transformation complete.
 Begin second half transformation for I=  10.
 Begin second half transformation for I=  10.
 Complete sort for second half transformation.
 Second half transformation complete.
 SymMOI:  orbitals are not symmetric.
 Spin components of T(2) and E(2):
     alpha-alpha T2 =       0.2618960772D-01 E2=     -0.1004732637D+00
     alpha-beta  T2 =       0.1424376339D+00 E2=     -0.5579691901D+00
     beta-beta   T2 =       0.2618960772D-01 E2=     -0.1004732637D+00
 ANorm=    0.1093076781D+01
 E2 =    -0.7589157175D+00 EUMP2 =    -0.29036301067471D+04
 Leave Link  804 at Wed Dec 18 15:48:43 2019, MaxMem=  268435456 cpu:      49.8
 (Enter /home/matheus/.gaussian/g09/l913.exe)
 CIDS:  MDV=   268435456.
 Frozen-core window:  NFC=  11 NFV=   0.
 IFCWin=0 IBDFC=1 NFBD=     0     0 NFCmp=     0     0 NFFFC=     0     0
 Using DD3R+UMP44R for 1st iteration, S=T.
 Using DD4RQ for 2nd and later iterations.
 Would need an additional       431206676 words for in-memory AO integral storage.
 MP4(SDTQ)
 =========
 DD1Dir will call FoFDir   1 times, MxPair=       272
 NAB=   136 NAA=     0 NBB=     0 NumPrc=  2.
 Integrals replicated using symmetry in FoFDir.
 MinBra= 0 MaxBra= 3 Meth= 1.
 IRaf=       0 NMat= 272 IRICut=     340 DoRegI=T DoRafI=T ISym2E= 2 JSym2E=2.
 MP4(D)= -0.14926870D-01
 MP4(S)= -0.65703680D-02
 MP4(R+Q)=  0.15638922D-01
 T4(AAA)= -0.10694022D-02
 T4(AAB)= -0.14382226D-01
 Time for triples=     1432.97 seconds.
 MP4(T)=   -0.30903257D-01
 E3=       -0.11003027D-01        EUMP3=      -0.29036411098D+04
 E4(DQ)=    0.71205148D-03        UMP4(DQ)=   -0.29036403977D+04
 E4(SDQ)=  -0.58583166D-02        UMP4(SDQ)=  -0.29036469681D+04
 E4(SDTQ)= -0.36761574D-01        UMP4(SDTQ)= -0.29036778713D+04
 VARIATIONAL ENERGIES WITH THE FIRST-ORDER WAVEFUNCTION:
 E(VAR1)=  -0.29035155733D+04     E(CISD,4)=  -0.29035147574D+04
 Largest amplitude= 4.53D-02
 Leave Link  913 at Wed Dec 18 16:01:32 2019, MaxMem=  268435456 cpu:    1534.6
 (Enter /home/matheus/.gaussian/g09/l601.exe)
 Copying SCF densities to generalized density rwf, IOpCl= 0 IROHF=0.

 **********************************************************************

            Population analysis using the SCF density.

 **********************************************************************

 Orbital symmetries:
       Occupied  (A) (A) (A) (A) (A) (A) (A) (A) (A) (A) (A) (A)
                 (A) (A) (A) (A) (A) (A) (A) (A) (A) (A) (A) (A)
                 (A) (A) (A)
       Virtual   (A) (A) (A) (A) (A) (A) (A) (A) (A) (A) (A) (A)
                 (A) (A) (A) (A) (A) (A) (A) (A) (A) (A) (A) (A)
                 (A) (A) (A) (A) (A) (A) (A) (A) (A) (A) (A) (A)
                 (A) (A) (A) (A) (A) (A) (A) (A) (A) (A) (A) (A)
                 (A) (A) (A) (A) (A) (A) (A) (A) (A) (A) (A) (A)
                 (A) (A) (A) (A) (A) (A) (A) (A) (A) (A) (A) (A)
                 (A) (A) (A) (A) (A) (A) (A) (A) (A) (A) (A) (A)
                 (A) (A) (A) (A) (A) (A) (A) (A) (A) (A) (A) (A)
                 (A) (A) (A) (A) (A) (A) (A) (A) (A) (A) (A) (A)
                 (A) (A) (A) (A) (A) (A) (A) (A) (A) (A) (A) (A)
                 (A) (A) (A) (A) (A) (A) (A) (A) (A) (A) (A) (A)
                 (A) (A) (A) (A) (A) (A) (A) (A) (A) (A) (A) (A)
                 (A) (A) (A) (A) (A) (A) (A) (A) (A) (A) (A) (A)
                 (A) (A) (A) (A) (A) (A) (A) (A) (A) (A) (A) (A)
                 (A) (A)
 The electronic state is 1-A.
 Alpha  occ. eigenvalues -- -520.20013 -69.93770 -63.04427 -63.04426 -63.04423
 Alpha  occ. eigenvalues --  -20.62754 -20.62625 -10.88436  -8.36651  -8.36639
 Alpha  occ. eigenvalues --   -8.36621  -3.86029  -3.86028  -3.86006  -3.85997
 Alpha  occ. eigenvalues --   -3.85992  -1.46773  -1.21535  -1.19130  -0.76703
 Alpha  occ. eigenvalues --   -0.64071  -0.59911  -0.57752  -0.55841  -0.55291
 Alpha  occ. eigenvalues --   -0.54333  -0.46070
 Alpha virt. eigenvalues --    0.03607   0.04605   0.08514   0.09360   0.11392
 Alpha virt. eigenvalues --    0.13536   0.14506   0.16278   0.18221   0.18939
 Alpha virt. eigenvalues --    0.19414   0.20599   0.22927   0.25783   0.25990
 Alpha virt. eigenvalues --    0.26735   0.28500   0.30198   0.34376   0.35483
 Alpha virt. eigenvalues --    0.36058   0.37940   0.40395   0.41070   0.42269
 Alpha virt. eigenvalues --    0.45798   0.48620   0.51545   0.56719   0.57919
 Alpha virt. eigenvalues --    0.63586   0.64881   0.66096   0.69146   0.71449
 Alpha virt. eigenvalues --    0.73385   0.75477   0.78642   0.79871   0.82027
 Alpha virt. eigenvalues --    0.82220   0.82993   0.86623   0.88038   0.90567
 Alpha virt. eigenvalues --    0.91698   0.93138   0.93804   0.97153   0.98708
 Alpha virt. eigenvalues --    1.00391   1.00710   1.02566   1.05161   1.06896
 Alpha virt. eigenvalues --    1.09812   1.11127   1.12727   1.14989   1.18217
 Alpha virt. eigenvalues --    1.20475   1.25839   1.30039   1.30886   1.31843
 Alpha virt. eigenvalues --    1.39571   1.43788   1.46659   1.49225   1.52416
 Alpha virt. eigenvalues --    1.59098   1.59777   1.63028   1.65501   1.70017
 Alpha virt. eigenvalues --    1.71148   1.79543   1.97914   2.02841   2.08057
 Alpha virt. eigenvalues --    2.14155   2.22262   2.24357   2.28335   2.31094
 Alpha virt. eigenvalues --    2.34256   2.36738   2.37661   2.42133   2.46360
 Alpha virt. eigenvalues --    2.47042   2.47893   2.49879   2.51610   2.52957
 Alpha virt. eigenvalues --    2.57432   2.58946   2.60479   2.64542   2.67370
 Alpha virt. eigenvalues --    2.69167   2.69749   2.74019   2.75158   2.77923
 Alpha virt. eigenvalues --    2.79892   2.83480   2.84189   2.86109   2.90794
 Alpha virt. eigenvalues --    2.93237   2.96063   3.00091   3.07244   3.10889
 Alpha virt. eigenvalues --    3.11691   3.25256   3.30740   3.31167   3.79947
 Alpha virt. eigenvalues --    3.90137   4.15869   4.22947   4.23396   4.31579
 Alpha virt. eigenvalues --    4.36399   4.38708   4.41003   4.41571   4.50092
 Alpha virt. eigenvalues --    4.68853   4.72022   4.82383   4.97280   5.00684
 Alpha virt. eigenvalues --    5.23900   5.24565   5.33242   5.35159   5.36981
 Alpha virt. eigenvalues --    5.40060   5.83672   6.16484   6.37374   6.38908
 Alpha virt. eigenvalues --    6.45903   6.69417   6.72333   6.80258   6.91239
 Alpha virt. eigenvalues --    7.02919   7.12821   7.17352   7.20356   7.21687
 Alpha virt. eigenvalues --    7.24082   7.26152   7.29706   7.30751   7.44306
 Alpha virt. eigenvalues --    7.54510   7.55639   7.63456   7.77753   7.94088
 Alpha virt. eigenvalues --    8.38153   8.40762   8.56848  14.51478  15.35624
          Condensed to atoms (all electrons):
              1          2          3          4          5
     1  O    8.149553  -0.107173   0.224611   0.013228  -0.018156
     2  O   -0.107173   8.143121   0.020977   0.237569  -0.013272
     3  H    0.224611   0.020977   0.509462  -0.011557  -0.002795
     4  H    0.013228   0.237569  -0.011557   0.501915  -0.011712
     5  Kr  -0.018156  -0.013272  -0.002795  -0.011712  36.032509
 Mulliken atomic charges:
              1
     1  O   -0.262064
     2  O   -0.281222
     3  H    0.259302
     4  H    0.270558
     5  Kr   0.013425
 Sum of Mulliken atomic charges =   0.00000
 Mulliken charges with hydrogens summed into heavy atoms:
              1
     1  O   -0.002762
     2  O   -0.010663
     5  Kr   0.013425
 Sum of Mulliken charges with hydrogens summed into heavy atoms =   0.00000
 Electronic spatial extent (au):  <R**2>=            476.6378
 Charge=              0.0000 electrons
 Dipole moment (field-independent basis, Debye):
    X=              3.4970    Y=             -0.0910    Z=              0.7062  Tot=              3.5687
 Quadrupole moment (field-independent basis, Debye-Ang):
   XX=            -38.9845   YY=            -28.0289   ZZ=            -29.9858
   XY=              0.3074   XZ=             -0.8748   YZ=             -0.9243
 Traceless Quadrupole moment (field-independent basis, Debye-Ang):
   XX=             -6.6514   YY=              4.3042   ZZ=              2.3473
   XY=              0.3074   XZ=             -0.8748   YZ=             -0.9243
 Octapole moment (field-independent basis, Debye-Ang**2):
  XXX=             44.4489  YYY=             -0.2298  ZZZ=              0.1475  XYY=              7.5233
  XXY=             -0.7297  XXZ=              0.3089  XZZ=              7.8353  YZZ=             -0.4671
  YYZ=              1.0792  XYZ=              1.1304
 Hexadecapole moment (field-independent basis, Debye-Ang**3):
 XXXX=           -457.9462 YYYY=            -62.4299 ZZZZ=            -28.5912 XXXY=              0.8305
 XXXZ=              0.5973 YYYX=              0.5755 YYYZ=             -1.2839 ZZZX=             -0.4897
 ZZZY=             -0.6111 XXYY=            -85.9093 XXZZ=            -75.0633 YYZZ=            -16.6391
 XXYZ=             -1.3831 YYXZ=             -1.3515 ZZXY=              0.6239
 N-N= 1.513348661682D+02 E-N=-7.242311936174D+03  KE= 2.902664760358D+03
 Leave Link  601 at Wed Dec 18 16:01:32 2019, MaxMem=  268435456 cpu:       0.1
 (Enter /home/matheus/.gaussian/g09/l108.exe)
 Variable Step   Value    
 -------- ---- -----------
     1       1    5.858151
 Leave Link  108 at Wed Dec 18 16:01:32 2019, MaxMem=  268435456 cpu:       0.0
 (Enter /home/matheus/.gaussian/g09/l202.exe)
 ---------------------------------------------------------------------------------------------------
                            Z-MATRIX (ANGSTROMS AND DEGREES)
   CD    Cent   Atom    N1       Length/X        N2       Alpha/Y        N3        Beta/Z          J
 ---------------------------------------------------------------------------------------------------
      1      1  O        0   0.000000          0.000000          0.725000
      2      2  O        0   0.000000          0.000000         -0.725000
      3      3  H        0  -0.459360          0.795635          1.023510
      4      4  H        0   0.000000          0.918721         -1.023510
      5      5  Kr       0   0.000000          3.100000          0.000000
 ---------------------------------------------------------------------------------------------------
                         Z-Matrix orientation:                         
 ---------------------------------------------------------------------
 Center     Atomic      Atomic             Coordinates (Angstroms)
 Number     Number       Type             X           Y           Z
 ---------------------------------------------------------------------
      1          8           0        0.000000    0.000000    0.725000
      2          8           0        0.000000    0.000000   -0.725000
      3          1           0       -0.459360    0.795635    1.023510
      4          1           0        0.000000    0.918721   -1.023510
      5         36           0        0.000000    3.100000    0.000000
 ---------------------------------------------------------------------
                    Distance matrix (angstroms):
                    1          2          3          4          5
     1  O    0.000000
     2  O    1.450000   0.000000
     3  H    0.966000   1.975180   0.000000
     4  H    1.975180   0.966000   2.101537   0.000000
     5  Kr   3.183650   3.183650   2.562944   2.409472   0.000000
 Stoichiometry    H2KrO2
 Framework group  C1[X(H2KrO2)]
 Deg. of freedom     9
 Full point group                 C1      NOp   1
 RotChk:  IX=0 Diff= 1.82D-04
 Largest Abelian subgroup         C1      NOp   1
 Largest concise Abelian subgroup C1      NOp   1
                         Standard orientation:                         
 ---------------------------------------------------------------------
 Center     Atomic      Atomic             Coordinates (Angstroms)
 Number     Number       Type             X           Y           Z
 ---------------------------------------------------------------------
      1          8           0       -2.099274   -0.720625   -0.052786
      2          8           0       -2.097394    0.727877    0.013092
      3          1           0       -1.306553   -1.040922    0.396835
      4          1           0       -1.178301    1.024660    0.031623
      5         36           0        1.001617   -0.001160   -0.003081
 ---------------------------------------------------------------------
 Rotational constants (GHZ):     26.4111844      2.2303685      2.0599879
 Leave Link  202 at Wed Dec 18 16:01:32 2019, MaxMem=  268435456 cpu:       0.0
 (Enter /home/matheus/.gaussian/g09/l301.exe)
 Standard basis: Aug-CC-pVTZ (5D, 7F)
 Ernie: Thresh=  0.10000D-02 Tol=  0.10000D-05 Strict=F.
 Ernie:  38 primitive shells out of 205 were deleted.
 There are   197 symmetry adapted basis functions of A   symmetry.
 Integral buffers will be    131072 words long.
 Raffenetti 1 integral format.
 Two-electron integral symmetry is turned on.
   197 basis functions,   415 primitive gaussians,   229 cartesian basis functions
    27 alpha electrons       27 beta electrons
       nuclear repulsion energy       147.7405938704 Hartrees.
 IExCor=    0 DFT=F Ex=HF Corr=None ExCW=0 ScaHFX=  1.000000
 ScaDFX=  1.000000  1.000000  1.000000  1.000000 ScalE2=  1.000000  1.000000
 IRadAn=      5 IRanWt=     -1 IRanGd=            0 ICorTp=0
 NAtoms=    5 NActive=    5 NUniq=    5 SFac= 1.00D+00 NAtFMM=   60 NAOKFM=F Big=F
 Leave Link  301 at Wed Dec 18 16:01:32 2019, MaxMem=  268435456 cpu:       0.0
 (Enter /home/matheus/.gaussian/g09/l302.exe)
 NPDir=0 NMtPBC=     1 NCelOv=     1 NCel=       1 NClECP=     1 NCelD=      1
         NCelK=      1 NCelE2=     1 NClLst=     1 CellRange=     0.0.
 One-electron integrals computed using PRISM.
 NBasis=   197 RedAO= T  NBF=   197
 NBsUse=   197 1.00D-06 NBFU=   197
 Leave Link  302 at Wed Dec 18 16:01:32 2019, MaxMem=  268435456 cpu:       0.2
 (Enter /home/matheus/.gaussian/g09/l303.exe)
 DipDrv:  MaxL=1.
 Leave Link  303 at Wed Dec 18 16:01:32 2019, MaxMem=  268435456 cpu:       0.0
 (Enter /home/matheus/.gaussian/g09/l401.exe)
 Initial guess read from the read-write file.
 B after Tr=     0.000000    0.000000    0.000000
         Rot=    1.000000    0.000000    0.000000    0.000000 Ang=   0.00 deg.
 Guess basis will be translated and rotated to current coordinates.
 Initial guess orbital symmetries:
       Occupied  (A) (A) (A) (A) (A) (A) (A) (A) (A) (A) (A) (A)
                 (A) (A) (A) (A) (A) (A) (A) (A) (A) (A) (A) (A)
                 (A) (A) (A)
       Virtual   (A) (A) (A) (A) (A) (A) (A) (A) (A) (A) (A) (A)
                 (A) (A) (A) (A) (A) (A) (A) (A) (A) (A) (A) (A)
                 (A) (A) (A) (A) (A) (A) (A) (A) (A) (A) (A) (A)
                 (A) (A) (A) (A) (A) (A) (A) (A) (A) (A) (A) (A)
                 (A) (A) (A) (A) (A) (A) (A) (A) (A) (A) (A) (A)
                 (A) (A) (A) (A) (A) (A) (A) (A) (A) (A) (A) (A)
                 (A) (A) (A) (A) (A) (A) (A) (A) (A) (A) (A) (A)
                 (A) (A) (A) (A) (A) (A) (A) (A) (A) (A) (A) (A)
                 (A) (A) (A) (A) (A) (A) (A) (A) (A) (A) (A) (A)
                 (A) (A) (A) (A) (A) (A) (A) (A) (A) (A) (A) (A)
                 (A) (A) (A) (A) (A) (A) (A) (A) (A) (A) (A) (A)
                 (A) (A) (A) (A) (A) (A) (A) (A) (A) (A) (A) (A)
                 (A) (A) (A) (A) (A) (A) (A) (A) (A) (A) (A) (A)
                 (A) (A) (A) (A) (A) (A) (A) (A) (A) (A) (A) (A)
                 (A) (A)
 The electronic state of the initial guess is 1-A.
 Generating alternative initial guess.
 Harris functional with IExCor=  205 diagonalized for initial guess.
 ExpMin= 2.53D-02 ExpMax= 1.17D+07 ExpMxC= 1.33D+04 IAcc=3 IRadAn=         5 AccDes= 0.00D+00
 HarFok:  IExCor=  205 AccDes= 0.00D+00 IRadAn=         5 IDoV= 1
 ScaDFX=  1.000000  1.000000  1.000000  1.000000
 FoFCou: FMM=F IPFlag=           0 FMFlag=      100000 FMFlg1=           0
         NFxFlg=           0 DoJE=T BraDBF=F KetDBF=T FulRan=T
         Omega=  0.000000  0.000000  1.000000  0.000000  0.000000 ICntrl=     500 IOpCl=  0
         NMat0=    1 NMatS0=    1 NMatT0=    0 NMatD0=    1 NMtDS0=    0 NMtDT0=    0
         I1Cent=           4 NGrid=           0.
 Petite list used in FoFCou.
 Harris En= -2901.92769747358    
 Leave Link  401 at Wed Dec 18 16:01:33 2019, MaxMem=  268435456 cpu:       1.3
 (Enter /home/matheus/.gaussian/g09/l502.exe)
 Closed shell SCF:
 Requested convergence on RMS density matrix=1.00D-08 within 128 cycles.
 Requested convergence on MAX density matrix=1.00D-06.
 Requested convergence on             energy=1.00D-06.
 No special actions if energy rises.
 Using DIIS extrapolation, IDIIS=  1040.
 Integral symmetry usage will be decided dynamically.
 IEnd=      178489 IEndB=      178489 NGot=   268435456 MDV=   268326278
 LenX=   268326278 LenY=   268273396
 Fock matrices will be formed incrementally for  20 cycles.

 Cycle   1  Pass 0  IDiag  1:
 FoFCou: FMM=F IPFlag=           0 FMFlag=      100000 FMFlg1=           0
         NFxFlg=           0 DoJE=F BraDBF=F KetDBF=F FulRan=T
         Omega=  0.000000  0.000000  1.000000  0.000000  0.000000 ICntrl=       0 IOpCl=  0
         NMat0=    1 NMatS0=    1 NMatT0=    0 NMatD0=    1 NMtDS0=    0 NMtDT0=    0
         I1Cent=           0 NGrid=           0.
 Symmetry not used in FoFCou.
 E= -2902.87433759588    
 DIIS: error= 7.16D-04 at cycle   1 NSaved=   1.
 NSaved= 1 IEnMin= 1 EnMin= -2902.87433759588     IErMin= 1 ErrMin= 7.16D-04
 ErrMax= 7.16D-04 EMaxC= 1.00D-01 BMatC= 8.73D-05 BMatP= 8.73D-05
 IDIUse=3 WtCom= 9.93D-01 WtEn= 7.16D-03
 Coeff-Com:  0.100D+01
 Coeff-En:   0.100D+01
 Coeff:      0.100D+01
 Gap=     0.499 Goal=   None    Shift=    0.000
 RMSDP=7.26D-05 MaxDP=2.80D-03              OVMax= 3.02D-03

 Cycle   2  Pass 0  IDiag  1:
 RMSU=  5.13D-05    CP:  1.00D+00
 E= -2902.87443801860     Delta-E=       -0.000100422717 Rises=F Damp=F
 DIIS: error= 1.33D-04 at cycle   2 NSaved=   2.
 NSaved= 2 IEnMin= 2 EnMin= -2902.87443801860     IErMin= 2 ErrMin= 1.33D-04
 ErrMax= 1.33D-04 EMaxC= 1.00D-01 BMatC= 2.86D-06 BMatP= 8.73D-05
 IDIUse=3 WtCom= 9.99D-01 WtEn= 1.33D-03
 Coeff-Com: -0.746D-01 0.107D+01
 Coeff-En:   0.000D+00 0.100D+01
 Coeff:     -0.745D-01 0.107D+01
 Gap=     0.497 Goal=   None    Shift=    0.000
 RMSDP=1.31D-05 MaxDP=4.81D-04 DE=-1.00D-04 OVMax= 7.25D-04

 Cycle   3  Pass 0  IDiag  1:
 RMSU=  6.19D-06    CP:  1.00D+00  1.13D+00
 E= -2902.87444196597     Delta-E=       -0.000003947366 Rises=F Damp=F
 DIIS: error= 4.02D-05 at cycle   3 NSaved=   3.
 NSaved= 3 IEnMin= 3 EnMin= -2902.87444196597     IErMin= 3 ErrMin= 4.02D-05
 ErrMax= 4.02D-05 EMaxC= 1.00D-01 BMatC= 4.30D-07 BMatP= 2.86D-06
 IDIUse=1 WtCom= 1.00D+00 WtEn= 0.00D+00
 Coeff-Com: -0.421D-01 0.263D+00 0.779D+00
 Coeff:     -0.421D-01 0.263D+00 0.779D+00
 Gap=     0.498 Goal=   None    Shift=    0.000
 RMSDP=2.81D-06 MaxDP=6.55D-05 DE=-3.95D-06 OVMax= 1.60D-04

 Initial convergence to 1.0D-05 achieved.  Increase integral accuracy.
 Cycle   4  Pass 1  IDiag  1:
 E= -2902.87444235765     Delta-E=       -0.000000391685 Rises=F Damp=F
 DIIS: error= 1.19D-05 at cycle   1 NSaved=   1.
 NSaved= 1 IEnMin= 1 EnMin= -2902.87444235765     IErMin= 1 ErrMin= 1.19D-05
 ErrMax= 1.19D-05 EMaxC= 1.00D-01 BMatC= 2.58D-08 BMatP= 2.58D-08
 IDIUse=1 WtCom= 1.00D+00 WtEn= 0.00D+00
 Coeff-Com:  0.100D+01
 Coeff:      0.100D+01
 Gap=     0.498 Goal=   None    Shift=    0.000
 RMSDP=2.81D-06 MaxDP=6.55D-05 DE=-3.92D-07 OVMax= 6.01D-05

 Cycle   5  Pass 1  IDiag  1:
 RMSU=  7.48D-07    CP:  1.00D+00
 E= -2902.87444239901     Delta-E=       -0.000000041358 Rises=F Damp=F
 DIIS: error= 4.57D-06 at cycle   2 NSaved=   2.
 NSaved= 2 IEnMin= 2 EnMin= -2902.87444239901     IErMin= 2 ErrMin= 4.57D-06
 ErrMax= 4.57D-06 EMaxC= 1.00D-01 BMatC= 7.83D-09 BMatP= 2.58D-08
 IDIUse=1 WtCom= 1.00D+00 WtEn= 0.00D+00
 Coeff-Com:  0.256D+00 0.744D+00
 Coeff:      0.256D+00 0.744D+00
 Gap=     0.498 Goal=   None    Shift=    0.000
 RMSDP=3.17D-07 MaxDP=9.06D-06 DE=-4.14D-08 OVMax= 2.90D-05

 Cycle   6  Pass 1  IDiag  1:
 RMSU=  1.97D-07    CP:  1.00D+00  1.14D+00
 E= -2902.87444240788     Delta-E=       -0.000000008868 Rises=F Damp=F
 DIIS: error= 2.64D-06 at cycle   3 NSaved=   3.
 NSaved= 3 IEnMin= 3 EnMin= -2902.87444240788     IErMin= 3 ErrMin= 2.64D-06
 ErrMax= 2.64D-06 EMaxC= 1.00D-01 BMatC= 1.45D-09 BMatP= 7.83D-09
 IDIUse=1 WtCom= 1.00D+00 WtEn= 0.00D+00
 Coeff-Com: -0.264D+00-0.387D-01 0.130D+01
 Coeff:     -0.264D+00-0.387D-01 0.130D+01
 Gap=     0.498 Goal=   None    Shift=    0.000
 RMSDP=3.57D-07 MaxDP=1.08D-05 DE=-8.87D-09 OVMax= 2.62D-05

 Cycle   7  Pass 1  IDiag  1:
 RMSU=  1.06D-07    CP:  1.00D+00  1.44D+00  1.30D+00
 E= -2902.87444241154     Delta-E=       -0.000000003658 Rises=F Damp=F
 DIIS: error= 5.76D-07 at cycle   4 NSaved=   4.
 NSaved= 4 IEnMin= 4 EnMin= -2902.87444241154     IErMin= 4 ErrMin= 5.76D-07
 ErrMax= 5.76D-07 EMaxC= 1.00D-01 BMatC= 1.34D-10 BMatP= 1.45D-09
 IDIUse=1 WtCom= 1.00D+00 WtEn= 0.00D+00
 Coeff-Com: -0.946D-01-0.587D-01 0.381D+00 0.772D+00
 Coeff:     -0.946D-01-0.587D-01 0.381D+00 0.772D+00
 Gap=     0.498 Goal=   None    Shift=    0.000
 RMSDP=6.48D-08 MaxDP=2.17D-06 DE=-3.66D-09 OVMax= 4.67D-06

 Cycle   8  Pass 1  IDiag  1:
 RMSU=  3.05D-08    CP:  1.00D+00  1.46D+00  1.35D+00  1.27D+00
 E= -2902.87444241170     Delta-E=       -0.000000000165 Rises=F Damp=F
 DIIS: error= 2.48D-07 at cycle   5 NSaved=   5.
 NSaved= 5 IEnMin= 5 EnMin= -2902.87444241170     IErMin= 5 ErrMin= 2.48D-07
 ErrMax= 2.48D-07 EMaxC= 1.00D-01 BMatC= 1.57D-11 BMatP= 1.34D-10
 IDIUse=1 WtCom= 1.00D+00 WtEn= 0.00D+00
 Coeff-Com:  0.658D-01 0.218D-01-0.314D+00-0.130D+00 0.136D+01
 Coeff:      0.658D-01 0.218D-01-0.314D+00-0.130D+00 0.136D+01
 Gap=     0.498 Goal=   None    Shift=    0.000
 RMSDP=5.22D-08 MaxDP=1.26D-06 DE=-1.65D-10 OVMax= 4.14D-06

 Cycle   9  Pass 1  IDiag  1:
 RMSU=  9.97D-09    CP:  1.00D+00  1.46D+00  1.36D+00  1.59D+00  1.37D+00
 E= -2902.87444241175     Delta-E=       -0.000000000046 Rises=F Damp=F
 DIIS: error= 6.63D-08 at cycle   6 NSaved=   6.
 NSaved= 6 IEnMin= 6 EnMin= -2902.87444241175     IErMin= 6 ErrMin= 6.63D-08
 ErrMax= 6.63D-08 EMaxC= 1.00D-01 BMatC= 1.09D-12 BMatP= 1.57D-11
 IDIUse=1 WtCom= 1.00D+00 WtEn= 0.00D+00
 Coeff-Com: -0.104D-01-0.753D-03 0.495D-01-0.130D-01-0.303D+00 0.128D+01
 Coeff:     -0.104D-01-0.753D-03 0.495D-01-0.130D-01-0.303D+00 0.128D+01
 Gap=     0.498 Goal=   None    Shift=    0.000
 RMSDP=1.10D-08 MaxDP=2.16D-07 DE=-4.59D-11 OVMax= 1.28D-06

 Cycle  10  Pass 1  IDiag  1:
 RMSU=  3.11D-09    CP:  1.00D+00  1.47D+00  1.37D+00  1.62D+00  1.44D+00
                    CP:  1.52D+00
 E= -2902.87444241178     Delta-E=       -0.000000000039 Rises=F Damp=F
 DIIS: error= 3.33D-08 at cycle   7 NSaved=   7.
 NSaved= 7 IEnMin= 7 EnMin= -2902.87444241178     IErMin= 7 ErrMin= 3.33D-08
 ErrMax= 3.33D-08 EMaxC= 1.00D-01 BMatC= 2.23D-13 BMatP= 1.09D-12
 IDIUse=1 WtCom= 1.00D+00 WtEn= 0.00D+00
 Coeff-Com: -0.115D-01-0.346D-02 0.546D-01 0.237D-01-0.229D+00-0.121D+00
 Coeff-Com:  0.129D+01
 Coeff:     -0.115D-01-0.346D-02 0.546D-01 0.237D-01-0.229D+00-0.121D+00
 Coeff:      0.129D+01
 Gap=     0.498 Goal=   None    Shift=    0.000
 RMSDP=5.86D-09 MaxDP=1.10D-07 DE=-3.87D-11 OVMax= 8.06D-07

 SCF Done:  E(RHF) =  -2902.87444241     A.U. after   10 cycles
             Convg  =    0.5865D-08             -V/T =  2.0001
 KE= 2.902642955439D+03 PE=-7.235144898472D+03 EE= 1.281886906751D+03
 Leave Link  502 at Wed Dec 18 16:02:13 2019, MaxMem=  268435456 cpu:      79.2
 (Enter /home/matheus/.gaussian/g09/l801.exe)
 Windowed orbitals will be sorted by symmetry type.
 ExpMin= 2.53D-02 ExpMax= 1.17D+07 ExpMxC= 1.33D+04 IAcc=3 IRadAn=         5 AccDes= 0.00D+00
 HarFok:  IExCor=  205 AccDes= 0.00D+00 IRadAn=         5 IDoV=-2
 ScaDFX=  1.000000  1.000000  1.000000  1.000000
 Largest valence mixing into a core orbital is  1.45D-04
 Largest core mixing into a valence orbital is  2.63D-05
 Range of M.O.s used for correlation:    12   197
 NBasis=   197 NAE=    27 NBE=    27 NFC=    11 NFV=     0
 NROrb=    186 NOA=    16 NOB=    16 NVA=   170 NVB=   170

 **** Warning!!: The largest alpha MO coefficient is  0.16981425D+02

 Leave Link  801 at Wed Dec 18 16:02:13 2019, MaxMem=  268435456 cpu:       0.2
 (Enter /home/matheus/.gaussian/g09/l804.exe)
 Closed-shell transformation, MDV=   268435456 ITran=4 ISComp=1.
 Semi-Direct transformation.
 ModeAB=           2 MOrb=            16 LenV=     267324730
 LASXX=     48528660 LTotXX=    48528660 LenRXX=    48528660
 LTotAB=    49298776 MaxLAS=    78372960 LenRXY=    78372960
 NonZer=    97057320 LenScr=   146313216 LnRSAI=           0
 LnScr1=           0 LExtra=           0 Total=    273214836
 MaxDsk=          -1 SrtSym=           F ITran=            4
 DoSDTr:  NPSUse=  2
 JobTyp=0 Pass  1:  I=   1 to  16.
 (rs|ai) integrals will be sorted in core.
 Complete sort for first half transformation.
 First half transformation complete.
 Begin second half transformation for I=  10.
 Begin second half transformation for I=  10.
 Complete sort for second half transformation.
 Second half transformation complete.
 SymMOI:  orbitals are not symmetric.
 Spin components of T(2) and E(2):
     alpha-alpha T2 =       0.2609823189D-01 E2=     -0.1001575351D+00
     alpha-beta  T2 =       0.1423214716D+00 E2=     -0.5572478457D+00
     beta-beta   T2 =       0.2609823189D-01 E2=     -0.1001575351D+00
 ANorm=    0.1092940042D+01
 E2 =    -0.7575629159D+00 EUMP2 =    -0.29036320053277D+04
 Leave Link  804 at Wed Dec 18 16:02:37 2019, MaxMem=  268435456 cpu:      47.4
 (Enter /home/matheus/.gaussian/g09/l913.exe)
 CIDS:  MDV=   268435456.
 Frozen-core window:  NFC=  11 NFV=   0.
 IFCWin=0 IBDFC=1 NFBD=     0     0 NFCmp=     0     0 NFFFC=     0     0
 Using DD3R+UMP44R for 1st iteration, S=T.
 Using DD4RQ for 2nd and later iterations.
 Would need an additional       431206676 words for in-memory AO integral storage.
 MP4(SDTQ)
 =========
 DD1Dir will call FoFDir   1 times, MxPair=       272
 NAB=   136 NAA=     0 NBB=     0 NumPrc=  2.
 Integrals replicated using symmetry in FoFDir.
 MinBra= 0 MaxBra= 3 Meth= 1.
 IRaf=       0 NMat= 272 IRICut=     340 DoRegI=T DoRafI=T ISym2E= 2 JSym2E=2.
 MP4(D)= -0.14927114D-01
 MP4(S)= -0.65319686D-02
 MP4(R+Q)=  0.15544780D-01
 T4(AAA)= -0.10571178D-02
 T4(AAB)= -0.14302737D-01
 Time for triples=     1356.83 seconds.
 MP4(T)=   -0.30719709D-01
 E3=       -0.11180651D-01        EUMP3=      -0.29036431860D+04
 E4(DQ)=    0.61766692D-03        UMP4(DQ)=   -0.29036425683D+04
 E4(SDQ)=  -0.59143017D-02        UMP4(SDQ)=  -0.29036491003D+04
 E4(SDTQ)= -0.36634011D-01        UMP4(SDTQ)= -0.29036798200D+04
 VARIATIONAL ENERGIES WITH THE FIRST-ORDER WAVEFUNCTION:
 E(VAR1)=  -0.29035180021D+04     E(CISD,4)=  -0.29035172855D+04
 Largest amplitude= 4.70D-02
 Leave Link  913 at Wed Dec 18 16:14:44 2019, MaxMem=  268435456 cpu:    1452.0
 (Enter /home/matheus/.gaussian/g09/l108.exe)
 Variable Step   Value    
 -------- ---- -----------
     1       2    6.047124
 Leave Link  108 at Wed Dec 18 16:14:44 2019, MaxMem=  268435456 cpu:       0.0
 (Enter /home/matheus/.gaussian/g09/l202.exe)
 ---------------------------------------------------------------------------------------------------
                            Z-MATRIX (ANGSTROMS AND DEGREES)
   CD    Cent   Atom    N1       Length/X        N2       Alpha/Y        N3        Beta/Z          J
 ---------------------------------------------------------------------------------------------------
      1      1  O        0   0.000000          0.000000          0.725000
      2      2  O        0   0.000000          0.000000         -0.725000
      3      3  H        0  -0.459360          0.795635          1.023510
      4      4  H        0   0.000000          0.918721         -1.023510
      5      5  Kr       0   0.000000          3.200000          0.000000
 ---------------------------------------------------------------------------------------------------
                         Z-Matrix orientation:                         
 ---------------------------------------------------------------------
 Center     Atomic      Atomic             Coordinates (Angstroms)
 Number     Number       Type             X           Y           Z
 ---------------------------------------------------------------------
      1          8           0        0.000000    0.000000    0.725000
      2          8           0        0.000000    0.000000   -0.725000
      3          1           0       -0.459360    0.795635    1.023510
      4          1           0        0.000000    0.918721   -1.023510
      5         36           0        0.000000    3.200000    0.000000
 ---------------------------------------------------------------------
                    Distance matrix (angstroms):
                    1          2          3          4          5
     1  O    0.000000
     2  O    1.450000   0.000000
     3  H    0.966000   1.975180   0.000000
     4  H    1.975180   0.966000   2.101537   0.000000
     5  Kr   3.281101   3.281101   2.653216   2.500362   0.000000
 Stoichiometry    H2KrO2
 Framework group  C1[X(H2KrO2)]
 Deg. of freedom     9
 Full point group                 C1      NOp   1
 RotChk:  IX=0 Diff= 1.72D-04
 Largest Abelian subgroup         C1      NOp   1
 Largest concise Abelian subgroup C1      NOp   1
                         Standard orientation:                         
 ---------------------------------------------------------------------
 Center     Atomic      Atomic             Coordinates (Angstroms)
 Number     Number       Type             X           Y           Z
 ---------------------------------------------------------------------
      1          8           0       -2.165877   -0.720724   -0.052979
      2          8           0       -2.164127    0.727778    0.012899
      3          1           0       -1.373090   -1.040947    0.396580
      4          1           0       -1.245060    1.024647    0.031359
      5         36           0        1.034949   -0.001115   -0.002981
 ---------------------------------------------------------------------
 Rotational constants (GHZ):     26.4112668      2.0918935      1.9412980
 Leave Link  202 at Wed Dec 18 16:14:44 2019, MaxMem=  268435456 cpu:       0.0
 (Enter /home/matheus/.gaussian/g09/l301.exe)
 Standard basis: Aug-CC-pVTZ (5D, 7F)
 Ernie: Thresh=  0.10000D-02 Tol=  0.10000D-05 Strict=F.
 Ernie:  38 primitive shells out of 205 were deleted.
 There are   197 symmetry adapted basis functions of A   symmetry.
 Integral buffers will be    131072 words long.
 Raffenetti 1 integral format.
 Two-electron integral symmetry is turned on.
   197 basis functions,   415 primitive gaussians,   229 cartesian basis functions
    27 alpha electrons       27 beta electrons
       nuclear repulsion energy       144.3566967293 Hartrees.
 IExCor=    0 DFT=F Ex=HF Corr=None ExCW=0 ScaHFX=  1.000000
 ScaDFX=  1.000000  1.000000  1.000000  1.000000 ScalE2=  1.000000  1.000000
 IRadAn=      5 IRanWt=     -1 IRanGd=            0 ICorTp=0
 NAtoms=    5 NActive=    5 NUniq=    5 SFac= 1.00D+00 NAtFMM=   60 NAOKFM=F Big=F
 Leave Link  301 at Wed Dec 18 16:14:44 2019, MaxMem=  268435456 cpu:       0.0
 (Enter /home/matheus/.gaussian/g09/l302.exe)
 NPDir=0 NMtPBC=     1 NCelOv=     1 NCel=       1 NClECP=     1 NCelD=      1
         NCelK=      1 NCelE2=     1 NClLst=     1 CellRange=     0.0.
 One-electron integrals computed using PRISM.
 NBasis=   197 RedAO= T  NBF=   197
 NBsUse=   197 1.00D-06 NBFU=   197
 Leave Link  302 at Wed Dec 18 16:14:44 2019, MaxMem=  268435456 cpu:       0.2
 (Enter /home/matheus/.gaussian/g09/l303.exe)
 DipDrv:  MaxL=1.
 Leave Link  303 at Wed Dec 18 16:14:44 2019, MaxMem=  268435456 cpu:       0.1
 (Enter /home/matheus/.gaussian/g09/l401.exe)
 Initial guess read from the read-write file.
 B after Tr=     0.000000    0.000000    0.000000
         Rot=    1.000000    0.000000    0.000000    0.000000 Ang=   0.00 deg.
 Guess basis will be translated and rotated to current coordinates.
 Initial guess orbital symmetries:
       Occupied  (A) (A) (A) (A) (A) (A) (A) (A) (A) (A) (A) (A)
                 (A) (A) (A) (A) (A) (A) (A) (A) (A) (A) (A) (A)
                 (A) (A) (A)
       Virtual   (A) (A) (A) (A) (A) (A) (A) (A) (A) (A) (A) (A)
                 (A) (A) (A) (A) (A) (A) (A) (A) (A) (A) (A) (A)
                 (A) (A) (A) (A) (A) (A) (A) (A) (A) (A) (A) (A)
                 (A) (A) (A) (A) (A) (A) (A) (A) (A) (A) (A) (A)
                 (A) (A) (A) (A) (A) (A) (A) (A) (A) (A) (A) (A)
                 (A) (A) (A) (A) (A) (A) (A) (A) (A) (A) (A) (A)
                 (A) (A) (A) (A) (A) (A) (A) (A) (A) (A) (A) (A)
                 (A) (A) (A) (A) (A) (A) (A) (A) (A) (A) (A) (A)
                 (A) (A) (A) (A) (A) (A) (A) (A) (A) (A) (A) (A)
                 (A) (A) (A) (A) (A) (A) (A) (A) (A) (A) (A) (A)
                 (A) (A) (A) (A) (A) (A) (A) (A) (A) (A) (A) (A)
                 (A) (A) (A) (A) (A) (A) (A) (A) (A) (A) (A) (A)
                 (A) (A) (A) (A) (A) (A) (A) (A) (A) (A) (A) (A)
                 (A) (A) (A) (A) (A) (A) (A) (A) (A) (A) (A) (A)
                 (A) (A)
 The electronic state of the initial guess is 1-A.
 Generating alternative initial guess.
 Harris functional with IExCor=  205 diagonalized for initial guess.
 ExpMin= 2.53D-02 ExpMax= 1.17D+07 ExpMxC= 1.33D+04 IAcc=3 IRadAn=         5 AccDes= 0.00D+00
 HarFok:  IExCor=  205 AccDes= 0.00D+00 IRadAn=         5 IDoV= 1
 ScaDFX=  1.000000  1.000000  1.000000  1.000000
 FoFCou: FMM=F IPFlag=           0 FMFlag=      100000 FMFlg1=           0
         NFxFlg=           0 DoJE=T BraDBF=F KetDBF=T FulRan=T
         Omega=  0.000000  0.000000  1.000000  0.000000  0.000000 ICntrl=     500 IOpCl=  0
         NMat0=    1 NMatS0=    1 NMatT0=    0 NMatD0=    1 NMtDS0=    0 NMtDT0=    0
         I1Cent=           4 NGrid=           0.
 Petite list used in FoFCou.
 Harris En= -2901.92898265629    
 Leave Link  401 at Wed Dec 18 16:14:45 2019, MaxMem=  268435456 cpu:       1.3
 (Enter /home/matheus/.gaussian/g09/l502.exe)
 Closed shell SCF:
 Requested convergence on RMS density matrix=1.00D-08 within 128 cycles.
 Requested convergence on MAX density matrix=1.00D-06.
 Requested convergence on             energy=1.00D-06.
 No special actions if energy rises.
 Using DIIS extrapolation, IDIIS=  1040.
 Integral symmetry usage will be decided dynamically.
 IEnd=      178489 IEndB=      178489 NGot=   268435456 MDV=   268326278
 LenX=   268326278 LenY=   268273396
 Fock matrices will be formed incrementally for  20 cycles.

 Cycle   1  Pass 0  IDiag  1:
 FoFCou: FMM=F IPFlag=           0 FMFlag=      100000 FMFlg1=           0
         NFxFlg=           0 DoJE=F BraDBF=F KetDBF=F FulRan=T
         Omega=  0.000000  0.000000  1.000000  0.000000  0.000000 ICntrl=       0 IOpCl=  0
         NMat0=    1 NMatS0=    1 NMatT0=    0 NMatD0=    1 NMtDS0=    0 NMtDT0=    0
         I1Cent=           0 NGrid=           0.
 Symmetry not used in FoFCou.
 E= -2902.87668320921    
 DIIS: error= 6.48D-04 at cycle   1 NSaved=   1.
 NSaved= 1 IEnMin= 1 EnMin= -2902.87668320921     IErMin= 1 ErrMin= 6.48D-04
 ErrMax= 6.48D-04 EMaxC= 1.00D-01 BMatC= 6.51D-05 BMatP= 6.51D-05
 IDIUse=3 WtCom= 9.94D-01 WtEn= 6.48D-03
 Coeff-Com:  0.100D+01
 Coeff-En:   0.100D+01
 Coeff:      0.100D+01
 Gap=     0.500 Goal=   None    Shift=    0.000
 RMSDP=6.36D-05 MaxDP=2.07D-03              OVMax= 2.41D-03

 Cycle   2  Pass 0  IDiag  1:
 RMSU=  4.50D-05    CP:  1.00D+00
 E= -2902.87675875719     Delta-E=       -0.000075547987 Rises=F Damp=F
 DIIS: error= 1.07D-04 at cycle   2 NSaved=   2.
 NSaved= 2 IEnMin= 2 EnMin= -2902.87675875719     IErMin= 2 ErrMin= 1.07D-04
 ErrMax= 1.07D-04 EMaxC= 1.00D-01 BMatC= 1.93D-06 BMatP= 6.51D-05
 IDIUse=3 WtCom= 9.99D-01 WtEn= 1.07D-03
 Coeff-Com: -0.823D-01 0.108D+01
 Coeff-En:   0.000D+00 0.100D+01
 Coeff:     -0.822D-01 0.108D+01
 Gap=     0.498 Goal=   None    Shift=    0.000
 RMSDP=1.13D-05 MaxDP=4.04D-04 DE=-7.55D-05 OVMax= 5.61D-04

 Cycle   3  Pass 0  IDiag  1:
 RMSU=  5.27D-06    CP:  1.00D+00  1.13D+00
 E= -2902.87676162799     Delta-E=       -0.000002870796 Rises=F Damp=F
 DIIS: error= 3.67D-05 at cycle   3 NSaved=   3.
 NSaved= 3 IEnMin= 3 EnMin= -2902.87676162799     IErMin= 3 ErrMin= 3.67D-05
 ErrMax= 3.67D-05 EMaxC= 1.00D-01 BMatC= 2.56D-07 BMatP= 1.93D-06
 IDIUse=1 WtCom= 1.00D+00 WtEn= 0.00D+00
 Coeff-Com: -0.386D-01 0.245D+00 0.794D+00
 Coeff:     -0.386D-01 0.245D+00 0.794D+00
 Gap=     0.498 Goal=   None    Shift=    0.000
 RMSDP=2.35D-06 MaxDP=5.10D-05 DE=-2.87D-06 OVMax= 1.29D-04

 Initial convergence to 1.0D-05 achieved.  Increase integral accuracy.
 Cycle   4  Pass 1  IDiag  1:
 E= -2902.87676187774     Delta-E=       -0.000000249755 Rises=F Damp=F
 DIIS: error= 1.00D-05 at cycle   1 NSaved=   1.
 NSaved= 1 IEnMin= 1 EnMin= -2902.87676187774     IErMin= 1 ErrMin= 1.00D-05
 ErrMax= 1.00D-05 EMaxC= 1.00D-01 BMatC= 2.01D-08 BMatP= 2.01D-08
 IDIUse=1 WtCom= 1.00D+00 WtEn= 0.00D+00
 Coeff-Com:  0.100D+01
 Coeff:      0.100D+01
 Gap=     0.498 Goal=   None    Shift=    0.000
 RMSDP=2.35D-06 MaxDP=5.10D-05 DE=-2.50D-07 OVMax= 5.75D-05

 Cycle   5  Pass 1  IDiag  1:
 RMSU=  6.67D-07    CP:  1.00D+00
 E= -2902.87676190862     Delta-E=       -0.000000030880 Rises=F Damp=F
 DIIS: error= 4.18D-06 at cycle   2 NSaved=   2.
 NSaved= 2 IEnMin= 2 EnMin= -2902.87676190862     IErMin= 2 ErrMin= 4.18D-06
 ErrMax= 4.18D-06 EMaxC= 1.00D-01 BMatC= 6.48D-09 BMatP= 2.01D-08
 IDIUse=1 WtCom= 1.00D+00 WtEn= 0.00D+00
 Coeff-Com:  0.278D+00 0.722D+00
 Coeff:      0.278D+00 0.722D+00
 Gap=     0.498 Goal=   None    Shift=    0.000
 RMSDP=2.74D-07 MaxDP=8.09D-06 DE=-3.09D-08 OVMax= 2.58D-05

 Cycle   6  Pass 1  IDiag  1:
 RMSU=  1.75D-07    CP:  1.00D+00  1.13D+00
 E= -2902.87676191555     Delta-E=       -0.000000006925 Rises=F Damp=F
 DIIS: error= 2.30D-06 at cycle   3 NSaved=   3.
 NSaved= 3 IEnMin= 3 EnMin= -2902.87676191555     IErMin= 3 ErrMin= 2.30D-06
 ErrMax= 2.30D-06 EMaxC= 1.00D-01 BMatC= 1.09D-09 BMatP= 6.48D-09
 IDIUse=1 WtCom= 1.00D+00 WtEn= 0.00D+00
 Coeff-Com: -0.267D+00-0.637D-01 0.133D+01
 Coeff:     -0.267D+00-0.637D-01 0.133D+01
 Gap=     0.498 Goal=   None    Shift=    0.000
 RMSDP=3.14D-07 MaxDP=9.66D-06 DE=-6.92D-09 OVMax= 2.30D-05

 Cycle   7  Pass 1  IDiag  1:
 RMSU=  9.19D-08    CP:  1.00D+00  1.42D+00  1.32D+00
 E= -2902.87676191834     Delta-E=       -0.000000002793 Rises=F Damp=F
 DIIS: error= 5.77D-07 at cycle   4 NSaved=   4.
 NSaved= 4 IEnMin= 4 EnMin= -2902.87676191834     IErMin= 4 ErrMin= 5.77D-07
 ErrMax= 5.77D-07 EMaxC= 1.00D-01 BMatC= 1.03D-10 BMatP= 1.09D-09
 IDIUse=1 WtCom= 1.00D+00 WtEn= 0.00D+00
 Coeff-Com: -0.997D-01-0.666D-01 0.401D+00 0.765D+00
 Coeff:     -0.997D-01-0.666D-01 0.401D+00 0.765D+00
 Gap=     0.498 Goal=   None    Shift=    0.000
 RMSDP=5.63D-08 MaxDP=1.92D-06 DE=-2.79D-09 OVMax= 4.10D-06

 Cycle   8  Pass 1  IDiag  1:
 RMSU=  2.70D-08    CP:  1.00D+00  1.44D+00  1.36D+00  1.27D+00
 E= -2902.87676191851     Delta-E=       -0.000000000165 Rises=F Damp=F
 DIIS: error= 2.39D-07 at cycle   5 NSaved=   5.
 NSaved= 5 IEnMin= 5 EnMin= -2902.87676191851     IErMin= 5 ErrMin= 2.39D-07
 ErrMax= 2.39D-07 EMaxC= 1.00D-01 BMatC= 1.09D-11 BMatP= 1.03D-10
 IDIUse=1 WtCom= 1.00D+00 WtEn= 0.00D+00
 Coeff-Com:  0.699D-01 0.304D-01-0.329D+00-0.172D+00 0.140D+01
 Coeff:      0.699D-01 0.304D-01-0.329D+00-0.172D+00 0.140D+01
 Gap=     0.498 Goal=   None    Shift=    0.000
 RMSDP=4.54D-08 MaxDP=1.11D-06 DE=-1.65D-10 OVMax= 3.54D-06

 Cycle   9  Pass 1  IDiag  1:
 RMSU=  8.40D-09    CP:  1.00D+00  1.44D+00  1.37D+00  1.58D+00  1.40D+00
 E= -2902.87676191855     Delta-E=       -0.000000000046 Rises=F Damp=F
 DIIS: error= 5.77D-08 at cycle   6 NSaved=   6.
 NSaved= 6 IEnMin= 6 EnMin= -2902.87676191855     IErMin= 6 ErrMin= 5.77D-08
 ErrMax= 5.77D-08 EMaxC= 1.00D-01 BMatC= 6.70D-13 BMatP= 1.09D-11
 IDIUse=1 WtCom= 1.00D+00 WtEn= 0.00D+00
 Coeff-Com: -0.266D-01-0.901D-02 0.125D+00 0.358D-01-0.610D+00 0.148D+01
 Coeff:     -0.266D-01-0.901D-02 0.125D+00 0.358D-01-0.610D+00 0.148D+01
 Gap=     0.498 Goal=   None    Shift=    0.000
 RMSDP=9.87D-09 MaxDP=1.96D-07 DE=-4.64D-11 OVMax= 1.13D-06

 SCF Done:  E(RHF) =  -2902.87676192     A.U. after    9 cycles
             Convg  =    0.9874D-08             -V/T =  2.0001
 KE= 2.902626777601D+03 PE=-7.228403845734D+03 EE= 1.278543609486D+03
 Leave Link  502 at Wed Dec 18 16:15:20 2019, MaxMem=  268435456 cpu:      70.4
 (Enter /home/matheus/.gaussian/g09/l801.exe)
 Windowed orbitals will be sorted by symmetry type.
 ExpMin= 2.53D-02 ExpMax= 1.17D+07 ExpMxC= 1.33D+04 IAcc=3 IRadAn=         5 AccDes= 0.00D+00
 HarFok:  IExCor=  205 AccDes= 0.00D+00 IRadAn=         5 IDoV=-2
 ScaDFX=  1.000000  1.000000  1.000000  1.000000
 DSYEVD returned Info=          93 IAlg= 4 N=    46 NDim=    46 NE2=     4547561 trying DSYEV.
 DSYEVD returned Info=          89 IAlg= 4 N=    59 NDim=    59 NE2=     4547561 trying DSYEV.
 Largest valence mixing into a core orbital is  1.45D-04
 Largest core mixing into a valence orbital is  2.64D-05
 Range of M.O.s used for correlation:    12   197
 NBasis=   197 NAE=    27 NBE=    27 NFC=    11 NFV=     0
 NROrb=    186 NOA=    16 NOB=    16 NVA=   170 NVB=   170

 **** Warning!!: The largest alpha MO coefficient is  0.16621220D+02

 Leave Link  801 at Wed Dec 18 16:15:20 2019, MaxMem=  268435456 cpu:       0.2
 (Enter /home/matheus/.gaussian/g09/l804.exe)
 Closed-shell transformation, MDV=   268435456 ITran=4 ISComp=1.
 Semi-Direct transformation.
 ModeAB=           2 MOrb=            16 LenV=     267325960
 LASXX=     48528660 LTotXX=    48528660 LenRXX=    48528660
 LTotAB=    49298776 MaxLAS=    78372960 LenRXY=    78372960
 NonZer=    97057320 LenScr=   146313216 LnRSAI=           0
 LnScr1=           0 LExtra=           0 Total=    273214836
 MaxDsk=          -1 SrtSym=           F ITran=            4
 DoSDTr:  NPSUse=  2
 JobTyp=0 Pass  1:  I=   1 to  16.
 (rs|ai) integrals will be sorted in core.
 Complete sort for first half transformation.
 First half transformation complete.
 Begin second half transformation for I=  10.
 Begin second half transformation for I=  10.
 Complete sort for second half transformation.
 Second half transformation complete.
 SymMOI:  orbitals are not symmetric.
 Spin components of T(2) and E(2):
     alpha-alpha T2 =       0.2602014820D-01 E2=     -0.9989061570D-01
     alpha-beta  T2 =       0.1422167355D+00 E2=     -0.5566264706D+00
     beta-beta   T2 =       0.2602014820D-01 E2=     -0.9989061570D-01
 ANorm=    0.1092820677D+01
 E2 =    -0.7564077021D+00 EUMP2 =    -0.29036331696206D+04
 Leave Link  804 at Wed Dec 18 16:15:44 2019, MaxMem=  268435456 cpu:      47.5
 (Enter /home/matheus/.gaussian/g09/l913.exe)
 CIDS:  MDV=   268435456.
 Frozen-core window:  NFC=  11 NFV=   0.
 IFCWin=0 IBDFC=1 NFBD=     0     0 NFCmp=     0     0 NFFFC=     0     0
 Using DD3R+UMP44R for 1st iteration, S=T.
 Using DD4RQ for 2nd and later iterations.
 Would need an additional       431206676 words for in-memory AO integral storage.
 MP4(SDTQ)
 =========
 DD1Dir will call FoFDir   1 times, MxPair=       272
 NAB=   136 NAA=     0 NBB=     0 NumPrc=  2.
 Integrals replicated using symmetry in FoFDir.
 MinBra= 0 MaxBra= 3 Meth= 1.
 IRaf=       0 NMat= 272 IRICut=     340 DoRegI=T DoRafI=T ISym2E= 2 JSym2E=2.
 MP4(D)= -0.14927446D-01
 MP4(S)= -0.64991580D-02
 MP4(R+Q)=  0.15464129D-01
 T4(AAA)= -0.10466932D-02
 T4(AAB)= -0.14234977D-01
 Time for triples=     1349.83 seconds.
 MP4(T)=   -0.30563340D-01
 E3=       -0.11320421D-01        EUMP3=      -0.29036444900D+04
 E4(DQ)=    0.53668314D-03        UMP4(DQ)=   -0.29036439534D+04
 E4(SDQ)=  -0.59624749D-02        UMP4(SDQ)=  -0.29036504525D+04
 E4(SDTQ)= -0.36525815D-01        UMP4(SDTQ)= -0.29036810159D+04
 VARIATIONAL ENERGIES WITH THE FIRST-ORDER WAVEFUNCTION:
 E(VAR1)=  -0.29035196119D+04     E(CISD,4)=  -0.29035189791D+04
 Largest amplitude= 4.83D-02
 Leave Link  913 at Wed Dec 18 16:27:53 2019, MaxMem=  268435456 cpu:    1449.1
 (Enter /home/matheus/.gaussian/g09/l108.exe)
 Variable Step   Value    
 -------- ---- -----------
     1       3    6.236096
 Leave Link  108 at Wed Dec 18 16:27:53 2019, MaxMem=  268435456 cpu:       0.0
 (Enter /home/matheus/.gaussian/g09/l202.exe)
 ---------------------------------------------------------------------------------------------------
                            Z-MATRIX (ANGSTROMS AND DEGREES)
   CD    Cent   Atom    N1       Length/X        N2       Alpha/Y        N3        Beta/Z          J
 ---------------------------------------------------------------------------------------------------
      1      1  O        0   0.000000          0.000000          0.725000
      2      2  O        0   0.000000          0.000000         -0.725000
      3      3  H        0  -0.459360          0.795635          1.023510
      4      4  H        0   0.000000          0.918721         -1.023510
      5      5  Kr       0   0.000000          3.300000          0.000000
 ---------------------------------------------------------------------------------------------------
                         Z-Matrix orientation:                         
 ---------------------------------------------------------------------
 Center     Atomic      Atomic             Coordinates (Angstroms)
 Number     Number       Type             X           Y           Z
 ---------------------------------------------------------------------
      1          8           0        0.000000    0.000000    0.725000
      2          8           0        0.000000    0.000000   -0.725000
      3          1           0       -0.459360    0.795635    1.023510
      4          1           0        0.000000    0.918721   -1.023510
      5         36           0        0.000000    3.300000    0.000000
 ---------------------------------------------------------------------
                    Distance matrix (angstroms):
                    1          2          3          4          5
     1  O    0.000000
     2  O    1.450000   0.000000
     3  H    0.966000   1.975180   0.000000
     4  H    1.975180   0.966000   2.101537   0.000000
     5  Kr   3.378702   3.378702   2.744162   2.591923   0.000000
 Stoichiometry    H2KrO2
 Framework group  C1[X(H2KrO2)]
 Deg. of freedom     9
 Full point group                 C1      NOp   1
 RotChk:  IX=0 Diff= 1.63D-04
 Largest Abelian subgroup         C1      NOp   1
 Largest concise Abelian subgroup C1      NOp   1
                         Standard orientation:                         
 ---------------------------------------------------------------------
 Center     Atomic      Atomic             Coordinates (Angstroms)
 Number     Number       Type             X           Y           Z
 ---------------------------------------------------------------------
      1          8           0       -2.232486   -0.720815   -0.053159
      2          8           0       -2.230853    0.727687    0.012720
      3          1           0       -1.439637   -1.040971    0.396337
      4          1           0       -1.311809    1.024633    0.031107
      5         36           0        1.068282   -0.001073   -0.002887
 ---------------------------------------------------------------------
 Rotational constants (GHZ):     26.4113457      1.9659000      1.8323191
 Leave Link  202 at Wed Dec 18 16:27:53 2019, MaxMem=  268435456 cpu:       0.0
 (Enter /home/matheus/.gaussian/g09/l301.exe)
 Standard basis: Aug-CC-pVTZ (5D, 7F)
 Ernie: Thresh=  0.10000D-02 Tol=  0.10000D-05 Strict=F.
 Ernie:  38 primitive shells out of 205 were deleted.
 There are   197 symmetry adapted basis functions of A   symmetry.
 Integral buffers will be    131072 words long.
 Raffenetti 1 integral format.
 Two-electron integral symmetry is turned on.
   197 basis functions,   415 primitive gaussians,   229 cartesian basis functions
    27 alpha electrons       27 beta electrons
       nuclear repulsion energy       141.1660593904 Hartrees.
 IExCor=    0 DFT=F Ex=HF Corr=None ExCW=0 ScaHFX=  1.000000
 ScaDFX=  1.000000  1.000000  1.000000  1.000000 ScalE2=  1.000000  1.000000
 IRadAn=      5 IRanWt=     -1 IRanGd=            0 ICorTp=0
 NAtoms=    5 NActive=    5 NUniq=    5 SFac= 1.00D+00 NAtFMM=   60 NAOKFM=F Big=F
 Leave Link  301 at Wed Dec 18 16:27:53 2019, MaxMem=  268435456 cpu:       0.0
 (Enter /home/matheus/.gaussian/g09/l302.exe)
 NPDir=0 NMtPBC=     1 NCelOv=     1 NCel=       1 NClECP=     1 NCelD=      1
         NCelK=      1 NCelE2=     1 NClLst=     1 CellRange=     0.0.
 One-electron integrals computed using PRISM.
 NBasis=   197 RedAO= T  NBF=   197
 NBsUse=   197 1.00D-06 NBFU=   197
 Leave Link  302 at Wed Dec 18 16:27:53 2019, MaxMem=  268435456 cpu:       0.2
 (Enter /home/matheus/.gaussian/g09/l303.exe)
 DipDrv:  MaxL=1.
 Leave Link  303 at Wed Dec 18 16:27:53 2019, MaxMem=  268435456 cpu:       0.0
 (Enter /home/matheus/.gaussian/g09/l401.exe)
 Initial guess read from the read-write file.
 B after Tr=     0.000000    0.000000    0.000000
         Rot=    1.000000    0.000000    0.000000    0.000000 Ang=   0.00 deg.
 Guess basis will be translated and rotated to current coordinates.
 Initial guess orbital symmetries:
       Occupied  (A) (A) (A) (A) (A) (A) (A) (A) (A) (A) (A) (A)
                 (A) (A) (A) (A) (A) (A) (A) (A) (A) (A) (A) (A)
                 (A) (A) (A)
       Virtual   (A) (A) (A) (A) (A) (A) (A) (A) (A) (A) (A) (A)
                 (A) (A) (A) (A) (A) (A) (A) (A) (A) (A) (A) (A)
                 (A) (A) (A) (A) (A) (A) (A) (A) (A) (A) (A) (A)
                 (A) (A) (A) (A) (A) (A) (A) (A) (A) (A) (A) (A)
                 (A) (A) (A) (A) (A) (A) (A) (A) (A) (A) (A) (A)
                 (A) (A) (A) (A) (A) (A) (A) (A) (A) (A) (A) (A)
                 (A) (A) (A) (A) (A) (A) (A) (A) (A) (A) (A) (A)
                 (A) (A) (A) (A) (A) (A) (A) (A) (A) (A) (A) (A)
                 (A) (A) (A) (A) (A) (A) (A) (A) (A) (A) (A) (A)
                 (A) (A) (A) (A) (A) (A) (A) (A) (A) (A) (A) (A)
                 (A) (A) (A) (A) (A) (A) (A) (A) (A) (A) (A) (A)
                 (A) (A) (A) (A) (A) (A) (A) (A) (A) (A) (A) (A)
                 (A) (A) (A) (A) (A) (A) (A) (A) (A) (A) (A) (A)
                 (A) (A) (A) (A) (A) (A) (A) (A) (A) (A) (A) (A)
                 (A) (A)
 The electronic state of the initial guess is 1-A.
 Generating alternative initial guess.
 Harris functional with IExCor=  205 diagonalized for initial guess.
 ExpMin= 2.53D-02 ExpMax= 1.17D+07 ExpMxC= 1.33D+04 IAcc=3 IRadAn=         5 AccDes= 0.00D+00
 HarFok:  IExCor=  205 AccDes= 0.00D+00 IRadAn=         5 IDoV= 1
 ScaDFX=  1.000000  1.000000  1.000000  1.000000
 FoFCou: FMM=F IPFlag=           0 FMFlag=      100000 FMFlg1=           0
         NFxFlg=           0 DoJE=T BraDBF=F KetDBF=T FulRan=T
         Omega=  0.000000  0.000000  1.000000  0.000000  0.000000 ICntrl=     500 IOpCl=  0
         NMat0=    1 NMatS0=    1 NMatT0=    0 NMatD0=    1 NMtDS0=    0 NMtDT0=    0
         I1Cent=           4 NGrid=           0.
 Petite list used in FoFCou.
 Harris En= -2901.92984747741    
 Leave Link  401 at Wed Dec 18 16:27:54 2019, MaxMem=  268435456 cpu:       1.3
 (Enter /home/matheus/.gaussian/g09/l502.exe)
 Closed shell SCF:
 Requested convergence on RMS density matrix=1.00D-08 within 128 cycles.
 Requested convergence on MAX density matrix=1.00D-06.
 Requested convergence on             energy=1.00D-06.
 No special actions if energy rises.
 Using DIIS extrapolation, IDIIS=  1040.
 Integral symmetry usage will be decided dynamically.
 IEnd=      178489 IEndB=      178489 NGot=   268435456 MDV=   268326278
 LenX=   268326278 LenY=   268273396
 Fock matrices will be formed incrementally for  20 cycles.

 Cycle   1  Pass 0  IDiag  1:
 FoFCou: FMM=F IPFlag=           0 FMFlag=      100000 FMFlg1=           0
         NFxFlg=           0 DoJE=F BraDBF=F KetDBF=F FulRan=T
         Omega=  0.000000  0.000000  1.000000  0.000000  0.000000 ICntrl=       0 IOpCl=  0
         NMat0=    1 NMatS0=    1 NMatT0=    0 NMatD0=    1 NMtDS0=    0 NMtDT0=    0
         I1Cent=           0 NGrid=           0.
 Symmetry not used in FoFCou.
 E= -2902.87834581785    
 DIIS: error= 5.68D-04 at cycle   1 NSaved=   1.
 NSaved= 1 IEnMin= 1 EnMin= -2902.87834581785     IErMin= 1 ErrMin= 5.68D-04
 ErrMax= 5.68D-04 EMaxC= 1.00D-01 BMatC= 4.89D-05 BMatP= 4.89D-05
 IDIUse=3 WtCom= 9.94D-01 WtEn= 5.68D-03
 Coeff-Com:  0.100D+01
 Coeff-En:   0.100D+01
 Coeff:      0.100D+01
 Gap=     0.500 Goal=   None    Shift=    0.000
 RMSDP=5.63D-05 MaxDP=1.54D-03              OVMax= 2.38D-03

 Cycle   2  Pass 0  IDiag  1:
 RMSU=  3.98D-05    CP:  1.00D+00
 E= -2902.87840299061     Delta-E=       -0.000057172759 Rises=F Damp=F
 DIIS: error= 8.73D-05 at cycle   2 NSaved=   2.
 NSaved= 2 IEnMin= 2 EnMin= -2902.87840299061     IErMin= 2 ErrMin= 8.73D-05
 ErrMax= 8.73D-05 EMaxC= 1.00D-01 BMatC= 1.33D-06 BMatP= 4.89D-05
 IDIUse=1 WtCom= 1.00D+00 WtEn= 0.00D+00
 Coeff-Com: -0.877D-01 0.109D+01
 Coeff:     -0.877D-01 0.109D+01
 Gap=     0.499 Goal=   None    Shift=    0.000
 RMSDP=9.96D-06 MaxDP=3.34D-04 DE=-5.72D-05 OVMax= 5.28D-04

 Initial convergence to 1.0D-05 achieved.  Increase integral accuracy.
 Cycle   3  Pass 1  IDiag  1:
 E= -2902.87840511401     Delta-E=       -0.000002123398 Rises=F Damp=F
 DIIS: error= 2.70D-05 at cycle   1 NSaved=   1.
 NSaved= 1 IEnMin= 1 EnMin= -2902.87840511401     IErMin= 1 ErrMin= 2.70D-05
 ErrMax= 2.70D-05 EMaxC= 1.00D-01 BMatC= 1.51D-07 BMatP= 1.51D-07
 IDIUse=1 WtCom= 1.00D+00 WtEn= 0.00D+00
 Coeff-Com:  0.100D+01
 Coeff:      0.100D+01
 Gap=     0.499 Goal=   None    Shift=    0.000
 RMSDP=9.96D-06 MaxDP=3.34D-04 DE=-2.12D-06 OVMax= 1.33D-04

 Cycle   4  Pass 1  IDiag  1:
 RMSU=  1.66D-06    CP:  1.00D+00
 E= -2902.87840526421     Delta-E=       -0.000000150201 Rises=F Damp=F
 DIIS: error= 9.72D-06 at cycle   2 NSaved=   2.
 NSaved= 2 IEnMin= 2 EnMin= -2902.87840526421     IErMin= 2 ErrMin= 9.72D-06
 ErrMax= 9.72D-06 EMaxC= 1.00D-01 BMatC= 4.44D-08 BMatP= 1.51D-07
 IDIUse=1 WtCom= 1.00D+00 WtEn= 0.00D+00
 Coeff-Com:  0.320D+00 0.680D+00
 Coeff:      0.320D+00 0.680D+00
 Gap=     0.499 Goal=   None    Shift=    0.000
 RMSDP=6.88D-07 MaxDP=3.58D-05 DE=-1.50D-07 OVMax= 4.67D-05

 Cycle   5  Pass 1  IDiag  1:
 RMSU=  4.86D-07    CP:  1.00D+00  9.87D-01
 E= -2902.87840529970     Delta-E=       -0.000000035486 Rises=F Damp=F
 DIIS: error= 3.77D-06 at cycle   3 NSaved=   3.
 NSaved= 3 IEnMin= 3 EnMin= -2902.87840529970     IErMin= 3 ErrMin= 3.77D-06
 ErrMax= 3.77D-06 EMaxC= 1.00D-01 BMatC= 3.03D-09 BMatP= 4.44D-08
 IDIUse=1 WtCom= 1.00D+00 WtEn= 0.00D+00
 Coeff-Com: -0.106D+00-0.532D-01 0.116D+01
 Coeff:     -0.106D+00-0.532D-01 0.116D+01
 Gap=     0.499 Goal=   None    Shift=    0.000
 RMSDP=4.28D-07 MaxDP=1.21D-05 DE=-3.55D-08 OVMax= 3.46D-05

 Cycle   6  Pass 1  IDiag  1:
 RMSU=  1.41D-07    CP:  1.00D+00  1.11D+00  1.36D+00
 E= -2902.87840530661     Delta-E=       -0.000000006911 Rises=F Damp=F
 DIIS: error= 1.54D-06 at cycle   4 NSaved=   4.
 NSaved= 4 IEnMin= 4 EnMin= -2902.87840530661     IErMin= 4 ErrMin= 1.54D-06
 ErrMax= 1.54D-06 EMaxC= 1.00D-01 BMatC= 6.78D-10 BMatP= 3.03D-09
 IDIUse=1 WtCom= 1.00D+00 WtEn= 0.00D+00
 Coeff-Com: -0.821D-01-0.125D+00 0.348D+00 0.859D+00
 Coeff:     -0.821D-01-0.125D+00 0.348D+00 0.859D+00
 Gap=     0.499 Goal=   None    Shift=    0.000
 RMSDP=1.62D-07 MaxDP=5.40D-06 DE=-6.91D-09 OVMax= 1.28D-05

 Cycle   7  Pass 1  IDiag  1:
 RMSU=  6.59D-08    CP:  1.00D+00  1.14D+00  1.51D+00  1.17D+00
 E= -2902.87840530769     Delta-E=       -0.000000001083 Rises=F Damp=F
 DIIS: error= 4.69D-07 at cycle   5 NSaved=   5.
 NSaved= 5 IEnMin= 5 EnMin= -2902.87840530769     IErMin= 5 ErrMin= 4.69D-07
 ErrMax= 4.69D-07 EMaxC= 1.00D-01 BMatC= 4.66D-11 BMatP= 6.78D-10
 IDIUse=1 WtCom= 1.00D+00 WtEn= 0.00D+00
 Coeff-Com:  0.684D-02 0.948D-03-0.883D-01 0.250D-01 0.106D+01
 Coeff:      0.684D-02 0.948D-03-0.883D-01 0.250D-01 0.106D+01
 Gap=     0.499 Goal=   None    Shift=    0.000
 RMSDP=6.13D-08 MaxDP=1.47D-06 DE=-1.08D-09 OVMax= 4.53D-06

 Cycle   8  Pass 1  IDiag  1:
 RMSU=  1.80D-08    CP:  1.00D+00  1.13D+00  1.54D+00  1.35D+00  1.37D+00
 E= -2902.87840530781     Delta-E=       -0.000000000116 Rises=F Damp=F
 DIIS: error= 2.02D-07 at cycle   6 NSaved=   6.
 NSaved= 6 IEnMin= 6 EnMin= -2902.87840530781     IErMin= 6 ErrMin= 2.02D-07
 ErrMax= 2.02D-07 EMaxC= 1.00D-01 BMatC= 7.18D-12 BMatP= 4.66D-11
 IDIUse=1 WtCom= 1.00D+00 WtEn= 0.00D+00
 Coeff-Com:  0.141D-01 0.202D-01-0.642D-01-0.145D+00 0.894D-01 0.109D+01
 Coeff:      0.141D-01 0.202D-01-0.642D-01-0.145D+00 0.894D-01 0.109D+01
 Gap=     0.499 Goal=   None    Shift=    0.000
 RMSDP=2.99D-08 MaxDP=8.23D-07 DE=-1.16D-10 OVMax= 2.52D-06

 Cycle   9  Pass 1  IDiag  1:
 RMSU=  6.92D-09    CP:  1.00D+00  1.13D+00  1.55D+00  1.42D+00  1.58D+00
                    CP:  1.30D+00
 E= -2902.87840530783     Delta-E=       -0.000000000023 Rises=F Damp=F
 DIIS: error= 5.60D-08 at cycle   7 NSaved=   7.
 NSaved= 7 IEnMin= 7 EnMin= -2902.87840530783     IErMin= 7 ErrMin= 5.60D-08
 ErrMax= 5.60D-08 EMaxC= 1.00D-01 BMatC= 5.73D-13 BMatP= 7.18D-12
 IDIUse=1 WtCom= 1.00D+00 WtEn= 0.00D+00
 Coeff-Com: -0.895D-02-0.128D-01 0.455D-01 0.852D-01-0.127D+00-0.639D+00
 Coeff-Com:  0.166D+01
 Coeff:     -0.895D-02-0.128D-01 0.455D-01 0.852D-01-0.127D+00-0.639D+00
 Coeff:      0.166D+01
[...]
      2      2  O        0   0.000000          0.000000         -0.725000
      3      3  H        0  -0.459360          0.795635          1.023510
      4      4  H        0   0.000000          0.918721         -1.023510
      5      5  Kr       0   0.000000          5.000000          0.000000
 ---------------------------------------------------------------------------------------------------
                         Z-Matrix orientation:                         
 ---------------------------------------------------------------------
 Center     Atomic      Atomic             Coordinates (Angstroms)
 Number     Number       Type             X           Y           Z
 ---------------------------------------------------------------------
      1          8           0        0.000000    0.000000    0.725000
      2          8           0        0.000000    0.000000   -0.725000
      3          1           0       -0.459360    0.795635    1.023510
      4          1           0        0.000000    0.918721   -1.023510
      5         36           0        0.000000    5.000000    0.000000
 ---------------------------------------------------------------------
                    Distance matrix (angstroms):
                    1          2          3          4          5
     1  O    0.000000
     2  O    1.450000   0.000000
     3  H    0.966000   1.975180   0.000000
     4  H    1.975180   0.966000   2.101537   0.000000
     5  Kr   5.052289   5.052289   4.351467   4.207661   0.000000
 Stoichiometry    H2KrO2
 Framework group  C1[X(H2KrO2)]
 Deg. of freedom     9
 Full point group                 C1      NOp   1
 RotChk:  IX=0 Diff= 9.02D-05
 Largest Abelian subgroup         C1      NOp   1
 Largest concise Abelian subgroup C1      NOp   1
                         Standard orientation:                         
 ---------------------------------------------------------------------
 Center     Atomic      Atomic             Coordinates (Angstroms)
 Number     Number       Type             X           Y           Z
 ---------------------------------------------------------------------
      1          8           0       -3.365349   -0.721703   -0.055068
      2          8           0       -3.364686    0.726799    0.010824
      3          1           0       -2.571729   -1.041290    0.393470
      4          1           0       -2.445837    1.024411    0.028109
      5         36           0        1.634940   -0.000663   -0.001879
 ---------------------------------------------------------------------
 Rotational constants (GHZ):     26.4122995      0.8503233      0.8243287
 Leave Link  202 at Wed Dec 18 20:08:51 2019, MaxMem=  268435456 cpu:       0.0
 (Enter /home/matheus/.gaussian/g09/l301.exe)
 Standard basis: Aug-CC-pVTZ (5D, 7F)
 Ernie: Thresh=  0.10000D-02 Tol=  0.10000D-05 Strict=F.
 Ernie:  38 primitive shells out of 205 were deleted.
 There are   197 symmetry adapted basis functions of A   symmetry.
 Integral buffers will be    131072 words long.
 Raffenetti 1 integral format.
 Two-electron integral symmetry is turned on.
   197 basis functions,   415 primitive gaussians,   229 cartesian basis functions
    27 alpha electrons       27 beta electrons
       nuclear repulsion energy       105.8958042385 Hartrees.
 IExCor=    0 DFT=F Ex=HF Corr=None ExCW=0 ScaHFX=  1.000000
 ScaDFX=  1.000000  1.000000  1.000000  1.000000 ScalE2=  1.000000  1.000000
 IRadAn=      5 IRanWt=     -1 IRanGd=            0 ICorTp=0
 NAtoms=    5 NActive=    5 NUniq=    5 SFac= 1.00D+00 NAtFMM=   60 NAOKFM=F Big=F
 Leave Link  301 at Wed Dec 18 20:08:51 2019, MaxMem=  268435456 cpu:       0.0
 (Enter /home/matheus/.gaussian/g09/l302.exe)
 NPDir=0 NMtPBC=     1 NCelOv=     1 NCel=       1 NClECP=     1 NCelD=      1
         NCelK=      1 NCelE2=     1 NClLst=     1 CellRange=     0.0.
 One-electron integrals computed using PRISM.
 NBasis=   197 RedAO= T  NBF=   197
 NBsUse=   197 1.00D-06 NBFU=   197
 Leave Link  302 at Wed Dec 18 20:08:51 2019, MaxMem=  268435456 cpu:       0.2
 (Enter /home/matheus/.gaussian/g09/l303.exe)
 DipDrv:  MaxL=1.
 Leave Link  303 at Wed Dec 18 20:08:51 2019, MaxMem=  268435456 cpu:       0.1
 (Enter /home/matheus/.gaussian/g09/l401.exe)
 Initial guess read from the read-write file.
 B after Tr=     0.000000    0.000000    0.000000
         Rot=    1.000000    0.000000    0.000000    0.000000 Ang=   0.00 deg.
 Guess basis will be translated and rotated to current coordinates.
 Initial guess orbital symmetries:
       Occupied  (A) (A) (A) (A) (A) (A) (A) (A) (A) (A) (A) (A)
                 (A) (A) (A) (A) (A) (A) (A) (A) (A) (A) (A) (A)
                 (A) (A) (A)
       Virtual   (A) (A) (A) (A) (A) (A) (A) (A) (A) (A) (A) (A)
                 (A) (A) (A) (A) (A) (A) (A) (A) (A) (A) (A) (A)
                 (A) (A) (A) (A) (A) (A) (A) (A) (A) (A) (A) (A)
                 (A) (A) (A) (A) (A) (A) (A) (A) (A) (A) (A) (A)
                 (A) (A) (A) (A) (A) (A) (A) (A) (A) (A) (A) (A)
                 (A) (A) (A) (A) (A) (A) (A) (A) (A) (A) (A) (A)
                 (A) (A) (A) (A) (A) (A) (A) (A) (A) (A) (A) (A)
                 (A) (A) (A) (A) (A) (A) (A) (A) (A) (A) (A) (A)
                 (A) (A) (A) (A) (A) (A) (A) (A) (A) (A) (A) (A)
                 (A) (A) (A) (A) (A) (A) (A) (A) (A) (A) (A) (A)
                 (A) (A) (A) (A) (A) (A) (A) (A) (A) (A) (A) (A)
                 (A) (A) (A) (A) (A) (A) (A) (A) (A) (A) (A) (A)
                 (A) (A) (A) (A) (A) (A) (A) (A) (A) (A) (A) (A)
                 (A) (A) (A) (A) (A) (A) (A) (A) (A) (A) (A) (A)
                 (A) (A)
 The electronic state of the initial guess is 1-A.
 Generating alternative initial guess.
 Harris functional with IExCor=  205 diagonalized for initial guess.
 ExpMin= 2.53D-02 ExpMax= 1.17D+07 ExpMxC= 1.33D+04 IAcc=3 IRadAn=         5 AccDes= 0.00D+00
 HarFok:  IExCor=  205 AccDes= 0.00D+00 IRadAn=         5 IDoV= 1
 ScaDFX=  1.000000  1.000000  1.000000  1.000000
 FoFCou: FMM=F IPFlag=           0 FMFlag=      100000 FMFlg1=           0
         NFxFlg=           0 DoJE=T BraDBF=F KetDBF=T FulRan=T
         Omega=  0.000000  0.000000  1.000000  0.000000  0.000000 ICntrl=     500 IOpCl=  0
         NMat0=    1 NMatS0=    1 NMatT0=    0 NMatD0=    1 NMtDS0=    0 NMtDT0=    0
         I1Cent=           4 NGrid=           0.
 Petite list used in FoFCou.
 Harris En= -2901.93136620481    
 Leave Link  401 at Wed Dec 18 20:08:51 2019, MaxMem=  268435456 cpu:       1.1
 (Enter /home/matheus/.gaussian/g09/l502.exe)
 Closed shell SCF:
 Requested convergence on RMS density matrix=1.00D-08 within 128 cycles.
 Requested convergence on MAX density matrix=1.00D-06.
 Requested convergence on             energy=1.00D-06.
 No special actions if energy rises.
 Using DIIS extrapolation, IDIIS=  1040.
 Integral symmetry usage will be decided dynamically.
 IEnd=      178489 IEndB=      178489 NGot=   268435456 MDV=   268326278
 LenX=   268326278 LenY=   268273396
 Fock matrices will be formed incrementally for  20 cycles.

 Cycle   1  Pass 0  IDiag  1:
 FoFCou: FMM=F IPFlag=           0 FMFlag=      100000 FMFlg1=           0
         NFxFlg=           0 DoJE=F BraDBF=F KetDBF=F FulRan=T
         Omega=  0.000000  0.000000  1.000000  0.000000  0.000000 ICntrl=       0 IOpCl=  0
         NMat0=    1 NMatS0=    1 NMatT0=    0 NMatD0=    1 NMtDS0=    0 NMtDT0=    0
         I1Cent=           0 NGrid=           0.
 Symmetry not used in FoFCou.
 E= -2902.88190306914    
 DIIS: error= 4.87D-05 at cycle   1 NSaved=   1.
 NSaved= 1 IEnMin= 1 EnMin= -2902.88190306914     IErMin= 1 ErrMin= 4.87D-05
 ErrMax= 4.87D-05 EMaxC= 1.00D-01 BMatC= 7.26D-07 BMatP= 7.26D-07
 IDIUse=1 WtCom= 1.00D+00 WtEn= 0.00D+00
 Coeff-Com:  0.100D+01
 Coeff:      0.100D+01
 Gap=     0.499 Goal=   None    Shift=    0.000
 RMSDP=1.30D-05 MaxDP=3.71D-04              OVMax= 4.14D-04

 Cycle   2  Pass 0  IDiag  1:
 RMSU=  9.16D-06    CP:  1.00D+00
 E= -2902.88190388472     Delta-E=       -0.000000815579 Rises=F Damp=F
 DIIS: error= 1.38D-05 at cycle   2 NSaved=   2.
 NSaved= 2 IEnMin= 2 EnMin= -2902.88190388472     IErMin= 2 ErrMin= 1.38D-05
 ErrMax= 1.38D-05 EMaxC= 1.00D-01 BMatC= 2.44D-08 BMatP= 7.26D-07
 IDIUse=1 WtCom= 1.00D+00 WtEn= 0.00D+00
 Coeff-Com: -0.358D-03 0.100D+01
 Coeff:     -0.358D-03 0.100D+01
 Gap=     0.498 Goal=   None    Shift=    0.000
 RMSDP=1.49D-06 MaxDP=3.76D-05 DE=-8.16D-07 OVMax= 7.06D-05

 Initial convergence to 1.0D-05 achieved.  Increase integral accuracy.
 Cycle   3  Pass 1  IDiag  1:
 E= -2902.88190391350     Delta-E=       -0.000000028786 Rises=F Damp=F
 DIIS: error= 3.66D-06 at cycle   1 NSaved=   1.
 NSaved= 1 IEnMin= 1 EnMin= -2902.88190391350     IErMin= 1 ErrMin= 3.66D-06
 ErrMax= 3.66D-06 EMaxC= 1.00D-01 BMatC= 1.61D-09 BMatP= 1.61D-09
 IDIUse=1 WtCom= 1.00D+00 WtEn= 0.00D+00
 Coeff-Com:  0.100D+01
 Coeff:      0.100D+01
 Gap=     0.498 Goal=   None    Shift=    0.000
 RMSDP=1.49D-06 MaxDP=3.76D-05 DE=-2.88D-08 OVMax= 3.00D-05

 Cycle   4  Pass 1  IDiag  1:
 RMSU=  2.07D-07    CP:  1.00D+00
 E= -2902.88190391594     Delta-E=       -0.000000002434 Rises=F Damp=F
 DIIS: error= 1.63D-06 at cycle   2 NSaved=   2.
 NSaved= 2 IEnMin= 2 EnMin= -2902.88190391594     IErMin= 2 ErrMin= 1.63D-06
 ErrMax= 1.63D-06 EMaxC= 1.00D-01 BMatC= 1.83D-10 BMatP= 1.61D-09
 IDIUse=1 WtCom= 1.00D+00 WtEn= 0.00D+00
 Coeff-Com:  0.153D+00 0.847D+00
 Coeff:      0.153D+00 0.847D+00
 Gap=     0.498 Goal=   None    Shift=    0.000
 RMSDP=7.82D-08 MaxDP=3.50D-06 DE=-2.43D-09 OVMax= 6.35D-06

 Cycle   5  Pass 1  IDiag  1:
 RMSU=  4.37D-08    CP:  1.00D+00  1.16D+00
 E= -2902.88190391619     Delta-E=       -0.000000000257 Rises=F Damp=F
 DIIS: error= 3.50D-07 at cycle   3 NSaved=   3.
 NSaved= 3 IEnMin= 3 EnMin= -2902.88190391619     IErMin= 3 ErrMin= 3.50D-07
 ErrMax= 3.50D-07 EMaxC= 1.00D-01 BMatC= 2.27D-11 BMatP= 1.83D-10
 IDIUse=1 WtCom= 1.00D+00 WtEn= 0.00D+00
 Coeff-Com: -0.985D-01-0.837D-01 0.118D+01
 Coeff:     -0.985D-01-0.837D-01 0.118D+01
 Gap=     0.498 Goal=   None    Shift=    0.000
 RMSDP=4.85D-08 MaxDP=2.58D-06 DE=-2.57D-10 OVMax= 5.14D-06

 Cycle   6  Pass 1  IDiag  1:
 RMSU=  1.26D-08    CP:  1.00D+00  1.30D+00  1.31D+00
 E= -2902.88190391625     Delta-E=       -0.000000000058 Rises=F Damp=F
 DIIS: error= 1.64D-07 at cycle   4 NSaved=   4.
 NSaved= 4 IEnMin= 4 EnMin= -2902.88190391625     IErMin= 4 ErrMin= 1.64D-07
 ErrMax= 1.64D-07 EMaxC= 1.00D-01 BMatC= 5.01D-12 BMatP= 2.27D-11
 IDIUse=1 WtCom= 1.00D+00 WtEn= 0.00D+00
 Coeff-Com: -0.537D-01-0.108D+00 0.458D+00 0.704D+00
 Coeff:     -0.537D-01-0.108D+00 0.458D+00 0.704D+00
 Gap=     0.498 Goal=   None    Shift=    0.000
 RMSDP=9.94D-09 MaxDP=4.62D-07 DE=-5.82D-11 OVMax= 9.83D-07

 SCF Done:  E(RHF) =  -2902.88190392     A.U. after    6 cycles
             Convg  =    0.9937D-08             -V/T =  2.0001
 KE= 2.902589494387D+03 PE=-7.152025835879D+03 EE= 1.240658633337D+03
 Leave Link  502 at Wed Dec 18 20:09:08 2019, MaxMem=  268435456 cpu:      33.4
 (Enter /home/matheus/.gaussian/g09/l801.exe)
 Windowed orbitals will be sorted by symmetry type.
 ExpMin= 2.53D-02 ExpMax= 1.17D+07 ExpMxC= 1.33D+04 IAcc=3 IRadAn=         5 AccDes= 0.00D+00
 HarFok:  IExCor=  205 AccDes= 0.00D+00 IRadAn=         5 IDoV=-2
 ScaDFX=  1.000000  1.000000  1.000000  1.000000
 DSYEVD returned Info=          89 IAlg= 4 N=    59 NDim=    59 NE2=     4547561 trying DSYEV.
 Largest valence mixing into a core orbital is  1.48D-04
 Largest core mixing into a valence orbital is  2.65D-05
 Range of M.O.s used for correlation:    12   197
 NBasis=   197 NAE=    27 NBE=    27 NFC=    11 NFV=     0
 NROrb=    186 NOA=    16 NOB=    16 NVA=   170 NVB=   170

 **** Warning!!: The largest alpha MO coefficient is  0.16286674D+02

 Leave Link  801 at Wed Dec 18 20:09:08 2019, MaxMem=  268435456 cpu:       0.2
 (Enter /home/matheus/.gaussian/g09/l804.exe)
 Closed-shell transformation, MDV=   268435456 ITran=4 ISComp=1.
 Semi-Direct transformation.
 ModeAB=           4 MOrb=            16 LenV=     267347696
 LASXX=     48528660 LTotXX=    48528660 LenRXX=    97827436
 LTotAB=    49298776 MaxLAS=    72926880 LenRXY=           0
 NonZer=   146356096 LenScr=   220395520 LnRSAI=    72926880
 LnScr1=   110164992 LExtra=           0 Total=    501314828
 MaxDsk=          -1 SrtSym=           T ITran=            4
 DoSDTr:  NPSUse=  2
 JobTyp=0 Pass  1:  I=   1 to  16.
 (rs|ai) integrals will be sorted in core.
 Complete sort for first half transformation.
 First half transformation complete.
 Begin second half transformation for I=  10.
 Complete sort for second half transformation.
 Second half transformation complete.
 SymMOI:  orbitals are not symmetric.
 Spin components of T(2) and E(2):
     alpha-alpha T2 =       0.2558291657D-01 E2=     -0.9849768923D-01
     alpha-beta  T2 =       0.1414546950D+00 E2=     -0.5530703415D+00
     beta-beta   T2 =       0.2558291657D-01 E2=     -0.9849768923D-01
 ANorm=    0.1092071668D+01
 E2 =    -0.7500657199D+00 EUMP2 =    -0.29036319696362D+04
 Leave Link  804 at Wed Dec 18 20:09:29 2019, MaxMem=  268435456 cpu:      41.0
 (Enter /home/matheus/.gaussian/g09/l913.exe)
 CIDS:  MDV=   268435456.
 Frozen-core window:  NFC=  11 NFV=   0.
 IFCWin=0 IBDFC=1 NFBD=     0     0 NFCmp=     0     0 NFFFC=     0     0
 Using DD3R+UMP44R for 1st iteration, S=T.
 Using DD4RQ for 2nd and later iterations.
 Would need an additional       431206676 words for in-memory AO integral storage.
 MP4(SDTQ)
 =========
 DD1Dir will call FoFDir   1 times, MxPair=       272
 NAB=   136 NAA=     0 NBB=     0 NumPrc=  2.
 Integrals replicated using symmetry in FoFDir.
 MinBra= 0 MaxBra= 3 Meth= 1.
 IRaf=       0 NMat= 272 IRICut=     340 DoRegI=T DoRafI=T ISym2E= 2 JSym2E=2.
 MP4(D)= -0.14917432D-01
 MP4(S)= -0.63040980D-02
 MP4(R+Q)=  0.15046395D-01
 T4(AAA)= -0.99149958D-03
 T4(AAB)= -0.13864993D-01
 Time for triples=     1453.48 seconds.
 MP4(T)=   -0.29712985D-01
 E3=       -0.11930721D-01        EUMP3=      -0.29036439004D+04
 E4(DQ)=    0.12896279D-03        UMP4(DQ)=   -0.29036437714D+04
 E4(SDQ)=  -0.61751352D-02        UMP4(SDQ)=  -0.29036500755D+04
 E4(SDTQ)= -0.35888120D-01        UMP4(SDTQ)= -0.29036797885D+04
 VARIATIONAL ENERGIES WITH THE FIRST-ORDER WAVEFUNCTION:
 E(VAR1)=  -0.29035208301D+04     E(CISD,4)=  -0.29035206438D+04
 Largest amplitude= 2.61D-02
 Leave Link  913 at Wed Dec 18 20:22:18 2019, MaxMem=  268435456 cpu:    1535.8
 (Enter /home/matheus/.gaussian/g09/l108.exe)
 Scan completed.

 Summary of the potential surface scan:
   N      R1          SCF          MP2          MP3         MP4DQ       MP4SDQ       MP4SDTQ  
 ----  ---------  -----------  -----------  -----------  -----------  -----------  -----------
    1     3.0000  -2902.87119  -2903.63011  -2903.64111  -2903.64040  -2903.64697  -2903.67787
    2     3.1000  -2902.87444  -2903.63201  -2903.64319  -2903.64257  -2903.64910  -2903.67982
    3     3.2000  -2902.87676  -2903.63317  -2903.64449  -2903.64395  -2903.65045  -2903.68102
    4     3.3000  -2902.87841  -2903.63382  -2903.64525  -2903.64479  -2903.65126  -2903.68169
    5     3.4000  -2902.87956  -2903.63413  -2903.64565  -2903.64524  -2903.65168  -2903.68200
    6     3.5000  -2902.88037  -2903.63420  -2903.64579  -2903.64543  -2903.65185  -2903.68207
    7     3.6000  -2902.88092  -2903.63413  -2903.64577  -2903.64546  -2903.65186  -2903.68200
    8     3.7000  -2902.88130  -2903.63397  -2903.64567  -2903.64538  -2903.65177  -2903.68183
    9     3.8000  -2902.88155  -2903.63377  -2903.64550  -2903.64525  -2903.65163  -2903.68163
   10     3.9000  -2902.88171  -2903.63355  -2903.64532  -2903.64509  -2903.65145  -2903.68140
   11     4.0000  -2902.88182  -2903.63333  -2903.64513  -2903.64492  -2903.65127  -2903.68118
   12     4.1000  -2902.88188  -2903.63312  -2903.64494  -2903.64475  -2903.65110  -2903.68097
   13     4.2000  -2902.88192  -2903.63293  -2903.64477  -2903.64459  -2903.65093  -2903.68077
   14     4.3000  -2902.88194  -2903.63276  -2903.64462  -2903.64445  -2903.65078  -2903.68059
   15     4.4000  -2902.88194  -2903.63260  -2903.64447  -2903.64432  -2903.65064  -2903.68043
   16     4.5000  -2902.88194  -2903.63246  -2903.64435  -2903.64420  -2903.65052  -2903.68029
   17     4.6000  -2902.88194  -2903.63234  -2903.64424  -2903.64409  -2903.65041  -2903.68016
   18     4.7000  -2902.88193  -2903.63223  -2903.64414  -2903.64400  -2903.65031  -2903.68005
   19     4.8000  -2902.88192  -2903.63213  -2903.64405  -2903.64391  -2903.65022  -2903.67995
   20     4.9000  -2902.88191  -2903.63205  -2903.64397  -2903.64384  -2903.65014  -2903.67987
   21     5.0000  -2902.88190  -2903.63197  -2903.64390  -2903.64377  -2903.65008  -2903.67979
 ----  ---------  -----------  -----------  -----------  -----------  -----------  -----------
  
 Leave Link  108 at Wed Dec 18 20:22:18 2019, MaxMem=  268435456 cpu:       0.0
 (Enter /home/matheus/.gaussian/g09/l9999.exe)
 1\1\GINC-REDGIANT\Scan\RMP4SDTQ-FC\Aug-CC-pVTZ\H2Kr1O2\ROOT\18-Dec-201
 9\1\\#p mp4/aug-cc-PVTz int=ultrafine Scan\\PTCC\\0,1\O,0,0.,0.,0.725\
 O,0,0.,0.,-0.725\H,0,-0.4593602974,0.795635374,1.0235104166\H,0,0.,0.9
 187205947,-1.0235104166\Kr,0,0.,R1,0.\\R1=3.,s,20,0.1\\Version=EM64L-G
 09RevC.01\State=1-A\HF=-2902.871191,-2902.8744424,-2902.8767619,-2902.
 8784053,-2902.8795608,-2902.8803658,-2902.8809207,-2902.8812978,-2902.
 8815498,-2902.8817145,-2902.881819,-2902.8818827,-2902.8819191,-2902.8
 819377,-2902.8819446,-2902.8819442,-2902.8819392,-2902.8819316,-2902.8
 819227,-2902.8819132,-2902.8819039\MP2=-2903.6301067,-2903.6320053,-29
 03.6331696,-2903.6338221,-2903.6341256,-2903.6341984,-2903.6341257,-29
 03.6339677,-2903.6337656,-2903.633547,-2903.6333288,-2903.6331213,-290
 3.6329295,-2903.6327556,-2903.6325995,-2903.6324603,-2903.6323367,-290
 3.6322273,-2903.6321305,-2903.6320451,-2903.6319696\MP3=-2903.6411098,
 -2903.643186,-2903.64449,-2903.6452532,-2903.6456451,-2903.6457893,-29
 03.645775,-2903.6456651,-2903.6455031,-2903.645318,-2903.6451281,-2903
 .6449444,-2903.644773,-2903.6446162,-2903.6444749,-2903.6443484,-2903.
 6442358,-2903.6441359,-2903.6440475,-2903.6439694,-2903.6439004\MP4D=-
 2903.6560366,-2903.6581131,-2903.6594175,-2903.6601807,-2903.6605723,-
 2903.6607158,-2903.6607006,-2903.6605898,-2903.660427,-2903.6602411,-2
 903.6600505,-2903.6598662,-2903.6596942,-2903.6595369,-2903.659395,-29
 03.659268,-2903.6591549,-2903.6590546,-2903.6589657,-2903.6588872,-290
 3.6588178\MP4DQ=-2903.6403977,-2903.6425683,-2903.6439534,-2903.644785
 5,-2903.6452358,-2903.6454293,-2903.6454563,-2903.6453812,-2903.645248
 3,-2903.6450874,-2903.6449177,-2903.6447508,-2903.6445932,-2903.644447
 9,-2903.6443159,-2903.6441972,-2903.6440909,-2903.6439962,-2903.643912
 ,-2903.6438374,-2903.6437714\MP4SDQ=-2903.6469681,-2903.6491003,-2903.
 6504525,-2903.6512564,-2903.6516823,-2903.6518545,-2903.6518631,-2903.
 6517719,-2903.651625,-2903.6514521,-2903.6512719,-2903.6510959,-2903.6
 509305,-2903.6507785,-2903.6506408,-2903.6505171,-2903.6504066,-2903.6
 503083,-2903.650221,-2903.6501438,-2903.6500755\MP4SDTQ=-2903.6778713,
 -2903.67982,-2903.6810159,-2903.6816862,-2903.6819978,-2903.6820723,-2
 903.6819974,-2903.681835,-2903.6816275,-2903.6814031,-2903.6811794,-29
 03.6809665,-2903.68077,-2903.6805916,-2903.6804317,-2903.6802892,-2903
 .6801628,-2903.680051,-2903.6799522,-2903.6798652,-2903.6797885\RMSD=9
 .586e-09,5.865e-09,9.874e-09,9.994e-09,8.440e-09,7.151e-09,6.022e-09,8
 .594e-09,5.636e-09,4.505e-09,4.128e-09,3.766e-09,3.207e-09,2.547e-09,1
 .991e-09,9.680e-09,7.524e-09,5.890e-09,4.709e-09,3.866e-09,9.937e-09\P
 G=C01 [X(H2Kr1O2)]\\@


 NEVER LISTEN TO CRITICISM
 OR YOU'LL BE DOIN' EVERYBODY ELSE'S THING BUT BUT YOUR OWN.

                                               -- ANDY CAPP
 Job cpu time:  0 days  9 hours  6 minutes 55.2 seconds.
 File lengths (MBytes):  RWF=   3950 Int=      0 D2E=      0 Chk=      4 Scr=      1
 Normal termination of Gaussian 09 at Wed Dec 18 20:22:19 2019.
