 Entering Gaussian System, Link 0=g09
 Input=/home/matheus/.ptcc/Inputs/H2O2-Kr_19.com
 Output=/home/matheus/.ptcc/Logs-MP4/H2O2-Kr_19.log
 Initial command:
 /home/matheus/.gaussian/g09/l1.exe /home/matheus/.gaussian/g09/scratch/Gau-3597.inp -scrdir=/home/matheus/.gaussian/g09/scratch/
 Entering Link 1 = /home/matheus/.gaussian/g09/l1.exe PID=      3599.
  
 Copyright (c) 1988,1990,1992,1993,1995,1998,2003,2009,2011,
            Gaussian, Inc.  All Rights Reserved.
  
 This is part of the Gaussian(R) 09 program.  It is based on
 the Gaussian(R) 03 system (copyright 2003, Gaussian, Inc.),
 the Gaussian(R) 98 system (copyright 1998, Gaussian, Inc.),
 the Gaussian(R) 94 system (copyright 1995, Gaussian, Inc.),
 the Gaussian 92(TM) system (copyright 1992, Gaussian, Inc.),
 the Gaussian 90(TM) system (copyright 1990, Gaussian, Inc.),
 the Gaussian 88(TM) system (copyright 1988, Gaussian, Inc.),
 the Gaussian 86(TM) system (copyright 1986, Carnegie Mellon
 University), and the Gaussian 82(TM) system (copyright 1983,
 Carnegie Mellon University). Gaussian is a federally registered
 trademark of Gaussian, Inc.
  
 This software contains proprietary and confidential information,
 including trade secrets, belonging to Gaussian, Inc.
  
 This software is provided under written license and may be
 used, copied, transmitted, or stored only in accord with that
 written license.
  
 The following legend is applicable only to US Government
 contracts under FAR:
  
                    RESTRICTED RIGHTS LEGEND
  
 Use, reproduction and disclosure by the US Government is
 subject to restrictions as set forth in subparagraphs (a)
 and (c) of the Commercial Computer Software - Restricted
 Rights clause in FAR 52.227-19.
  
 Gaussian, Inc.
 340 Quinnipiac St., Bldg. 40, Wallingford CT 06492
  
  
 ---------------------------------------------------------------
 Warning -- This program may not be used in any manner that
 competes with the business of Gaussian, Inc. or will provide
 assistance to any competitor of Gaussian, Inc.  The licensee
 of this program is prohibited from giving any competitor of
 Gaussian, Inc. access to this program.  By using this program,
 the user acknowledges that Gaussian, Inc. is engaged in the
 business of creating and licensing software in the field of
 computational chemistry and represents and warrants to the
 licensee that it is not a competitor of Gaussian, Inc. and that
 it will not use this program in any manner prohibited above.
 ---------------------------------------------------------------
  

 Cite this work as:
 Gaussian 09, Revision C.01,
 M. J. Frisch, G. W. Trucks, H. B. Schlegel, G. E. Scuseria, 
 M. A. Robb, J. R. Cheeseman, G. Scalmani, V. Barone, B. Mennucci, 
 G. A. Petersson, H. Nakatsuji, M. Caricato, X. Li, H. P. Hratchian, 
 A. F. Izmaylov, J. Bloino, G. Zheng, J. L. Sonnenberg, M. Hada, 
 M. Ehara, K. Toyota, R. Fukuda, J. Hasegawa, M. Ishida, T. Nakajima, 
 Y. Honda, O. Kitao, H. Nakai, T. Vreven, J. A. Montgomery, Jr., 
 J. E. Peralta, F. Ogliaro, M. Bearpark, J. J. Heyd, E. Brothers, 
 K. N. Kudin, V. N. Staroverov, T. Keith, R. Kobayashi, J. Normand, 
 K. Raghavachari, A. Rendell, J. C. Burant, S. S. Iyengar, J. Tomasi, 
 M. Cossi, N. Rega, J. M. Millam, M. Klene, J. E. Knox, J. B. Cross, 
 V. Bakken, C. Adamo, J. Jaramillo, R. Gomperts, R. E. Stratmann, 
 O. Yazyev, A. J. Austin, R. Cammi, C. Pomelli, J. W. Ochterski, 
 R. L. Martin, K. Morokuma, V. G. Zakrzewski, G. A. Voth, 
 P. Salvador, J. J. Dannenberg, S. Dapprich, A. D. Daniels, 
 O. Farkas, J. B. Foresman, J. V. Ortiz, J. Cioslowski, 
 and D. J. Fox, Gaussian, Inc., Wallingford CT, 2010.
 
 ******************************************
 Gaussian 09:  EM64L-G09RevC.01 23-Sep-2011
                11-Dec-2019 
 ******************************************
 %mem=2GB
 %nproc=2
 Will use up to    2 processors via shared memory.
 -------------------------------------
 #p mp4/aug-cc-PVTz int=ultrafine Scan
 -------------------------------------
 1/38=1,60=1/1,8;
 2/12=2,17=6,18=5,29=3,40=1/2;
 3/5=16,6=1,7=10,11=9,16=1,25=1,30=1,75=-5/1,2,3;
 4//1;
 5/5=2,38=5/2;
 8/6=4,9=120000,10=1/1,4;
 9/5=5/13;
 6/7=2,8=2,9=2,10=2,18=1/1;
 1/60=1/8(1);
 99/9=1/99;
 2/29=3/2;
 3/5=16,6=1,7=10,11=9,16=1,25=1,30=1,75=-5/1,2,3;
 4/5=5,16=3/1;
 5/5=2,38=5/2;
 8/6=4,9=120000,10=1/1,4;
 9/5=5/13;
 1/60=1/8(-6);
 99/9=1/99;
 Leave Link    1 at Wed Dec 11 09:32:53 2019, MaxMem=  268435456 cpu:       0.2
 (Enter /home/matheus/.gaussian/g09/l101.exe)
 ----
 PTCC
 ----
 Charge =  0 Multiplicity = 1
 Symbolic Z-Matrix:
 O                     0.        0.        0.725 
 O                     0.        0.       -0.725 
 H                    -0.15953  -0.90476   1.02351 
 H                     0.        0.91872  -1.02351 
 Kr                    0.       R1        0. 
       Variables:
  R1                    3.     Scan 20    0.1    
 
 NAtoms=      5 NQM=        0 NQMF=       0 NMMI=      5 NMMIF=      0
                NMic=       0 NMicF=      0.
                    Isotopes and Nuclear Properties:
 (Nuclear quadrupole moments (NQMom) in fm**2, nuclear magnetic moments (NMagM)
  in nuclear magnetons)

  Atom         1           2           3           4           5
 IAtWgt=          16          16           1           1          84
 AtmWgt=  15.9949146  15.9949146   1.0078250   1.0078250  83.9115064
 NucSpn=           0           0           1           1           0
 AtZEff=   0.0000000   0.0000000   0.0000000   0.0000000   0.0000000
 NQMom=    0.0000000   0.0000000   0.0000000   0.0000000   0.0000000
 NMagM=    0.0000000   0.0000000   2.7928460   2.7928460   0.0000000
 Leave Link  101 at Wed Dec 11 09:32:53 2019, MaxMem=  268435456 cpu:       0.1
 (Enter /home/matheus/.gaussian/g09/l108.exe)
 Scan the potential surface.
 Variable   Value     No. Steps Step-Size
 -------- ----------- --------- ---------
     1       3.000000      20      0.1000
 A total of     21 points will be computed.
 Leave Link  108 at Wed Dec 11 09:32:53 2019, MaxMem=  268435456 cpu:       0.0
 (Enter /home/matheus/.gaussian/g09/l202.exe)
 ---------------------------------------------------------------------------------------------------
                            Z-MATRIX (ANGSTROMS AND DEGREES)
   CD    Cent   Atom    N1       Length/X        N2       Alpha/Y        N3        Beta/Z          J
 ---------------------------------------------------------------------------------------------------
      1      1  O        0   0.000000          0.000000          0.725000
      2      2  O        0   0.000000          0.000000         -0.725000
      3      3  H        0  -0.159534         -0.904763          1.023510
      4      4  H        0   0.000000          0.918721         -1.023510
      5      5  Kr       0   0.000000          3.000000          0.000000
 ---------------------------------------------------------------------------------------------------
                         Z-Matrix orientation:                         
 ---------------------------------------------------------------------
 Center     Atomic      Atomic             Coordinates (Angstroms)
 Number     Number       Type             X           Y           Z
 ---------------------------------------------------------------------
      1          8           0        0.000000    0.000000    0.725000
      2          8           0        0.000000    0.000000   -0.725000
      3          1           0       -0.159534   -0.904763    1.023510
      4          1           0        0.000000    0.918721   -1.023510
      5         36           0        0.000000    3.000000    0.000000
 ---------------------------------------------------------------------
                    Distance matrix (angstroms):
                    1          2          3          4          5
     1  O    0.000000
     2  O    1.450000   0.000000
     3  H    0.966000   1.975180   0.000000
     4  H    1.975180   0.966000   2.746059   0.000000
     5  Kr   3.086361   3.086361   4.039827   2.319331   0.000000
 Stoichiometry    H2KrO2
 Framework group  C1[X(H2KrO2)]
 Deg. of freedom     9
 Full point group                 C1      NOp   1
 Largest Abelian subgroup         C1      NOp   1
 Largest concise Abelian subgroup C1      NOp   1
                         Standard orientation:                         
 ---------------------------------------------------------------------
 Center     Atomic      Atomic             Coordinates (Angstroms)
 Number     Number       Type             X           Y           Z
 ---------------------------------------------------------------------
      1          8           0       -2.013524   -0.686962   -0.021683
      2          8           0       -1.986222    0.762620   -0.000129
      3          1           0       -2.924418   -0.970655    0.129799
      4          1           0       -1.062052    1.043690    0.007960
      5         36           0        0.999568   -0.018842    0.001020
 ---------------------------------------------------------------------
 Rotational constants (GHZ):     26.6931850      2.3029701      2.1204694
 Leave Link  202 at Wed Dec 11 09:32:54 2019, MaxMem=  268435456 cpu:       0.0
 (Enter /home/matheus/.gaussian/g09/l301.exe)
 Standard basis: Aug-CC-pVTZ (5D, 7F)
 Ernie: Thresh=  0.10000D-02 Tol=  0.10000D-05 Strict=F.
 Ernie:  38 primitive shells out of 205 were deleted.
 There are   197 symmetry adapted basis functions of A   symmetry.
 Integral buffers will be    131072 words long.
 Raffenetti 1 integral format.
 Two-electron integral symmetry is turned on.
   197 basis functions,   415 primitive gaussians,   229 cartesian basis functions
    27 alpha electrons       27 beta electrons
       nuclear repulsion energy       148.2893698349 Hartrees.
 IExCor=    0 DFT=F Ex=HF Corr=None ExCW=0 ScaHFX=  1.000000
 ScaDFX=  1.000000  1.000000  1.000000  1.000000 ScalE2=  1.000000  1.000000
 IRadAn=      5 IRanWt=     -1 IRanGd=            0 ICorTp=0
 NAtoms=    5 NActive=    5 NUniq=    5 SFac= 1.00D+00 NAtFMM=   60 NAOKFM=F Big=F
 Leave Link  301 at Wed Dec 11 09:32:54 2019, MaxMem=  268435456 cpu:       0.1
 (Enter /home/matheus/.gaussian/g09/l302.exe)
 NPDir=0 NMtPBC=     1 NCelOv=     1 NCel=       1 NClECP=     1 NCelD=      1
         NCelK=      1 NCelE2=     1 NClLst=     1 CellRange=     0.0.
 One-electron integrals computed using PRISM.
 NBasis=   197 RedAO= T  NBF=   197
 NBsUse=   197 1.00D-06 NBFU=   197
 Leave Link  302 at Wed Dec 11 09:32:54 2019, MaxMem=  268435456 cpu:       0.2
 (Enter /home/matheus/.gaussian/g09/l303.exe)
 DipDrv:  MaxL=1.
 Leave Link  303 at Wed Dec 11 09:32:54 2019, MaxMem=  268435456 cpu:       0.2
 (Enter /home/matheus/.gaussian/g09/l401.exe)
 Harris functional with IExCor=  205 diagonalized for initial guess.
 ExpMin= 2.53D-02 ExpMax= 1.17D+07 ExpMxC= 1.33D+04 IAcc=3 IRadAn=         5 AccDes= 0.00D+00
 HarFok:  IExCor=  205 AccDes= 0.00D+00 IRadAn=         5 IDoV= 1
 ScaDFX=  1.000000  1.000000  1.000000  1.000000
 FoFCou: FMM=F IPFlag=           0 FMFlag=      100000 FMFlg1=           0
         NFxFlg=           0 DoJE=T BraDBF=F KetDBF=T FulRan=T
         Omega=  0.000000  0.000000  1.000000  0.000000  0.000000 ICntrl=     500 IOpCl=  0
         NMat0=    1 NMatS0=    1 NMatT0=    0 NMatD0=    1 NMtDS0=    0 NMtDT0=    0
         I1Cent=           4 NGrid=           0.
 Petite list used in FoFCou.
 Harris En= -2901.92949981087    
 Initial guess orbital symmetries:
       Occupied  (A) (A) (A) (A) (A) (A) (A) (A) (A) (A) (A) (A)
                 (A) (A) (A) (A) (A) (A) (A) (A) (A) (A) (A) (A)
                 (A) (A) (A)
       Virtual   (A) (A) (A) (A) (A) (A) (A) (A) (A) (A) (A) (A)
                 (A) (A) (A) (A) (A) (A) (A) (A) (A) (A) (A) (A)
                 (A) (A) (A) (A) (A) (A) (A) (A) (A) (A) (A) (A)
                 (A) (A) (A) (A) (A) (A) (A) (A) (A) (A) (A) (A)
                 (A) (A) (A) (A) (A) (A) (A) (A) (A) (A) (A) (A)
                 (A) (A) (A) (A) (A) (A) (A) (A) (A) (A) (A) (A)
                 (A) (A) (A) (A) (A) (A) (A) (A) (A) (A) (A) (A)
                 (A) (A) (A) (A) (A) (A) (A) (A) (A) (A) (A) (A)
                 (A) (A) (A) (A) (A) (A) (A) (A) (A) (A) (A) (A)
                 (A) (A) (A) (A) (A) (A) (A) (A) (A) (A) (A) (A)
                 (A) (A) (A) (A) (A) (A) (A) (A) (A) (A) (A) (A)
                 (A) (A) (A) (A) (A) (A) (A) (A) (A) (A) (A) (A)
                 (A) (A) (A) (A) (A) (A) (A) (A) (A) (A) (A) (A)
                 (A) (A) (A) (A) (A) (A) (A) (A) (A) (A) (A) (A)
                 (A) (A)
 The electronic state of the initial guess is 1-A.
 Leave Link  401 at Wed Dec 11 09:32:55 2019, MaxMem=  268435456 cpu:       1.2
 (Enter /home/matheus/.gaussian/g09/l502.exe)
 Closed shell SCF:
 Requested convergence on RMS density matrix=1.00D-08 within 128 cycles.
 Requested convergence on MAX density matrix=1.00D-06.
 Requested convergence on             energy=1.00D-06.
 No special actions if energy rises.
 Using DIIS extrapolation, IDIIS=  1040.
 Integral symmetry usage will be decided dynamically.
 IEnd=      178489 IEndB=      178489 NGot=   268435456 MDV=   268326278
 LenX=   268326278 LenY=   268273396
 Fock matrices will be formed incrementally for  20 cycles.

 Cycle   1  Pass 0  IDiag  1:
 FoFCou: FMM=F IPFlag=           0 FMFlag=      100000 FMFlg1=           0
         NFxFlg=           0 DoJE=F BraDBF=F KetDBF=F FulRan=T
         Omega=  0.000000  0.000000  1.000000  0.000000  0.000000 ICntrl=       0 IOpCl=  0
         NMat0=    1 NMatS0=    1 NMatT0=    0 NMatD0=    1 NMtDS0=    0 NMtDT0=    0
         I1Cent=           0 NGrid=           0.
 Symmetry not used in FoFCou.
 E= -2902.75776878937    
 DIIS: error= 3.68D-02 at cycle   1 NSaved=   1.
 NSaved= 1 IEnMin= 1 EnMin= -2902.75776878937     IErMin= 1 ErrMin= 3.68D-02
 ErrMax= 3.68D-02 EMaxC= 1.00D-01 BMatC= 6.92D-01 BMatP= 6.92D-01
 IDIUse=3 WtCom= 6.32D-01 WtEn= 3.68D-01
 Coeff-Com:  0.100D+01
 Coeff-En:   0.100D+01
 Coeff:      0.100D+01
 Gap=     0.675 Goal=   None    Shift=    0.000
 GapD=    0.675 DampG=2.000 DampE=0.500 DampFc=1.0000 IDamp=-1.
 RMSDP=2.30D-03 MaxDP=1.50D-01              OVMax= 5.89D-02

 Cycle   2  Pass 0  IDiag  1:
 RMSU=  1.60D-03    CP:  1.01D+00
 E= -2902.86244613304     Delta-E=       -0.104677343663 Rises=F Damp=F
 DIIS: error= 9.03D-03 at cycle   2 NSaved=   2.
 NSaved= 2 IEnMin= 2 EnMin= -2902.86244613304     IErMin= 2 ErrMin= 9.03D-03
 ErrMax= 9.03D-03 EMaxC= 1.00D-01 BMatC= 4.01D-02 BMatP= 6.92D-01
 IDIUse=3 WtCom= 9.10D-01 WtEn= 9.03D-02
 Coeff-Com:  0.151D+00 0.849D+00
 Coeff-En:   0.000D+00 0.100D+01
 Coeff:      0.137D+00 0.863D+00
 Gap=     0.511 Goal=   None    Shift=    0.000
 RMSDP=8.01D-04 MaxDP=4.23D-02 DE=-1.05D-01 OVMax= 2.26D-02

 Cycle   3  Pass 0  IDiag  1:
 RMSU=  4.33D-04    CP:  1.01D+00  7.82D-01
 E= -2902.87590938932     Delta-E=       -0.013463256287 Rises=F Damp=F
 DIIS: error= 2.23D-03 at cycle   3 NSaved=   3.
 NSaved= 3 IEnMin= 3 EnMin= -2902.87590938932     IErMin= 3 ErrMin= 2.23D-03
 ErrMax= 2.23D-03 EMaxC= 1.00D-01 BMatC= 2.28D-03 BMatP= 4.01D-02
 IDIUse=3 WtCom= 9.78D-01 WtEn= 2.23D-02
 Coeff-Com: -0.656D-02 0.169D+00 0.837D+00
 Coeff-En:   0.000D+00 0.000D+00 0.100D+01
 Coeff:     -0.641D-02 0.165D+00 0.841D+00
 Gap=     0.488 Goal=   None    Shift=    0.000
 RMSDP=1.22D-04 MaxDP=5.13D-03 DE=-1.35D-02 OVMax= 7.63D-03

 Cycle   4  Pass 0  IDiag  1:
 RMSU=  4.70D-05    CP:  1.01D+00  8.15D-01  8.95D-01
 E= -2902.87698651295     Delta-E=       -0.001077123628 Rises=F Damp=F
 DIIS: error= 3.89D-04 at cycle   4 NSaved=   4.
 NSaved= 4 IEnMin= 4 EnMin= -2902.87698651295     IErMin= 4 ErrMin= 3.89D-04
 ErrMax= 3.89D-04 EMaxC= 1.00D-01 BMatC= 4.27D-05 BMatP= 2.28D-03
 IDIUse=3 WtCom= 9.96D-01 WtEn= 3.89D-03
 Coeff-Com: -0.415D-02 0.988D-02 0.146D+00 0.848D+00
 Coeff-En:   0.000D+00 0.000D+00 0.000D+00 0.100D+01
 Coeff:     -0.413D-02 0.984D-02 0.146D+00 0.849D+00
 Gap=     0.492 Goal=   None    Shift=    0.000
 RMSDP=2.02D-05 MaxDP=6.63D-04 DE=-1.08D-03 OVMax= 1.58D-03

 Cycle   5  Pass 0  IDiag  1:
 RMSU=  1.25D-05    CP:  1.01D+00  8.16D-01  9.10D-01  9.82D-01
 E= -2902.87702161324     Delta-E=       -0.000035100286 Rises=F Damp=F
 DIIS: error= 1.49D-04 at cycle   5 NSaved=   5.
 NSaved= 5 IEnMin= 5 EnMin= -2902.87702161324     IErMin= 5 ErrMin= 1.49D-04
 ErrMax= 1.49D-04 EMaxC= 1.00D-01 BMatC= 3.13D-06 BMatP= 4.27D-05
 IDIUse=3 WtCom= 9.99D-01 WtEn= 1.49D-03
 Coeff-Com:  0.776D-03-0.145D-01-0.687D-01 0.182D-01 0.106D+01
 Coeff-En:   0.000D+00 0.000D+00 0.000D+00 0.000D+00 0.100D+01
 Coeff:      0.775D-03-0.145D-01-0.686D-01 0.181D-01 0.106D+01
 Gap=     0.492 Goal=   None    Shift=    0.000
 RMSDP=9.16D-06 MaxDP=3.05D-04 DE=-3.51D-05 OVMax= 8.33D-04

 Initial convergence to 1.0D-05 achieved.  Increase integral accuracy.
 Cycle   6  Pass 1  IDiag  1:
 E= -2902.87702603044     Delta-E=       -0.000004417203 Rises=F Damp=F
 DIIS: error= 3.32D-05 at cycle   1 NSaved=   1.
 NSaved= 1 IEnMin= 1 EnMin= -2902.87702603044     IErMin= 1 ErrMin= 3.32D-05
 ErrMax= 3.32D-05 EMaxC= 1.00D-01 BMatC= 1.90D-07 BMatP= 1.90D-07
 IDIUse=1 WtCom= 1.00D+00 WtEn= 0.00D+00
 Coeff-Com:  0.100D+01
 Coeff:      0.100D+01
 Gap=     0.492 Goal=   None    Shift=    0.000
 RMSDP=9.16D-06 MaxDP=3.05D-04 DE=-4.42D-06 OVMax= 1.63D-04

 Cycle   7  Pass 1  IDiag  1:
 RMSU=  1.44D-06    CP:  1.00D+00
 E= -2902.87702634490     Delta-E=       -0.000000314460 Rises=F Damp=F
 DIIS: error= 1.27D-05 at cycle   2 NSaved=   2.
 NSaved= 2 IEnMin= 2 EnMin= -2902.87702634490     IErMin= 2 ErrMin= 1.27D-05
 ErrMax= 1.27D-05 EMaxC= 1.00D-01 BMatC= 4.09D-08 BMatP= 1.90D-07
 IDIUse=1 WtCom= 1.00D+00 WtEn= 0.00D+00
 Coeff-Com:  0.623D-01 0.938D+00
 Coeff:      0.623D-01 0.938D+00
 Gap=     0.492 Goal=   None    Shift=    0.000
 RMSDP=9.45D-07 MaxDP=4.03D-05 DE=-3.14D-07 OVMax= 8.07D-05

 Cycle   8  Pass 1  IDiag  1:
 RMSU=  5.46D-07    CP:  1.00D+00  1.27D+00
 E= -2902.87702641063     Delta-E=       -0.000000065735 Rises=F Damp=F
 DIIS: error= 7.56D-06 at cycle   3 NSaved=   3.
 NSaved= 3 IEnMin= 3 EnMin= -2902.87702641063     IErMin= 3 ErrMin= 7.56D-06
 ErrMax= 7.56D-06 EMaxC= 1.00D-01 BMatC= 1.27D-08 BMatP= 4.09D-08
 IDIUse=1 WtCom= 1.00D+00 WtEn= 0.00D+00
 Coeff-Com: -0.255D+00 0.159D+00 0.110D+01
 Coeff:     -0.255D+00 0.159D+00 0.110D+01
 Gap=     0.492 Goal=   None    Shift=    0.000
 RMSDP=7.08D-07 MaxDP=2.34D-05 DE=-6.57D-08 OVMax= 6.51D-05

 Cycle   9  Pass 1  IDiag  1:
 RMSU=  1.74D-07    CP:  1.00D+00  1.58D+00  1.20D+00
 E= -2902.87702643424     Delta-E=       -0.000000023609 Rises=F Damp=F
 DIIS: error= 2.32D-06 at cycle   4 NSaved=   4.
 NSaved= 4 IEnMin= 4 EnMin= -2902.87702643424     IErMin= 4 ErrMin= 2.32D-06
 ErrMax= 2.32D-06 EMaxC= 1.00D-01 BMatC= 1.02D-09 BMatP= 1.27D-08
 IDIUse=1 WtCom= 1.00D+00 WtEn= 0.00D+00
 Coeff-Com: -0.841D-01-0.175D-01 0.324D+00 0.777D+00
 Coeff:     -0.841D-01-0.175D-01 0.324D+00 0.777D+00
 Gap=     0.492 Goal=   None    Shift=    0.000
 RMSDP=1.55D-07 MaxDP=4.38D-06 DE=-2.36D-08 OVMax= 1.61D-05

 Cycle  10  Pass 1  IDiag  1:
 RMSU=  7.93D-08    CP:  1.00D+00  1.62D+00  1.29D+00  1.02D+00
 E= -2902.87702643579     Delta-E=       -0.000000001551 Rises=F Damp=F
 DIIS: error= 7.40D-07 at cycle   5 NSaved=   5.
 NSaved= 5 IEnMin= 5 EnMin= -2902.87702643579     IErMin= 5 ErrMin= 7.40D-07
 ErrMax= 7.40D-07 EMaxC= 1.00D-01 BMatC= 1.48D-10 BMatP= 1.02D-09
 IDIUse=1 WtCom= 1.00D+00 WtEn= 0.00D+00
 Coeff-Com:  0.548D-01-0.586D-02-0.245D+00-0.195D+00 0.139D+01
 Coeff:      0.548D-01-0.586D-02-0.245D+00-0.195D+00 0.139D+01
 Gap=     0.492 Goal=   None    Shift=    0.000
 RMSDP=1.18D-07 MaxDP=2.44D-06 DE=-1.55D-09 OVMax= 1.64D-05

 Cycle  11  Pass 1  IDiag  1:
 RMSU=  2.50D-08    CP:  1.00D+00  1.64D+00  1.33D+00  1.31D+00  1.70D+00
 E= -2902.87702643638     Delta-E=       -0.000000000584 Rises=F Damp=F
 DIIS: error= 4.11D-07 at cycle   6 NSaved=   6.
 NSaved= 6 IEnMin= 6 EnMin= -2902.87702643638     IErMin= 6 ErrMin= 4.11D-07
 ErrMax= 4.11D-07 EMaxC= 1.00D-01 BMatC= 2.79D-11 BMatP= 1.48D-10
 IDIUse=1 WtCom= 1.00D+00 WtEn= 0.00D+00
 Coeff-Com:  0.149D-01 0.468D-02-0.567D-01-0.133D+00-0.153D+00 0.132D+01
 Coeff:      0.149D-01 0.468D-02-0.567D-01-0.133D+00-0.153D+00 0.132D+01
 Gap=     0.492 Goal=   None    Shift=    0.000
 RMSDP=7.05D-08 MaxDP=1.60D-06 DE=-5.84D-10 OVMax= 1.06D-05

 Cycle  12  Pass 1  IDiag  1:
 RMSU=  1.16D-08    CP:  1.00D+00  1.64D+00  1.35D+00  1.45D+00  2.14D+00
                    CP:  1.75D+00
 E= -2902.87702643651     Delta-E=       -0.000000000137 Rises=F Damp=F
 DIIS: error= 1.79D-07 at cycle   7 NSaved=   7.
 NSaved= 7 IEnMin= 7 EnMin= -2902.87702643651     IErMin= 7 ErrMin= 1.79D-07
 ErrMax= 1.79D-07 EMaxC= 1.00D-01 BMatC= 4.86D-12 BMatP= 2.79D-11
 IDIUse=1 WtCom= 1.00D+00 WtEn= 0.00D+00
 Coeff-Com: -0.111D-01 0.760D-03 0.495D-01 0.413D-01-0.264D+00 0.295D-01
 Coeff-Com:  0.115D+01
 Coeff:     -0.111D-01 0.760D-03 0.495D-01 0.413D-01-0.264D+00 0.295D-01
 Coeff:      0.115D+01
 Gap=     0.492 Goal=   None    Shift=    0.000
 RMSDP=2.55D-08 MaxDP=6.18D-07 DE=-1.37D-10 OVMax= 4.03D-06

 Cycle  13  Pass 1  IDiag  1:
 RMSU=  4.53D-09    CP:  1.00D+00  1.64D+00  1.36D+00  1.48D+00  2.26D+00
                    CP:  2.17D+00  1.53D+00
 E= -2902.87702643653     Delta-E=       -0.000000000011 Rises=F Damp=F
 DIIS: error= 7.49D-08 at cycle   8 NSaved=   8.
 NSaved= 8 IEnMin= 8 EnMin= -2902.87702643653     IErMin= 8 ErrMin= 7.49D-08
 ErrMax= 7.49D-08 EMaxC= 1.00D-01 BMatC= 8.31D-13 BMatP= 4.86D-12
 IDIUse=1 WtCom= 1.00D+00 WtEn= 0.00D+00
 Coeff-Com: -0.486D-02-0.947D-03 0.194D-01 0.312D-01 0.190D-01-0.281D+00
 Coeff-Com: -0.700D-01 0.129D+01
 Coeff:     -0.486D-02-0.947D-03 0.194D-01 0.312D-01 0.190D-01-0.281D+00
 Coeff:     -0.700D-01 0.129D+01
 Gap=     0.492 Goal=   None    Shift=    0.000
 RMSDP=1.26D-08 MaxDP=3.08D-07 DE=-1.09D-11 OVMax= 1.97D-06

 Cycle  14  Pass 1  IDiag  1:
 RMSU=  2.04D-09    CP:  1.00D+00  1.64D+00  1.36D+00  1.50D+00  2.31D+00
                    CP:  2.36D+00  1.96D+00  1.55D+00
 E= -2902.87702643653     Delta-E=       -0.000000000001 Rises=F Damp=F
 DIIS: error= 1.85D-08 at cycle   9 NSaved=   9.
 NSaved= 9 IEnMin= 9 EnMin= -2902.87702643653     IErMin= 9 ErrMin= 1.85D-08
 ErrMax= 1.85D-08 EMaxC= 1.00D-01 BMatC= 7.42D-14 BMatP= 8.31D-13
 IDIUse=1 WtCom= 1.00D+00 WtEn= 0.00D+00
 Coeff-Com:  0.267D-02 0.119D-03-0.106D-01-0.161D-01 0.247D-01 0.763D-01
 Coeff-Com: -0.928D-01-0.350D+00 0.137D+01
 Coeff:      0.267D-02 0.119D-03-0.106D-01-0.161D-01 0.247D-01 0.763D-01
 Coeff:     -0.928D-01-0.350D+00 0.137D+01
 Gap=     0.492 Goal=   None    Shift=    0.000
 RMSDP=3.20D-09 MaxDP=7.14D-08 DE=-9.09D-13 OVMax= 4.39D-07

 SCF Done:  E(RHF) =  -2902.87702644     A.U. after   14 cycles
             Convg  =    0.3196D-08             -V/T =  2.0001
 KE= 2.902624494283D+03 PE=-7.237197609960D+03 EE= 1.283406719406D+03
 Leave Link  502 at Wed Dec 11 09:33:46 2019, MaxMem=  268435456 cpu:     101.3
 (Enter /home/matheus/.gaussian/g09/l801.exe)
 Windowed orbitals will be sorted by symmetry type.
 ExpMin= 2.53D-02 ExpMax= 1.17D+07 ExpMxC= 1.33D+04 IAcc=3 IRadAn=         5 AccDes= 0.00D+00
 HarFok:  IExCor=  205 AccDes= 0.00D+00 IRadAn=         5 IDoV=-2
 ScaDFX=  1.000000  1.000000  1.000000  1.000000
 DSYEVD returned Info=          93 IAlg= 4 N=    46 NDim=    46 NE2=     4547561 trying DSYEV.
 Largest valence mixing into a core orbital is  1.44D-04
 Largest core mixing into a valence orbital is  2.58D-05
 Range of M.O.s used for correlation:    12   197
 NBasis=   197 NAE=    27 NBE=    27 NFC=    11 NFV=     0
 NROrb=    186 NOA=    16 NOB=    16 NVA=   170 NVB=   170

 **** Warning!!: The largest alpha MO coefficient is  0.12555089D+02

 Leave Link  801 at Wed Dec 11 09:33:46 2019, MaxMem=  268435456 cpu:       0.3
 (Enter /home/matheus/.gaussian/g09/l804.exe)
 Closed-shell transformation, MDV=   268435456 ITran=4 ISComp=1.
 Semi-Direct transformation.
 ModeAB=           2 MOrb=            16 LenV=     267327060
 LASXX=     48528660 LTotXX=    48528660 LenRXX=    48528660
 LTotAB=    49298776 MaxLAS=    78372960 LenRXY=    78372960
 NonZer=    97057320 LenScr=   146313216 LnRSAI=           0
 LnScr1=           0 LExtra=           0 Total=    273214836
 MaxDsk=          -1 SrtSym=           F ITran=            4
 DoSDTr:  NPSUse=  2
 JobTyp=0 Pass  1:  I=   1 to  16.
 (rs|ai) integrals will be sorted in core.
 Complete sort for first half transformation.
 First half transformation complete.
 Begin second half transformation for I=  10.
 Begin second half transformation for I=  10.
 Complete sort for second half transformation.
 Second half transformation complete.
 SymMOI:  orbitals are not symmetric.
 Spin components of T(2) and E(2):
     alpha-alpha T2 =       0.2590598821D-01 E2=     -0.9986450428D-01
     alpha-beta  T2 =       0.1417348758D+00 E2=     -0.5562107541D+00
     beta-beta   T2 =       0.2590598821D-01 E2=     -0.9986450428D-01
 ANorm=    0.1092495699D+01
 E2 =    -0.7559397626D+00 EUMP2 =    -0.29036329661991D+04
 Leave Link  804 at Wed Dec 11 09:34:08 2019, MaxMem=  268435456 cpu:      43.6
 (Enter /home/matheus/.gaussian/g09/l913.exe)
 CIDS:  MDV=   268435456.
 Frozen-core window:  NFC=  11 NFV=   0.
 IFCWin=0 IBDFC=1 NFBD=     0     0 NFCmp=     0     0 NFFFC=     0     0
 Using DD3R+UMP44R for 1st iteration, S=T.
 Using DD4RQ for 2nd and later iterations.
 Would need an additional       431206676 words for in-memory AO integral storage.
 MP4(SDTQ)
 =========
 DD1Dir will call FoFDir   1 times, MxPair=       272
 NAB=   136 NAA=     0 NBB=     0 NumPrc=  2.
 Integrals replicated using symmetry in FoFDir.
 MinBra= 0 MaxBra= 3 Meth= 1.
 IRaf=       0 NMat= 272 IRICut=     340 DoRegI=T DoRafI=T ISym2E= 2 JSym2E=2.
 MP4(D)= -0.14942860D-01
 MP4(S)= -0.63899437D-02
 MP4(R+Q)=  0.15343024D-01
 T4(AAA)= -0.10371747D-02
 T4(AAB)= -0.14126445D-01
 Time for triples=     1303.52 seconds.
 MP4(T)=   -0.30327239D-01
 E3=       -0.11342726D-01        EUMP3=      -0.29036443089D+04
 E4(DQ)=    0.40016402D-03        UMP4(DQ)=   -0.29036439088D+04
 E4(SDQ)=  -0.59897797D-02        UMP4(SDQ)=  -0.29036502987D+04
 E4(SDTQ)= -0.36317018D-01        UMP4(SDTQ)= -0.29036806259D+04
 VARIATIONAL ENERGIES WITH THE FIRST-ORDER WAVEFUNCTION:
 E(VAR1)=  -0.29035198856D+04     E(CISD,4)=  -0.29035193320D+04
 Largest amplitude= 3.01D-02
 Leave Link  913 at Wed Dec 11 09:45:46 2019, MaxMem=  268435456 cpu:    1390.3
 (Enter /home/matheus/.gaussian/g09/l601.exe)
 Copying SCF densities to generalized density rwf, IOpCl= 0 IROHF=0.

 **********************************************************************

            Population analysis using the SCF density.

 **********************************************************************

 Orbital symmetries:
       Occupied  (A) (A) (A) (A) (A) (A) (A) (A) (A) (A) (A) (A)
                 (A) (A) (A) (A) (A) (A) (A) (A) (A) (A) (A) (A)
                 (A) (A) (A)
       Virtual   (A) (A) (A) (A) (A) (A) (A) (A) (A) (A) (A) (A)
                 (A) (A) (A) (A) (A) (A) (A) (A) (A) (A) (A) (A)
                 (A) (A) (A) (A) (A) (A) (A) (A) (A) (A) (A) (A)
                 (A) (A) (A) (A) (A) (A) (A) (A) (A) (A) (A) (A)
                 (A) (A) (A) (A) (A) (A) (A) (A) (A) (A) (A) (A)
                 (A) (A) (A) (A) (A) (A) (A) (A) (A) (A) (A) (A)
                 (A) (A) (A) (A) (A) (A) (A) (A) (A) (A) (A) (A)
                 (A) (A) (A) (A) (A) (A) (A) (A) (A) (A) (A) (A)
                 (A) (A) (A) (A) (A) (A) (A) (A) (A) (A) (A) (A)
                 (A) (A) (A) (A) (A) (A) (A) (A) (A) (A) (A) (A)
                 (A) (A) (A) (A) (A) (A) (A) (A) (A) (A) (A) (A)
                 (A) (A) (A) (A) (A) (A) (A) (A) (A) (A) (A) (A)
                 (A) (A) (A) (A) (A) (A) (A) (A) (A) (A) (A) (A)
                 (A) (A) (A) (A) (A) (A) (A) (A) (A) (A) (A) (A)
                 (A) (A)
 The electronic state is 1-A.
 Alpha  occ. eigenvalues -- -520.17281 -69.91035 -63.01694 -63.01691 -63.01688
 Alpha  occ. eigenvalues --  -20.62659 -20.62316 -10.85699  -8.33922  -8.33896
 Alpha  occ. eigenvalues --   -8.33881  -3.83302  -3.83297  -3.83277  -3.83248
 Alpha  occ. eigenvalues --   -3.83245  -1.46414  -1.21668  -1.16281  -0.71560
 Alpha  occ. eigenvalues --   -0.69898  -0.62339  -0.54382  -0.53178  -0.52803
 Alpha  occ. eigenvalues --   -0.51740  -0.45589
 Alpha virt. eigenvalues --    0.03594   0.04508   0.08878   0.10594   0.11427
 Alpha virt. eigenvalues --    0.12475   0.15271   0.16458   0.17384   0.17805
 Alpha virt. eigenvalues --    0.19687   0.21240   0.25152   0.26059   0.26676
 Alpha virt. eigenvalues --    0.28300   0.29196   0.31113   0.33605   0.35904
 Alpha virt. eigenvalues --    0.36724   0.37587   0.39158   0.41720   0.43117
 Alpha virt. eigenvalues --    0.44710   0.46040   0.52400   0.56776   0.59317
 Alpha virt. eigenvalues --    0.61506   0.65192   0.69570   0.70729   0.74376
 Alpha virt. eigenvalues --    0.76311   0.77638   0.78678   0.79749   0.82008
 Alpha virt. eigenvalues --    0.84109   0.84587   0.85255   0.86462   0.87627
 Alpha virt. eigenvalues --    0.89879   0.91312   0.93561   0.93864   0.97040
 Alpha virt. eigenvalues --    0.98831   1.00701   1.01885   1.03406   1.07539
 Alpha virt. eigenvalues --    1.09571   1.11695   1.13076   1.14054   1.17123
 Alpha virt. eigenvalues --    1.20320   1.21492   1.23805   1.24817   1.27588
 Alpha virt. eigenvalues --    1.35215   1.39960   1.46199   1.49995   1.50593
 Alpha virt. eigenvalues --    1.57624   1.61125   1.62221   1.65023   1.69216
 Alpha virt. eigenvalues --    1.71824   1.90783   1.94772   1.99290   2.08543
 Alpha virt. eigenvalues --    2.13610   2.14133   2.20391   2.28224   2.30171
 Alpha virt. eigenvalues --    2.32800   2.33766   2.37065   2.41296   2.42780
 Alpha virt. eigenvalues --    2.45434   2.48042   2.53241   2.53540   2.54967
 Alpha virt. eigenvalues --    2.56185   2.58331   2.61892   2.64056   2.66388
 Alpha virt. eigenvalues --    2.68792   2.69940   2.71731   2.74050   2.75591
 Alpha virt. eigenvalues --    2.78598   2.80923   2.82776   2.86420   2.88675
 Alpha virt. eigenvalues --    2.89455   2.93762   2.94851   3.01044   3.09595
 Alpha virt. eigenvalues --    3.14421   3.27657   3.28805   3.35548   3.74350
 Alpha virt. eigenvalues --    3.95872   4.09221   4.15115   4.30073   4.31292
 Alpha virt. eigenvalues --    4.36094   4.37747   4.39253   4.44316   4.50662
 Alpha virt. eigenvalues --    4.59356   4.66866   4.78798   4.83493   5.05052
 Alpha virt. eigenvalues --    5.15523   5.28348   5.29230   5.34354   5.34800
 Alpha virt. eigenvalues --    5.64034   5.81212   6.16025   6.31046   6.42939
 Alpha virt. eigenvalues --    6.47116   6.64422   6.70472   6.78585   6.82174
 Alpha virt. eigenvalues --    7.08508   7.10797   7.11273   7.19779   7.21306
 Alpha virt. eigenvalues --    7.25585   7.31270   7.32814   7.34400   7.35892
 Alpha virt. eigenvalues --    7.40009   7.62351   7.62589   7.76624   8.02759
 Alpha virt. eigenvalues --    8.23941   8.52409   8.55581  14.78454  15.24550
          Condensed to atoms (all electrons):
              1          2          3          4          5
     1  O    8.118318  -0.057499   0.228476  -0.015707  -0.029952
     2  O   -0.057499   8.123035  -0.006374   0.264618  -0.011103
     3  H    0.228476  -0.006374   0.518770   0.004988   0.002460
     4  H   -0.015707   0.264618   0.004988   0.459051  -0.004729
     5  Kr  -0.029952  -0.011103   0.002460  -0.004729  36.030471
 Mulliken atomic charges:
              1
     1  O   -0.243636
     2  O   -0.312677
     3  H    0.251680
     4  H    0.291780
     5  Kr   0.012853
 Sum of Mulliken atomic charges =   0.00000
 Mulliken charges with hydrogens summed into heavy atoms:
              1
     1  O    0.008044
     2  O   -0.020897
     5  Kr   0.012853
 Sum of Mulliken charges with hydrogens summed into heavy atoms =   0.00000
 Electronic spatial extent (au):  <R**2>=            492.2134
 Charge=              0.0000 electrons
 Dipole moment (field-independent basis, Debye):
    X=              0.1610    Y=             -0.2665    Z=              0.2880  Tot=              0.4241
 Quadrupole moment (field-independent basis, Debye-Ang):
   XX=            -26.2005   YY=            -28.3199   ZZ=            -30.4813
   XY=              3.9928   XZ=             -0.9124   YZ=             -0.3004
 Traceless Quadrupole moment (field-independent basis, Debye-Ang):
   XX=              2.1334   YY=              0.0140   ZZ=             -2.1474
   XY=              3.9928   XZ=             -0.9124   YZ=             -0.3004
 Octapole moment (field-independent basis, Debye-Ang**2):
  XXX=             -2.3019  YYY=             -0.5654  ZZZ=              0.1147  XYY=              4.0441
  XXY=            -16.9794  XXZ=              2.7582  XZZ=              8.0376  YZZ=             -0.3200
  YYZ=              0.3534  XYZ=              0.9374
 Hexadecapole moment (field-independent basis, Debye-Ang**3):
 XXXX=           -334.3334 YYYY=            -63.1978 ZZZZ=            -28.7202 XXXY=             53.9334
 XXXZ=             -8.4596 YYYX=              5.7192 YYYZ=             -0.3714 ZZZX=             -0.3610
 ZZZY=             -0.1606 XXYY=            -74.5801 XXZZ=            -78.9986 YYZZ=            -17.1239
 XXYZ=             -2.8508 YYXZ=             -1.0375 ZZXY=              0.4974
 N-N= 1.482893698349D+02 E-N=-7.237197611093D+03  KE= 2.902624494283D+03
 Leave Link  601 at Wed Dec 11 09:45:46 2019, MaxMem=  268435456 cpu:       0.2
 (Enter /home/matheus/.gaussian/g09/l108.exe)
 Variable Step   Value    
 -------- ---- -----------
     1       1    5.858151
 Leave Link  108 at Wed Dec 11 09:45:46 2019, MaxMem=  268435456 cpu:       0.0
 (Enter /home/matheus/.gaussian/g09/l202.exe)
 ---------------------------------------------------------------------------------------------------
                            Z-MATRIX (ANGSTROMS AND DEGREES)
   CD    Cent   Atom    N1       Length/X        N2       Alpha/Y        N3        Beta/Z          J
 ---------------------------------------------------------------------------------------------------
      1      1  O        0   0.000000          0.000000          0.725000
      2      2  O        0   0.000000          0.000000         -0.725000
      3      3  H        0  -0.159534         -0.904763          1.023510
      4      4  H        0   0.000000          0.918721         -1.023510
      5      5  Kr       0   0.000000          3.100000          0.000000
 ---------------------------------------------------------------------------------------------------
                         Z-Matrix orientation:                         
 ---------------------------------------------------------------------
 Center     Atomic      Atomic             Coordinates (Angstroms)
 Number     Number       Type             X           Y           Z
 ---------------------------------------------------------------------
      1          8           0        0.000000    0.000000    0.725000
      2          8           0        0.000000    0.000000   -0.725000
      3          1           0       -0.159534   -0.904763    1.023510
      4          1           0        0.000000    0.918721   -1.023510
      5         36           0        0.000000    3.100000    0.000000
 ---------------------------------------------------------------------
                    Distance matrix (angstroms):
                    1          2          3          4          5
     1  O    0.000000
     2  O    1.450000   0.000000
     3  H    0.966000   1.975180   0.000000
     4  H    1.975180   0.966000   2.746059   0.000000
     5  Kr   3.183650   3.183650   4.136563   2.409472   0.000000
 Stoichiometry    H2KrO2
 Framework group  C1[X(H2KrO2)]
 Deg. of freedom     9
 Full point group                 C1      NOp   1
 RotChk:  IX=0 Diff= 1.85D-03
 Largest Abelian subgroup         C1      NOp   1
 Largest concise Abelian subgroup C1      NOp   1
                         Standard orientation:                         
 ---------------------------------------------------------------------
 Center     Atomic      Atomic             Coordinates (Angstroms)
 Number     Number       Type             X           Y           Z
 ---------------------------------------------------------------------
      1          8           0       -2.079291   -0.688399   -0.021641
      2          8           0       -2.053865    0.761217   -0.000046
      3          1           0       -2.989793   -0.973277    0.129975
      4          1           0       -1.130059    1.043485    0.007906
      5         36           0        1.032919   -0.018132    0.000989
 ---------------------------------------------------------------------
 Rotational constants (GHZ):     26.6914498      2.1578518      1.9968130
 Leave Link  202 at Wed Dec 11 09:45:46 2019, MaxMem=  268435456 cpu:       0.0
 (Enter /home/matheus/.gaussian/g09/l301.exe)
 Standard basis: Aug-CC-pVTZ (5D, 7F)
 Ernie: Thresh=  0.10000D-02 Tol=  0.10000D-05 Strict=F.
 Ernie:  38 primitive shells out of 205 were deleted.
 There are   197 symmetry adapted basis functions of A   symmetry.
 Integral buffers will be    131072 words long.
 Raffenetti 1 integral format.
 Two-electron integral symmetry is turned on.
   197 basis functions,   415 primitive gaussians,   229 cartesian basis functions
    27 alpha electrons       27 beta electrons
       nuclear repulsion energy       144.8538509878 Hartrees.
 IExCor=    0 DFT=F Ex=HF Corr=None ExCW=0 ScaHFX=  1.000000
 ScaDFX=  1.000000  1.000000  1.000000  1.000000 ScalE2=  1.000000  1.000000
 IRadAn=      5 IRanWt=     -1 IRanGd=            0 ICorTp=0
 NAtoms=    5 NActive=    5 NUniq=    5 SFac= 1.00D+00 NAtFMM=   60 NAOKFM=F Big=F
 Leave Link  301 at Wed Dec 11 09:45:46 2019, MaxMem=  268435456 cpu:       0.0
 (Enter /home/matheus/.gaussian/g09/l302.exe)
 NPDir=0 NMtPBC=     1 NCelOv=     1 NCel=       1 NClECP=     1 NCelD=      1
         NCelK=      1 NCelE2=     1 NClLst=     1 CellRange=     0.0.
 One-electron integrals computed using PRISM.
 NBasis=   197 RedAO= T  NBF=   197
 NBsUse=   197 1.00D-06 NBFU=   197
 Leave Link  302 at Wed Dec 11 09:45:46 2019, MaxMem=  268435456 cpu:       0.2
 (Enter /home/matheus/.gaussian/g09/l303.exe)
 DipDrv:  MaxL=1.
 Leave Link  303 at Wed Dec 11 09:45:46 2019, MaxMem=  268435456 cpu:       0.0
 (Enter /home/matheus/.gaussian/g09/l401.exe)
 Initial guess read from the read-write file.
 B after Tr=     0.000000    0.000000    0.000000
         Rot=    1.000000    0.000000    0.000000    0.000000 Ang=   0.00 deg.
 Guess basis will be translated and rotated to current coordinates.
 Initial guess orbital symmetries:
       Occupied  (A) (A) (A) (A) (A) (A) (A) (A) (A) (A) (A) (A)
                 (A) (A) (A) (A) (A) (A) (A) (A) (A) (A) (A) (A)
                 (A) (A) (A)
       Virtual   (A) (A) (A) (A) (A) (A) (A) (A) (A) (A) (A) (A)
                 (A) (A) (A) (A) (A) (A) (A) (A) (A) (A) (A) (A)
                 (A) (A) (A) (A) (A) (A) (A) (A) (A) (A) (A) (A)
                 (A) (A) (A) (A) (A) (A) (A) (A) (A) (A) (A) (A)
                 (A) (A) (A) (A) (A) (A) (A) (A) (A) (A) (A) (A)
                 (A) (A) (A) (A) (A) (A) (A) (A) (A) (A) (A) (A)
                 (A) (A) (A) (A) (A) (A) (A) (A) (A) (A) (A) (A)
                 (A) (A) (A) (A) (A) (A) (A) (A) (A) (A) (A) (A)
                 (A) (A) (A) (A) (A) (A) (A) (A) (A) (A) (A) (A)
                 (A) (A) (A) (A) (A) (A) (A) (A) (A) (A) (A) (A)
                 (A) (A) (A) (A) (A) (A) (A) (A) (A) (A) (A) (A)
                 (A) (A) (A) (A) (A) (A) (A) (A) (A) (A) (A) (A)
                 (A) (A) (A) (A) (A) (A) (A) (A) (A) (A) (A) (A)
                 (A) (A) (A) (A) (A) (A) (A) (A) (A) (A) (A) (A)
                 (A) (A)
 The electronic state of the initial guess is 1-A.
 Generating alternative initial guess.
 Harris functional with IExCor=  205 diagonalized for initial guess.
 ExpMin= 2.53D-02 ExpMax= 1.17D+07 ExpMxC= 1.33D+04 IAcc=3 IRadAn=         5 AccDes= 0.00D+00
 HarFok:  IExCor=  205 AccDes= 0.00D+00 IRadAn=         5 IDoV= 1
 ScaDFX=  1.000000  1.000000  1.000000  1.000000
 FoFCou: FMM=F IPFlag=           0 FMFlag=      100000 FMFlg1=           0
         NFxFlg=           0 DoJE=T BraDBF=F KetDBF=T FulRan=T
         Omega=  0.000000  0.000000  1.000000  0.000000  0.000000 ICntrl=     500 IOpCl=  0
         NMat0=    1 NMatS0=    1 NMatT0=    0 NMatD0=    1 NMtDS0=    0 NMtDT0=    0
         I1Cent=           4 NGrid=           0.
 Petite list used in FoFCou.
 Harris En= -2901.93057682657    
 Leave Link  401 at Wed Dec 11 09:45:47 2019, MaxMem=  268435456 cpu:       1.2
 (Enter /home/matheus/.gaussian/g09/l502.exe)
 Closed shell SCF:
 Requested convergence on RMS density matrix=1.00D-08 within 128 cycles.
 Requested convergence on MAX density matrix=1.00D-06.
 Requested convergence on             energy=1.00D-06.
 No special actions if energy rises.
 Using DIIS extrapolation, IDIIS=  1040.
 Integral symmetry usage will be decided dynamically.
 IEnd=      178489 IEndB=      178489 NGot=   268435456 MDV=   268326278
 LenX=   268326278 LenY=   268273396
 Fock matrices will be formed incrementally for  20 cycles.

 Cycle   1  Pass 0  IDiag  1:
 FoFCou: FMM=F IPFlag=           0 FMFlag=      100000 FMFlg1=           0
         NFxFlg=           0 DoJE=F BraDBF=F KetDBF=F FulRan=T
         Omega=  0.000000  0.000000  1.000000  0.000000  0.000000 ICntrl=       0 IOpCl=  0
         NMat0=    1 NMatS0=    1 NMatT0=    0 NMatD0=    1 NMtDS0=    0 NMtDT0=    0
         I1Cent=           0 NGrid=           0.
 Symmetry not used in FoFCou.
 E= -2902.87933045436    
 DIIS: error= 6.03D-04 at cycle   1 NSaved=   1.
 NSaved= 1 IEnMin= 1 EnMin= -2902.87933045436     IErMin= 1 ErrMin= 6.03D-04
 ErrMax= 6.03D-04 EMaxC= 1.00D-01 BMatC= 6.91D-05 BMatP= 6.91D-05
 IDIUse=3 WtCom= 9.94D-01 WtEn= 6.03D-03
 Coeff-Com:  0.100D+01
 Coeff-En:   0.100D+01
 Coeff:      0.100D+01
 Gap=     0.493 Goal=   None    Shift=    0.000
 RMSDP=7.39D-05 MaxDP=3.22D-03              OVMax= 3.02D-03

 Cycle   2  Pass 0  IDiag  1:
 RMSU=  5.23D-05    CP:  1.00D+00
 E= -2902.87941180660     Delta-E=       -0.000081352245 Rises=F Damp=F
 DIIS: error= 1.09D-04 at cycle   2 NSaved=   2.
 NSaved= 2 IEnMin= 2 EnMin= -2902.87941180660     IErMin= 2 ErrMin= 1.09D-04
 ErrMax= 1.09D-04 EMaxC= 1.00D-01 BMatC= 2.40D-06 BMatP= 6.91D-05
 IDIUse=3 WtCom= 9.99D-01 WtEn= 1.09D-03
 Coeff-Com: -0.774D-01 0.108D+01
 Coeff-En:   0.000D+00 0.100D+01
 Coeff:     -0.773D-01 0.108D+01
 Gap=     0.492 Goal=   None    Shift=    0.000
 RMSDP=1.40D-05 MaxDP=4.74D-04 DE=-8.14D-05 OVMax= 6.98D-04

 Cycle   3  Pass 0  IDiag  1:
 RMSU=  6.32D-06    CP:  1.00D+00  1.15D+00
 E= -2902.87941530368     Delta-E=       -0.000003497084 Rises=F Damp=F
 DIIS: error= 3.78D-05 at cycle   3 NSaved=   3.
 NSaved= 3 IEnMin= 3 EnMin= -2902.87941530368     IErMin= 3 ErrMin= 3.78D-05
 ErrMax= 3.78D-05 EMaxC= 1.00D-01 BMatC= 4.05D-07 BMatP= 2.40D-06
 IDIUse=1 WtCom= 1.00D+00 WtEn= 0.00D+00
 Coeff-Com: -0.441D-01 0.266D+00 0.778D+00
 Coeff:     -0.441D-01 0.266D+00 0.778D+00
 Gap=     0.492 Goal=   None    Shift=    0.000
 RMSDP=2.70D-06 MaxDP=7.69D-05 DE=-3.50D-06 OVMax= 1.75D-04

 Initial convergence to 1.0D-05 achieved.  Increase integral accuracy.
 Cycle   4  Pass 1  IDiag  1:
 E= -2902.87941568497     Delta-E=       -0.000000381284 Rises=F Damp=F
 DIIS: error= 1.45D-05 at cycle   1 NSaved=   1.
 NSaved= 1 IEnMin= 1 EnMin= -2902.87941568497     IErMin= 1 ErrMin= 1.45D-05
 ErrMax= 1.45D-05 EMaxC= 1.00D-01 BMatC= 4.75D-08 BMatP= 4.75D-08
 IDIUse=1 WtCom= 1.00D+00 WtEn= 0.00D+00
 Coeff-Com:  0.100D+01
 Coeff:      0.100D+01
 Gap=     0.492 Goal=   None    Shift=    0.000
 RMSDP=2.70D-06 MaxDP=7.69D-05 DE=-3.81D-07 OVMax= 1.07D-04

 Cycle   5  Pass 1  IDiag  1:
 RMSU=  9.69D-07    CP:  1.00D+00
 E= -2902.87941574332     Delta-E=       -0.000000058355 Rises=F Damp=F
 DIIS: error= 8.92D-06 at cycle   2 NSaved=   2.
 NSaved= 2 IEnMin= 2 EnMin= -2902.87941574332     IErMin= 2 ErrMin= 8.92D-06
 ErrMax= 8.92D-06 EMaxC= 1.00D-01 BMatC= 1.88D-08 BMatP= 4.75D-08
 IDIUse=1 WtCom= 1.00D+00 WtEn= 0.00D+00
 Coeff-Com:  0.336D+00 0.664D+00
 Coeff:      0.336D+00 0.664D+00
 Gap=     0.492 Goal=   None    Shift=    0.000
 RMSDP=4.26D-07 MaxDP=1.98D-05 DE=-5.84D-08 OVMax= 3.92D-05

 Cycle   6  Pass 1  IDiag  1:
 RMSU=  2.91D-07    CP:  1.00D+00  1.08D+00
 E= -2902.87941576102     Delta-E=       -0.000000017695 Rises=F Damp=F
 DIIS: error= 3.65D-06 at cycle   3 NSaved=   3.
 NSaved= 3 IEnMin= 3 EnMin= -2902.87941576102     IErMin= 3 ErrMin= 3.65D-06
 ErrMax= 3.65D-06 EMaxC= 1.00D-01 BMatC= 2.74D-09 BMatP= 1.88D-08
 IDIUse=1 WtCom= 1.00D+00 WtEn= 0.00D+00
 Coeff-Com: -0.354D+00-0.135D+00 0.149D+01
 Coeff:     -0.354D+00-0.135D+00 0.149D+01
 Gap=     0.492 Goal=   None    Shift=    0.000
 RMSDP=5.45D-07 MaxDP=1.43D-05 DE=-1.77D-08 OVMax= 4.62D-05

 Cycle   7  Pass 1  IDiag  1:
 RMSU=  1.08D-07    CP:  1.00D+00  1.44D+00  1.45D+00
 E= -2902.87941576789     Delta-E=       -0.000000006875 Rises=F Damp=F
 DIIS: error= 5.41D-07 at cycle   4 NSaved=   4.
 NSaved= 4 IEnMin= 4 EnMin= -2902.87941576789     IErMin= 4 ErrMin= 5.41D-07
 ErrMax= 5.41D-07 EMaxC= 1.00D-01 BMatC= 8.34D-11 BMatP= 2.74D-09
 IDIUse=1 WtCom= 1.00D+00 WtEn= 0.00D+00
 Coeff-Com: -0.651D-01-0.311D-01 0.207D+00 0.889D+00
 Coeff:     -0.651D-01-0.311D-01 0.207D+00 0.889D+00
 Gap=     0.492 Goal=   None    Shift=    0.000
 RMSDP=5.59D-08 MaxDP=1.84D-06 DE=-6.87D-09 OVMax= 4.46D-06

 Cycle   8  Pass 1  IDiag  1:
 RMSU=  2.44D-08    CP:  1.00D+00  1.45D+00  1.48D+00  1.27D+00
 E= -2902.87941576805     Delta-E=       -0.000000000156 Rises=F Damp=F
 DIIS: error= 3.38D-07 at cycle   5 NSaved=   5.
 NSaved= 5 IEnMin= 5 EnMin= -2902.87941576805     IErMin= 5 ErrMin= 3.38D-07
 ErrMax= 3.38D-07 EMaxC= 1.00D-01 BMatC= 1.63D-11 BMatP= 8.34D-11
 IDIUse=1 WtCom= 1.00D+00 WtEn= 0.00D+00
 Coeff-Com:  0.677D-01 0.346D-01-0.297D+00-0.306D-01 0.123D+01
 Coeff:      0.677D-01 0.346D-01-0.297D+00-0.306D-01 0.123D+01
 Gap=     0.492 Goal=   None    Shift=    0.000
 RMSDP=3.73D-08 MaxDP=1.03D-06 DE=-1.56D-10 OVMax= 2.82D-06

 Cycle   9  Pass 1  IDiag  1:
 RMSU=  1.01D-08    CP:  1.00D+00  1.44D+00  1.48D+00  1.47D+00  1.37D+00
 E= -2902.87941576808     Delta-E=       -0.000000000032 Rises=F Damp=F
 DIIS: error= 9.48D-08 at cycle   6 NSaved=   6.
 NSaved= 6 IEnMin= 6 EnMin= -2902.87941576808     IErMin= 6 ErrMin= 9.48D-08
 ErrMax= 9.48D-08 EMaxC= 1.00D-01 BMatC= 1.12D-12 BMatP= 1.63D-11
 IDIUse=1 WtCom= 1.00D+00 WtEn= 0.00D+00
 Coeff-Com: -0.574D-02-0.550D-03 0.267D-01-0.542D-01-0.165D+00 0.120D+01
 Coeff:     -0.574D-02-0.550D-03 0.267D-01-0.542D-01-0.165D+00 0.120D+01
 Gap=     0.492 Goal=   None    Shift=    0.000
 RMSDP=8.72D-09 MaxDP=2.13D-07 DE=-3.23D-11 OVMax= 1.02D-06

 SCF Done:  E(RHF) =  -2902.87941577     A.U. after    9 cycles
             Convg  =    0.8724D-08             -V/T =  2.0001
 KE= 2.902606724905D+03 PE=-7.230313564756D+03 EE= 1.279973573096D+03
 Leave Link  502 at Wed Dec 11 09:46:19 2019, MaxMem=  268435456 cpu:      64.5
 (Enter /home/matheus/.gaussian/g09/l801.exe)
 Windowed orbitals will be sorted by symmetry type.
 ExpMin= 2.53D-02 ExpMax= 1.17D+07 ExpMxC= 1.33D+04 IAcc=3 IRadAn=         5 AccDes= 0.00D+00
 HarFok:  IExCor=  205 AccDes= 0.00D+00 IRadAn=         5 IDoV=-2
 ScaDFX=  1.000000  1.000000  1.000000  1.000000
 DSYEVD returned Info=          93 IAlg= 4 N=    46 NDim=    46 NE2=     4547561 trying DSYEV.
 Largest valence mixing into a core orbital is  1.44D-04
 Largest core mixing into a valence orbital is  2.59D-05
 Range of M.O.s used for correlation:    12   197
 NBasis=   197 NAE=    27 NBE=    27 NFC=    11 NFV=     0
 NROrb=    186 NOA=    16 NOB=    16 NVA=   170 NVB=   170

 **** Warning!!: The largest alpha MO coefficient is  0.12655201D+02

 Leave Link  801 at Wed Dec 11 09:46:19 2019, MaxMem=  268435456 cpu:       0.2
 (Enter /home/matheus/.gaussian/g09/l804.exe)
 Closed-shell transformation, MDV=   268435456 ITran=4 ISComp=1.
 Semi-Direct transformation.
 ModeAB=           2 MOrb=            16 LenV=     267328116
 LASXX=     48528660 LTotXX=    48528660 LenRXX=    48528660
 LTotAB=    49298776 MaxLAS=    78372960 LenRXY=    78372960
 NonZer=    97057320 LenScr=   146313216 LnRSAI=           0
 LnScr1=           0 LExtra=           0 Total=    273214836
 MaxDsk=          -1 SrtSym=           F ITran=            4
 DoSDTr:  NPSUse=  2
 JobTyp=0 Pass  1:  I=   1 to  16.
 (rs|ai) integrals will be sorted in core.
 Complete sort for first half transformation.
 First half transformation complete.
 Begin second half transformation for I=  10.
 Begin second half transformation for I=  10.
 Complete sort for second half transformation.
 Second half transformation complete.
 SymMOI:  orbitals are not symmetric.
 Spin components of T(2) and E(2):
     alpha-alpha T2 =       0.2583179384D-01 E2=     -0.9960956279D-01
     alpha-beta  T2 =       0.1416350695D+00 E2=     -0.5556292838D+00
     beta-beta   T2 =       0.2583179384D-01 E2=     -0.9960956279D-01
 ANorm=    0.1092382102D+01
 E2 =    -0.7548484094D+00 EUMP2 =    -0.29036342641775D+04
 Leave Link  804 at Wed Dec 11 09:46:43 2019, MaxMem=  268435456 cpu:      45.8
 (Enter /home/matheus/.gaussian/g09/l913.exe)
 CIDS:  MDV=   268435456.
 Frozen-core window:  NFC=  11 NFV=   0.
 IFCWin=0 IBDFC=1 NFBD=     0     0 NFCmp=     0     0 NFFFC=     0     0
 Using DD3R+UMP44R for 1st iteration, S=T.
 Using DD4RQ for 2nd and later iterations.
 Would need an additional       431206676 words for in-memory AO integral storage.
 MP4(SDTQ)
 =========
 DD1Dir will call FoFDir   1 times, MxPair=       272
 NAB=   136 NAA=     0 NBB=     0 NumPrc=  2.
 Integrals replicated using symmetry in FoFDir.
 MinBra= 0 MaxBra= 3 Meth= 1.
 IRaf=       0 NMat= 272 IRICut=     340 DoRegI=T DoRafI=T ISym2E= 2 JSym2E=2.
 MP4(D)= -0.14939648D-01
 MP4(S)= -0.63632983D-02
 MP4(R+Q)=  0.15275815D-01
 T4(AAA)= -0.10276752D-02
 T4(AAB)= -0.14064287D-01
 Time for triples=     1321.49 seconds.
 MP4(T)=   -0.30183924D-01
 E3=       -0.11504386D-01        EUMP3=      -0.29036457686D+04
 E4(DQ)=    0.33616700D-03        UMP4(DQ)=   -0.29036454324D+04
 E4(SDQ)=  -0.60271313D-02        UMP4(SDQ)=  -0.29036517957D+04
 E4(SDTQ)= -0.36211056D-01        UMP4(SDTQ)= -0.29036819796D+04
 VARIATIONAL ENERGIES WITH THE FIRST-ORDER WAVEFUNCTION:
 E(VAR1)=  -0.29035216295D+04     E(CISD,4)=  -0.29035211603D+04
 Largest amplitude= 3.02D-02
 Leave Link  913 at Wed Dec 11 09:58:29 2019, MaxMem=  268435456 cpu:    1407.5
 (Enter /home/matheus/.gaussian/g09/l108.exe)
 Variable Step   Value    
 -------- ---- -----------
     1       2    6.047124
 Leave Link  108 at Wed Dec 11 09:58:29 2019, MaxMem=  268435456 cpu:       0.0
 (Enter /home/matheus/.gaussian/g09/l202.exe)
 ---------------------------------------------------------------------------------------------------
                            Z-MATRIX (ANGSTROMS AND DEGREES)
   CD    Cent   Atom    N1       Length/X        N2       Alpha/Y        N3        Beta/Z          J
 ---------------------------------------------------------------------------------------------------
      1      1  O        0   0.000000          0.000000          0.725000
      2      2  O        0   0.000000          0.000000         -0.725000
      3      3  H        0  -0.159534         -0.904763          1.023510
      4      4  H        0   0.000000          0.918721         -1.023510
      5      5  Kr       0   0.000000          3.200000          0.000000
 ---------------------------------------------------------------------------------------------------
                         Z-Matrix orientation:                         
 ---------------------------------------------------------------------
 Center     Atomic      Atomic             Coordinates (Angstroms)
 Number     Number       Type             X           Y           Z
 ---------------------------------------------------------------------
      1          8           0        0.000000    0.000000    0.725000
      2          8           0        0.000000    0.000000   -0.725000
      3          1           0       -0.159534   -0.904763    1.023510
      4          1           0        0.000000    0.918721   -1.023510
      5         36           0        0.000000    3.200000    0.000000
 ---------------------------------------------------------------------
                    Distance matrix (angstroms):
                    1          2          3          4          5
     1  O    0.000000
     2  O    1.450000   0.000000
     3  H    0.966000   1.975180   0.000000
     4  H    1.975180   0.966000   2.746059   0.000000
     5  Kr   3.281101   3.281101   4.233451   2.500362   0.000000
 Stoichiometry    H2KrO2
 Framework group  C1[X(H2KrO2)]
 Deg. of freedom     9
 Full point group                 C1      NOp   1
 RotChk:  IX=0 Diff= 1.66D-03
 Largest Abelian subgroup         C1      NOp   1
 Largest concise Abelian subgroup C1      NOp   1
                         Standard orientation:                         
 ---------------------------------------------------------------------
 Center     Atomic      Atomic             Coordinates (Angstroms)
 Number     Number       Type             X           Y           Z
 ---------------------------------------------------------------------
      1          8           0       -2.145149   -0.689724   -0.021601
      2          8           0       -2.121407    0.759920    0.000031
      3          1           0       -3.055296   -0.975666    0.130140
      4          1           0       -1.197929    1.043263    0.007857
      5         36           0        1.066269   -0.017477    0.000960
 ---------------------------------------------------------------------
 Rotational constants (GHZ):     26.6898902      2.0259988      1.8833810
 Leave Link  202 at Wed Dec 11 09:58:29 2019, MaxMem=  268435456 cpu:       0.0
 (Enter /home/matheus/.gaussian/g09/l301.exe)
 Standard basis: Aug-CC-pVTZ (5D, 7F)
 Ernie: Thresh=  0.10000D-02 Tol=  0.10000D-05 Strict=F.
 Ernie:  38 primitive shells out of 205 were deleted.
 There are   197 symmetry adapted basis functions of A   symmetry.
 Integral buffers will be    131072 words long.
 Raffenetti 1 integral format.
 Two-electron integral symmetry is turned on.
   197 basis functions,   415 primitive gaussians,   229 cartesian basis functions
    27 alpha electrons       27 beta electrons
       nuclear repulsion energy       141.6174519096 Hartrees.
 IExCor=    0 DFT=F Ex=HF Corr=None ExCW=0 ScaHFX=  1.000000
 ScaDFX=  1.000000  1.000000  1.000000  1.000000 ScalE2=  1.000000  1.000000
 IRadAn=      5 IRanWt=     -1 IRanGd=            0 ICorTp=0
 NAtoms=    5 NActive=    5 NUniq=    5 SFac= 1.00D+00 NAtFMM=   60 NAOKFM=F Big=F
 Leave Link  301 at Wed Dec 11 09:58:29 2019, MaxMem=  268435456 cpu:       0.0
 (Enter /home/matheus/.gaussian/g09/l302.exe)
 NPDir=0 NMtPBC=     1 NCelOv=     1 NCel=       1 NClECP=     1 NCelD=      1
         NCelK=      1 NCelE2=     1 NClLst=     1 CellRange=     0.0.
 One-electron integrals computed using PRISM.
 NBasis=   197 RedAO= T  NBF=   197
 NBsUse=   197 1.00D-06 NBFU=   197
 Leave Link  302 at Wed Dec 11 09:58:29 2019, MaxMem=  268435456 cpu:       0.2
 (Enter /home/matheus/.gaussian/g09/l303.exe)
 DipDrv:  MaxL=1.
 Leave Link  303 at Wed Dec 11 09:58:29 2019, MaxMem=  268435456 cpu:       0.0
 (Enter /home/matheus/.gaussian/g09/l401.exe)
 Initial guess read from the read-write file.
 B after Tr=     0.000000    0.000000    0.000000
         Rot=    1.000000    0.000000    0.000000    0.000000 Ang=   0.00 deg.
 Guess basis will be translated and rotated to current coordinates.
 Initial guess orbital symmetries:
       Occupied  (A) (A) (A) (A) (A) (A) (A) (A) (A) (A) (A) (A)
                 (A) (A) (A) (A) (A) (A) (A) (A) (A) (A) (A) (A)
                 (A) (A) (A)
       Virtual   (A) (A) (A) (A) (A) (A) (A) (A) (A) (A) (A) (A)
                 (A) (A) (A) (A) (A) (A) (A) (A) (A) (A) (A) (A)
                 (A) (A) (A) (A) (A) (A) (A) (A) (A) (A) (A) (A)
                 (A) (A) (A) (A) (A) (A) (A) (A) (A) (A) (A) (A)
                 (A) (A) (A) (A) (A) (A) (A) (A) (A) (A) (A) (A)
                 (A) (A) (A) (A) (A) (A) (A) (A) (A) (A) (A) (A)
                 (A) (A) (A) (A) (A) (A) (A) (A) (A) (A) (A) (A)
                 (A) (A) (A) (A) (A) (A) (A) (A) (A) (A) (A) (A)
                 (A) (A) (A) (A) (A) (A) (A) (A) (A) (A) (A) (A)
                 (A) (A) (A) (A) (A) (A) (A) (A) (A) (A) (A) (A)
                 (A) (A) (A) (A) (A) (A) (A) (A) (A) (A) (A) (A)
                 (A) (A) (A) (A) (A) (A) (A) (A) (A) (A) (A) (A)
                 (A) (A) (A) (A) (A) (A) (A) (A) (A) (A) (A) (A)
                 (A) (A) (A) (A) (A) (A) (A) (A) (A) (A) (A) (A)
                 (A) (A)
 The electronic state of the initial guess is 1-A.
 Generating alternative initial guess.
 Harris functional with IExCor=  205 diagonalized for initial guess.
 ExpMin= 2.53D-02 ExpMax= 1.17D+07 ExpMxC= 1.33D+04 IAcc=3 IRadAn=         5 AccDes= 0.00D+00
 HarFok:  IExCor=  205 AccDes= 0.00D+00 IRadAn=         5 IDoV= 1
 ScaDFX=  1.000000  1.000000  1.000000  1.000000
 FoFCou: FMM=F IPFlag=           0 FMFlag=      100000 FMFlg1=           0
         NFxFlg=           0 DoJE=T BraDBF=F KetDBF=T FulRan=T
         Omega=  0.000000  0.000000  1.000000  0.000000  0.000000 ICntrl=     500 IOpCl=  0
         NMat0=    1 NMatS0=    1 NMatT0=    0 NMatD0=    1 NMtDS0=    0 NMtDT0=    0
         I1Cent=           4 NGrid=           0.
 Petite list used in FoFCou.
 Harris En= -2901.93123130744    
 Leave Link  401 at Wed Dec 11 09:58:30 2019, MaxMem=  268435456 cpu:       1.3
 (Enter /home/matheus/.gaussian/g09/l502.exe)
 Closed shell SCF:
 Requested convergence on RMS density matrix=1.00D-08 within 128 cycles.
 Requested convergence on MAX density matrix=1.00D-06.
 Requested convergence on             energy=1.00D-06.
 No special actions if energy rises.
 Using DIIS extrapolation, IDIIS=  1040.
 Integral symmetry usage will be decided dynamically.
 IEnd=      178489 IEndB=      178489 NGot=   268435456 MDV=   268326278
 LenX=   268326278 LenY=   268273396
 Fock matrices will be formed incrementally for  20 cycles.

 Cycle   1  Pass 0  IDiag  1:
 FoFCou: FMM=F IPFlag=           0 FMFlag=      100000 FMFlg1=           0
         NFxFlg=           0 DoJE=F BraDBF=F KetDBF=F FulRan=T
         Omega=  0.000000  0.000000  1.000000  0.000000  0.000000 ICntrl=       0 IOpCl=  0
         NMat0=    1 NMatS0=    1 NMatT0=    0 NMatD0=    1 NMtDS0=    0 NMtDT0=    0
         I1Cent=           0 NGrid=           0.
 Symmetry not used in FoFCou.
 E= -2902.88104660081    
 DIIS: error= 5.17D-04 at cycle   1 NSaved=   1.
 NSaved= 1 IEnMin= 1 EnMin= -2902.88104660081     IErMin= 1 ErrMin= 5.17D-04
 ErrMax= 5.17D-04 EMaxC= 1.00D-01 BMatC= 5.19D-05 BMatP= 5.19D-05
 IDIUse=3 WtCom= 9.95D-01 WtEn= 5.17D-03
 Coeff-Com:  0.100D+01
 Coeff-En:   0.100D+01
 Coeff:      0.100D+01
 Gap=     0.494 Goal=   None    Shift=    0.000
 RMSDP=6.83D-05 MaxDP=2.39D-03              OVMax= 2.72D-03

 Cycle   2  Pass 0  IDiag  1:
 RMSU=  4.83D-05    CP:  1.00D+00
 E= -2902.88110796145     Delta-E=       -0.000061360640 Rises=F Damp=F
 DIIS: error= 9.76D-05 at cycle   2 NSaved=   2.
 NSaved= 2 IEnMin= 2 EnMin= -2902.88110796145     IErMin= 2 ErrMin= 9.76D-05
 ErrMax= 9.76D-05 EMaxC= 1.00D-01 BMatC= 1.65D-06 BMatP= 5.19D-05
 IDIUse=1 WtCom= 1.00D+00 WtEn= 0.00D+00
 Coeff-Com: -0.824D-01 0.108D+01
 Coeff:     -0.824D-01 0.108D+01
 Gap=     0.493 Goal=   None    Shift=    0.000
 RMSDP=1.23D-05 MaxDP=3.91D-04 DE=-6.14D-05 OVMax= 5.97D-04

 Cycle   3  Pass 0  IDiag  1:
 RMSU=  5.36D-06    CP:  1.00D+00  1.14D+00
 E= -2902.88111052077     Delta-E=       -0.000002559326 Rises=F Damp=F
 DIIS: error= 3.27D-05 at cycle   3 NSaved=   3.
 NSaved= 3 IEnMin= 3 EnMin= -2902.88111052077     IErMin= 3 ErrMin= 3.27D-05
 ErrMax= 3.27D-05 EMaxC= 1.00D-01 BMatC= 2.48D-07 BMatP= 1.65D-06
 IDIUse=1 WtCom= 1.00D+00 WtEn= 0.00D+00
 Coeff-Com: -0.404D-01 0.246D+00 0.794D+00
 Coeff:     -0.404D-01 0.246D+00 0.794D+00
 Gap=     0.493 Goal=   None    Shift=    0.000
 RMSDP=2.31D-06 MaxDP=7.15D-05 DE=-2.56D-06 OVMax= 1.47D-04

 Initial convergence to 1.0D-05 achieved.  Increase integral accuracy.
 Cycle   4  Pass 1  IDiag  1:
 E= -2902.88111077042     Delta-E=       -0.000000249649 Rises=F Damp=F
 DIIS: error= 1.25D-05 at cycle   1 NSaved=   1.
 NSaved= 1 IEnMin= 1 EnMin= -2902.88111077042     IErMin= 1 ErrMin= 1.25D-05
 ErrMax= 1.25D-05 EMaxC= 1.00D-01 BMatC= 3.31D-08 BMatP= 3.31D-08
 IDIUse=1 WtCom= 1.00D+00 WtEn= 0.00D+00
 Coeff-Com:  0.100D+01
 Coeff:      0.100D+01
 Gap=     0.493 Goal=   None    Shift=    0.000
 RMSDP=2.31D-06 MaxDP=7.15D-05 DE=-2.50D-07 OVMax= 9.06D-05

 Cycle   5  Pass 1  IDiag  1:
 RMSU=  8.34D-07    CP:  1.00D+00
 E= -2902.88111081195     Delta-E=       -0.000000041527 Rises=F Damp=F
 DIIS: error= 7.23D-06 at cycle   2 NSaved=   2.
 NSaved= 2 IEnMin= 2 EnMin= -2902.88111081195     IErMin= 2 ErrMin= 7.23D-06
 ErrMax= 7.23D-06 EMaxC= 1.00D-01 BMatC= 1.31D-08 BMatP= 3.31D-08
 IDIUse=1 WtCom= 1.00D+00 WtEn= 0.00D+00
 Coeff-Com:  0.334D+00 0.666D+00
 Coeff:      0.334D+00 0.666D+00
 Gap=     0.493 Goal=   None    Shift=    0.000
 RMSDP=3.58D-07 MaxDP=1.64D-05 DE=-4.15D-08 OVMax= 3.28D-05

 Cycle   6  Pass 1  IDiag  1:
 RMSU=  2.43D-07    CP:  1.00D+00  1.09D+00
 E= -2902.88111082433     Delta-E=       -0.000000012384 Rises=F Damp=F
 DIIS: error= 3.13D-06 at cycle   3 NSaved=   3.
 NSaved= 3 IEnMin= 3 EnMin= -2902.88111082433     IErMin= 3 ErrMin= 3.13D-06
 ErrMax= 3.13D-06 EMaxC= 1.00D-01 BMatC= 1.93D-09 BMatP= 1.31D-08
 IDIUse=1 WtCom= 1.00D+00 WtEn= 0.00D+00
 Coeff-Com: -0.354D+00-0.134D+00 0.149D+01
 Coeff:     -0.354D+00-0.134D+00 0.149D+01
 Gap=     0.493 Goal=   None    Shift=    0.000
 RMSDP=4.63D-07 MaxDP=1.31D-05 DE=-1.24D-08 OVMax= 3.95D-05

 Cycle   7  Pass 1  IDiag  1:
 RMSU=  9.41D-08    CP:  1.00D+00  1.44D+00  1.44D+00
 E= -2902.88111082922     Delta-E=       -0.000000004885 Rises=F Damp=F
 DIIS: error= 4.51D-07 at cycle   4 NSaved=   4.
 NSaved= 4 IEnMin= 4 EnMin= -2902.88111082922     IErMin= 4 ErrMin= 4.51D-07
 ErrMax= 4.51D-07 EMaxC= 1.00D-01 BMatC= 6.37D-11 BMatP= 1.93D-09
 IDIUse=1 WtCom= 1.00D+00 WtEn= 0.00D+00
 Coeff-Com: -0.751D-01-0.360D-01 0.250D+00 0.861D+00
 Coeff:     -0.751D-01-0.360D-01 0.250D+00 0.861D+00
 Gap=     0.493 Goal=   None    Shift=    0.000
 RMSDP=4.73D-08 MaxDP=1.65D-06 DE=-4.88D-09 OVMax= 3.79D-06

 Cycle   8  Pass 1  IDiag  1:
 RMSU=  2.12D-08    CP:  1.00D+00  1.45D+00  1.47D+00  1.26D+00
 E= -2902.88111082932     Delta-E=       -0.000000000107 Rises=F Damp=F
 DIIS: error= 2.62D-07 at cycle   5 NSaved=   5.
 NSaved= 5 IEnMin= 5 EnMin= -2902.88111082932     IErMin= 5 ErrMin= 2.62D-07
 ErrMax= 2.62D-07 EMaxC= 1.00D-01 BMatC= 1.19D-11 BMatP= 6.37D-11
 IDIUse=1 WtCom= 1.00D+00 WtEn= 0.00D+00
 Coeff-Com:  0.731D-01 0.374D-01-0.318D+00-0.563D-01 0.126D+01
 Coeff:      0.731D-01 0.374D-01-0.318D+00-0.563D-01 0.126D+01
 Gap=     0.493 Goal=   None    Shift=    0.000
 RMSDP=3.37D-08 MaxDP=1.08D-06 DE=-1.07D-10 OVMax= 2.49D-06

 Cycle   9  Pass 1  IDiag  1:
 RMSU=  8.63D-09    CP:  1.00D+00  1.44D+00  1.47D+00  1.47D+00  1.38D+00
 E= -2902.88111082936     Delta-E=       -0.000000000039 Rises=F Damp=F
 DIIS: error= 7.58D-08 at cycle   6 NSaved=   6.
 NSaved= 6 IEnMin= 6 EnMin= -2902.88111082936     IErMin= 6 ErrMin= 7.58D-08
 ErrMax= 7.58D-08 EMaxC= 1.00D-01 BMatC= 7.14D-13 BMatP= 1.19D-11
 IDIUse=1 WtCom= 1.00D+00 WtEn= 0.00D+00
 Coeff-Com: -0.184D-01-0.688D-02 0.804D-01-0.304D-01-0.384D+00 0.136D+01
 Coeff:     -0.184D-01-0.688D-02 0.804D-01-0.304D-01-0.384D+00 0.136D+01
 Gap=     0.493 Goal=   None    Shift=    0.000
 RMSDP=8.19D-09 MaxDP=2.11D-07 DE=-3.91D-11 OVMax= 9.15D-07

 SCF Done:  E(RHF) =  -2902.88111083     A.U. after    9 cycles
             Convg  =    0.8189D-08             -V/T =  2.0001
 KE= 2.902593658575D+03 PE=-7.223833887401D+03 EE= 1.276741666087D+03
 Leave Link  502 at Wed Dec 11 09:59:04 2019, MaxMem=  268435456 cpu:      67.5
 (Enter /home/matheus/.gaussian/g09/l801.exe)
 Windowed orbitals will be sorted by symmetry type.
 ExpMin= 2.53D-02 ExpMax= 1.17D+07 ExpMxC= 1.33D+04 IAcc=3 IRadAn=         5 AccDes= 0.00D+00
 HarFok:  IExCor=  205 AccDes= 0.00D+00 IRadAn=         5 IDoV=-2
 ScaDFX=  1.000000  1.000000  1.000000  1.000000
 DSYEVD returned Info=          93 IAlg= 4 N=    46 NDim=    46 NE2=     4547561 trying DSYEV.
 DSYEVD returned Info=          89 IAlg= 4 N=    59 NDim=    59 NE2=     4547561 trying DSYEV.
 Largest valence mixing into a core orbital is  1.44D-04
 Largest core mixing into a valence orbital is  2.59D-05
 Range of M.O.s used for correlation:    12   197
 NBasis=   197 NAE=    27 NBE=    27 NFC=    11 NFV=     0
 NROrb=    186 NOA=    16 NOB=    16 NVA=   170 NVB=   170

 **** Warning!!: The largest alpha MO coefficient is  0.12546347D+02

 Leave Link  801 at Wed Dec 11 09:59:04 2019, MaxMem=  268435456 cpu:       0.2
 (Enter /home/matheus/.gaussian/g09/l804.exe)
 Closed-shell transformation, MDV=   268435456 ITran=4 ISComp=1.
 Semi-Direct transformation.
 ModeAB=           4 MOrb=            16 LenV=     267329052
 LASXX=     48528660 LTotXX=    48528660 LenRXX=    97827436
 LTotAB=    49298776 MaxLAS=    78349152 LenRXY=           0
 NonZer=   146356096 LenScr=   220395520 LnRSAI=    78349152
 LnScr1=   118292480 LExtra=           0 Total=    514864588
 MaxDsk=          -1 SrtSym=           T ITran=            4
 DoSDTr:  NPSUse=  2
 JobTyp=0 Pass  1:  I=   1 to  16.
 (rs|ai) integrals will be sorted in core.
 Complete sort for first half transformation.
 First half transformation complete.
 Begin second half transformation for I=  10.
 Complete sort for second half transformation.
 Second half transformation complete.
 SymMOI:  orbitals are not symmetric.
 Spin components of T(2) and E(2):
     alpha-alpha T2 =       0.2576830940D-01 E2=     -0.9939460362D-01
     alpha-beta  T2 =       0.1415455550D+00 E2=     -0.5551313574D+00
     beta-beta   T2 =       0.2576830940D-01 E2=     -0.9939460362D-01
 ANorm=    0.1092283010D+01
 E2 =    -0.7539205646D+00 EUMP2 =    -0.29036350313940D+04
 Leave Link  804 at Wed Dec 11 09:59:27 2019, MaxMem=  268435456 cpu:      45.8
 (Enter /home/matheus/.gaussian/g09/l913.exe)
 CIDS:  MDV=   268435456.
 Frozen-core window:  NFC=  11 NFV=   0.
 IFCWin=0 IBDFC=1 NFBD=     0     0 NFCmp=     0     0 NFFFC=     0     0
 Using DD3R+UMP44R for 1st iteration, S=T.
 Using DD4RQ for 2nd and later iterations.
 Would need an additional       431206676 words for in-memory AO integral storage.
 MP4(SDTQ)
 =========
 DD1Dir will call FoFDir   1 times, MxPair=       272
 NAB=   136 NAA=     0 NBB=     0 NumPrc=  2.
 Integrals replicated using symmetry in FoFDir.
 MinBra= 0 MaxBra= 3 Meth= 1.
 IRaf=       0 NMat= 272 IRICut=     340 DoRegI=T DoRafI=T ISym2E= 2 JSym2E=2.
 MP4(D)= -0.14937450D-01
 MP4(S)= -0.63404400D-02
 MP4(R+Q)=  0.15218017D-01
 T4(AAA)= -0.10196142D-02
 T4(AAB)= -0.14011290D-01
 Time for triples=     1359.58 seconds.
 MP4(T)=   -0.30061808D-01
 E3=       -0.11632633D-01        EUMP3=      -0.29036466640D+04
 E4(DQ)=    0.28056633D-03        UMP4(DQ)=   -0.29036463835D+04
 E4(SDQ)=  -0.60598736D-02        UMP4(SDQ)=  -0.29036527239D+04
 E4(SDTQ)= -0.36121681D-01        UMP4(SDTQ)= -0.29036827857D+04
 VARIATIONAL ENERGIES WITH THE FIRST-ORDER WAVEFUNCTION:
 E(VAR1)=  -0.29035227709D+04     E(CISD,4)=  -0.29035223733D+04
 Largest amplitude= 2.98D-02
 Leave Link  913 at Wed Dec 11 10:11:39 2019, MaxMem=  268435456 cpu:    1458.4
 (Enter /home/matheus/.gaussian/g09/l108.exe)
 Variable Step   Value    
 -------- ---- -----------
     1       3    6.236096
 Leave Link  108 at Wed Dec 11 10:11:39 2019, MaxMem=  268435456 cpu:       0.0
 (Enter /home/matheus/.gaussian/g09/l202.exe)
 ---------------------------------------------------------------------------------------------------
                            Z-MATRIX (ANGSTROMS AND DEGREES)
   CD    Cent   Atom    N1       Length/X        N2       Alpha/Y        N3        Beta/Z          J
 ---------------------------------------------------------------------------------------------------
      1      1  O        0   0.000000          0.000000          0.725000
      2      2  O        0   0.000000          0.000000         -0.725000
      3      3  H        0  -0.159534         -0.904763          1.023510
      4      4  H        0   0.000000          0.918721         -1.023510
      5      5  Kr       0   0.000000          3.300000          0.000000
 ---------------------------------------------------------------------------------------------------
                         Z-Matrix orientation:                         
 ---------------------------------------------------------------------
 Center     Atomic      Atomic             Coordinates (Angstroms)
 Number     Number       Type             X           Y           Z
 ---------------------------------------------------------------------
      1          8           0        0.000000    0.000000    0.725000
      2          8           0        0.000000    0.000000   -0.725000
      3          1           0       -0.159534   -0.904763    1.023510
      4          1           0        0.000000    0.918721   -1.023510
      5         36           0        0.000000    3.300000    0.000000
 ---------------------------------------------------------------------
                    Distance matrix (angstroms):
                    1          2          3          4          5
     1  O    0.000000
     2  O    1.450000   0.000000
     3  H    0.966000   1.975180   0.000000
     4  H    1.975180   0.966000   2.746059   0.000000
     5  Kr   3.378702   3.378702   4.330480   2.591923   0.000000
 Stoichiometry    H2KrO2
 Framework group  C1[X(H2KrO2)]
 Deg. of freedom     9
 Full point group                 C1      NOp   1
 RotChk:  IX=0 Diff= 1.50D-03
 Largest Abelian subgroup         C1      NOp   1
 Largest concise Abelian subgroup C1      NOp   1
                         Standard orientation:                         
 ---------------------------------------------------------------------
 Center     Atomic      Atomic             Coordinates (Angstroms)
 Number     Number       Type             X           Y           Z
 ---------------------------------------------------------------------
      1          8           0       -2.211084   -0.690950   -0.021564
      2          8           0       -2.188862    0.758718    0.000104
      3          1           0       -3.120910   -0.977852    0.130294
      4          1           0       -1.265681    1.043030    0.007812
      5         36           0        1.099616   -0.016870    0.000933
 ---------------------------------------------------------------------
 Rotational constants (GHZ):     26.6884828      1.9058458      1.7791073
 Leave Link  202 at Wed Dec 11 10:11:39 2019, MaxMem=  268435456 cpu:       0.0
 (Enter /home/matheus/.gaussian/g09/l301.exe)
 Standard basis: Aug-CC-pVTZ (5D, 7F)
 Ernie: Thresh=  0.10000D-02 Tol=  0.10000D-05 Strict=F.
 Ernie:  38 primitive shells out of 205 were deleted.
 There are   197 symmetry adapted basis functions of A   symmetry.
 Integral buffers will be    131072 words long.
 Raffenetti 1 integral format.
 Two-electron integral symmetry is turned on.
   197 basis functions,   415 primitive gaussians,   229 cartesian basis functions
    27 alpha electrons       27 beta electrons
       nuclear repulsion energy       138.5639496256 Hartrees.
 IExCor=    0 DFT=F Ex=HF Corr=None ExCW=0 ScaHFX=  1.000000
 ScaDFX=  1.000000  1.000000  1.000000  1.000000 ScalE2=  1.000000  1.000000
 IRadAn=      5 IRanWt=     -1 IRanGd=            0 ICorTp=0
 NAtoms=    5 NActive=    5 NUniq=    5 SFac= 1.00D+00 NAtFMM=   60 NAOKFM=F Big=F
 Leave Link  301 at Wed Dec 11 10:11:39 2019, MaxMem=  268435456 cpu:       0.0
 (Enter /home/matheus/.gaussian/g09/l302.exe)
 NPDir=0 NMtPBC=     1 NCelOv=     1 NCel=       1 NClECP=     1 NCelD=      1
         NCelK=      1 NCelE2=     1 NClLst=     1 CellRange=     0.0.
 One-electron integrals computed using PRISM.
 NBasis=   197 RedAO= T  NBF=   197
 NBsUse=   197 1.00D-06 NBFU=   197
 Leave Link  302 at Wed Dec 11 10:11:39 2019, MaxMem=  268435456 cpu:       0.2
 (Enter /home/matheus/.gaussian/g09/l303.exe)
 DipDrv:  MaxL=1.
 Leave Link  303 at Wed Dec 11 10:11:39 2019, MaxMem=  268435456 cpu:       0.1
 (Enter /home/matheus/.gaussian/g09/l401.exe)
 Initial guess read from the read-write file.
 B after Tr=     0.000000    0.000000    0.000000
         Rot=    1.000000    0.000000    0.000000    0.000000 Ang=   0.00 deg.
 Guess basis will be translated and rotated to current coordinates.
 Initial guess orbital symmetries:
       Occupied  (A) (A) (A) (A) (A) (A) (A) (A) (A) (A) (A) (A)
                 (A) (A) (A) (A) (A) (A) (A) (A) (A) (A) (A) (A)
                 (A) (A) (A)
       Virtual   (A) (A) (A) (A) (A) (A) (A) (A) (A) (A) (A) (A)
                 (A) (A) (A) (A) (A) (A) (A) (A) (A) (A) (A) (A)
                 (A) (A) (A) (A) (A) (A) (A) (A) (A) (A) (A) (A)
                 (A) (A) (A) (A) (A) (A) (A) (A) (A) (A) (A) (A)
                 (A) (A) (A) (A) (A) (A) (A) (A) (A) (A) (A) (A)
                 (A) (A) (A) (A) (A) (A) (A) (A) (A) (A) (A) (A)
                 (A) (A) (A) (A) (A) (A) (A) (A) (A) (A) (A) (A)
                 (A) (A) (A) (A) (A) (A) (A) (A) (A) (A) (A) (A)
                 (A) (A) (A) (A) (A) (A) (A) (A) (A) (A) (A) (A)
                 (A) (A) (A) (A) (A) (A) (A) (A) (A) (A) (A) (A)
                 (A) (A) (A) (A) (A) (A) (A) (A) (A) (A) (A) (A)
                 (A) (A) (A) (A) (A) (A) (A) (A) (A) (A) (A) (A)
                 (A) (A) (A) (A) (A) (A) (A) (A) (A) (A) (A) (A)
                 (A) (A) (A) (A) (A) (A) (A) (A) (A) (A) (A) (A)
                 (A) (A)
 The electronic state of the initial guess is 1-A.
 Generating alternative initial guess.
 Harris functional with IExCor=  205 diagonalized for initial guess.
 ExpMin= 2.53D-02 ExpMax= 1.17D+07 ExpMxC= 1.33D+04 IAcc=3 IRadAn=         5 AccDes= 0.00D+00
 HarFok:  IExCor=  205 AccDes= 0.00D+00 IRadAn=         5 IDoV= 1
 ScaDFX=  1.000000  1.000000  1.000000  1.000000
 FoFCou: FMM=F IPFlag=           0 FMFlag=      100000 FMFlg1=           0
         NFxFlg=           0 DoJE=T BraDBF=F KetDBF=T FulRan=T
         Omega=  0.000000  0.000000  1.000000  0.000000  0.000000 ICntrl=     500 IOpCl=  0
         NMat0=    1 NMatS0=    1 NMatT0=    0 NMatD0=    1 NMtDS0=    0 NMtDT0=    0
         I1Cent=           4 NGrid=           0.
 Petite list used in FoFCou.
 Harris En= -2901.93161717397    
 Leave Link  401 at Wed Dec 11 10:11:40 2019, MaxMem=  268435456 cpu:       1.3
 (Enter /home/matheus/.gaussian/g09/l502.exe)
 Closed shell SCF:
 Requested convergence on RMS density matrix=1.00D-08 within 128 cycles.
 Requested convergence on MAX density matrix=1.00D-06.
 Requested convergence on             energy=1.00D-06.
 No special actions if energy rises.
 Using DIIS extrapolation, IDIIS=  1040.
 Integral symmetry usage will be decided dynamically.
 IEnd=      178489 IEndB=      178489 NGot=   268435456 MDV=   268326278
 LenX=   268326278 LenY=   268273396
 Fock matrices will be formed incrementally for  20 cycles.

 Cycle   1  Pass 0  IDiag  1:
 FoFCou: FMM=F IPFlag=           0 FMFlag=      100000 FMFlg1=           0
         NFxFlg=           0 DoJE=F BraDBF=F KetDBF=F FulRan=T
         Omega=  0.000000  0.000000  1.000000  0.000000  0.000000 ICntrl=       0 IOpCl=  0
         NMat0=    1 NMatS0=    1 NMatT0=    0 NMatD0=    1 NMtDS0=    0 NMtDT0=    0
         I1Cent=           0 NGrid=           0.
 Symmetry not used in FoFCou.
 E= -2902.88225831759    
 DIIS: error= 4.45D-04 at cycle   1 NSaved=   1.
 NSaved= 1 IEnMin= 1 EnMin= -2902.88225831759     IErMin= 1 ErrMin= 4.45D-04
 ErrMax= 4.45D-04 EMaxC= 1.00D-01 BMatC= 3.92D-05 BMatP= 3.92D-05
 IDIUse=3 WtCom= 9.96D-01 WtEn= 4.45D-03
 Coeff-Com:  0.100D+01
 Coeff-En:   0.100D+01
 Coeff:      0.100D+01
 Gap=     0.494 Goal=   None    Shift=    0.000
 RMSDP=6.33D-05 MaxDP=1.65D-03              OVMax= 2.43D-03

 Cycle   2  Pass 0  IDiag  1:
 RMSU=  4.47D-05    CP:  1.00D+00
 E= -2902.88230468551     Delta-E=       -0.000046367918 Rises=F Damp=F
 DIIS: error= 8.59D-05 at cycle   2 NSaved=   2.
 NSaved= 2 IEnMin= 2 EnMin= -2902.88230468551     IErMin= 2 ErrMin= 8.59D-05
 ErrMax= 8.59D-05 EMaxC= 1.00D-01 BMatC= 1.16D-06 BMatP= 3.92D-05
 IDIUse=1 WtCom= 1.00D+00 WtEn= 0.00D+00
 Coeff-Com: -0.859D-01 0.109D+01
 Coeff:     -0.859D-01 0.109D+01
 Gap=     0.493 Goal=   None    Shift=    0.000
 RMSDP=1.08D-05 MaxDP=3.16D-04 DE=-4.64D-05 OVMax= 5.07D-04

 Cycle   3  Pass 0  IDiag  1:
 RMSU=  4.69D-06    CP:  1.00D+00  1.14D+00
 E= -2902.88230656635     Delta-E=       -0.000001880841 Rises=F Damp=F
 DIIS: error= 2.76D-05 at cycle   3 NSaved=   3.
 NSaved= 3 IEnMin= 3 EnMin= -2902.88230656635     IErMin= 3 ErrMin= 2.76D-05
 ErrMax= 2.76D-05 EMaxC= 1.00D-01 BMatC= 1.51D-07 BMatP= 1.16D-06
 IDIUse=1 WtCom= 1.00D+00 WtEn= 0.00D+00
 Coeff-Com: -0.366D-01 0.221D+00 0.816D+00
 Coeff:     -0.366D-01 0.221D+00 0.816D+00
 Gap=     0.493 Goal=   None    Shift=    0.000
 RMSDP=2.01D-06 MaxDP=6.56D-05 DE=-1.88D-06 OVMax= 1.25D-04

 Initial convergence to 1.0D-05 achieved.  Increase integral accuracy.
 Cycle   4  Pass 1  IDiag  1:
 E= -2902.88230673189     Delta-E=       -0.000000165533 Rises=F Damp=F
 DIIS: error= 1.07D-05 at cycle   1 NSaved=   1.
 NSaved= 1 IEnMin= 1 EnMin= -2902.88230673189     IErMin= 1 ErrMin= 1.07D-05
 ErrMax= 1.07D-05 EMaxC= 1.00D-01 BMatC= 2.28D-08 BMatP= 2.28D-08
 IDIUse=1 WtCom= 1.00D+00 WtEn= 0.00D+00
 Coeff-Com:  0.100D+01
 Coeff:      0.100D+01
 Gap=     0.493 Goal=   None    Shift=    0.000
 RMSDP=2.01D-06 MaxDP=6.56D-05 DE=-1.66D-07 OVMax= 7.61D-05

 Cycle   5  Pass 1  IDiag  1:
 RMSU=  7.10D-07    CP:  1.00D+00
 E= -2902.88230676113     Delta-E=       -0.000000029245 Rises=F Damp=F
 DIIS: error= 6.37D-06 at cycle   2 NSaved=   2.
 NSaved= 2 IEnMin= 2 EnMin= -2902.88230676113     IErMin= 2 ErrMin= 6.37D-06
 ErrMax= 6.37D-06 EMaxC= 1.00D-01 BMatC= 8.95D-09 BMatP= 2.28D-08
 IDIUse=1 WtCom= 1.00D+00 WtEn= 0.00D+00
 Coeff-Com:  0.332D+00 0.668D+00
 Coeff:      0.332D+00 0.668D+00
 Gap=     0.493 Goal=   None    Shift=    0.000
 RMSDP=2.99D-07 MaxDP=1.35D-05 DE=-2.92D-08 OVMax= 2.73D-05

 Cycle   6  Pass 1  IDiag  1:
 RMSU=  2.01D-07    CP:  1.00D+00  1.09D+00
 E= -2902.88230676971     Delta-E=       -0.000000008580 Rises=F Damp=F
 DIIS: error= 2.68D-06 at cycle   3 NSaved=   3.
 NSaved= 3 IEnMin= 3 EnMin= -2902.88230676971     IErMin= 3 ErrMin= 2.68D-06
 ErrMax= 2.68D-06 EMaxC= 1.00D-01 BMatC= 1.35D-09 BMatP= 8.95D-09
 IDIUse=1 WtCom= 1.00D+00 WtEn= 0.00D+00
 Coeff-Com: -0.352D+00-0.131D+00 0.148D+01
 Coeff:     -0.352D+00-0.131D+00 0.148D+01
 Gap=     0.493 Goal=   None    Shift=    0.000
 RMSDP=3.88D-07 MaxDP=1.15D-05 DE=-8.58D-09 OVMax= 3.32D-05

 Cycle   7  Pass 1  IDiag  1:
 RMSU=  8.25D-08    CP:  1.00D+00  1.44D+00  1.43D+00
 E= -2902.88230677311     Delta-E=       -0.000000003402 Rises=F Damp=F
 DIIS: error= 4.13D-07 at cycle   4 NSaved=   4.
 NSaved= 4 IEnMin= 4 EnMin= -2902.88230677311     IErMin= 4 ErrMin= 4.13D-07
 ErrMax= 4.13D-07 EMaxC= 1.00D-01 BMatC= 4.77D-11 BMatP= 1.35D-09
 IDIUse=1 WtCom= 1.00D+00 WtEn= 0.00D+00
 Coeff-Com: -0.830D-01-0.402D-01 0.282D+00 0.841D+00
 Coeff:     -0.830D-01-0.402D-01 0.282D+00 0.841D+00
 Gap=     0.493 Goal=   None    Shift=    0.000
 RMSDP=4.01D-08 MaxDP=1.47D-06 DE=-3.40D-09 OVMax= 3.23D-06

 Cycle   8  Pass 1  IDiag  1:
 RMSU=  1.84D-08    CP:  1.00D+00  1.45D+00  1.46D+00  1.24D+00
 E= -2902.88230677318     Delta-E=       -0.000000000068 Rises=F Damp=F
 DIIS: error= 2.02D-07 at cycle   5 NSaved=   5.
 NSaved= 5 IEnMin= 5 EnMin= -2902.88230677318     IErMin= 5 ErrMin= 2.02D-07
 ErrMax= 2.02D-07 EMaxC= 1.00D-01 BMatC= 8.41D-12 BMatP= 4.77D-11
 IDIUse=1 WtCom= 1.00D+00 WtEn= 0.00D+00
[...]
      2          8           0        0.000000    0.000000   -0.725000
      3          1           0       -0.159534   -0.904763    1.023510
      4          1           0        0.000000    0.918721   -1.023510
      5         36           0        0.000000    5.000000    0.000000
 ---------------------------------------------------------------------
                    Distance matrix (angstroms):
                    1          2          3          4          5
     1  O    0.000000
     2  O    1.450000   0.000000
     3  H    0.966000   1.975180   0.000000
     4  H    1.975180   0.966000   2.746059   0.000000
     5  Kr   5.052289   5.052289   5.994936   4.207661   0.000000
 Stoichiometry    H2KrO2
 Framework group  C1[X(H2KrO2)]
 Deg. of freedom     9
 Full point group                 C1      NOp   1
 RotChk:  IX=0 Diff= 3.94D-04
 Largest Abelian subgroup         C1      NOp   1
 Largest concise Abelian subgroup C1      NOp   1
                         Standard orientation:                         
 ---------------------------------------------------------------------
 Center     Atomic      Atomic             Coordinates (Angstroms)
 Number     Number       Type             X           Y           Z
 ---------------------------------------------------------------------
      1          8           0       -3.338158   -0.703367   -0.021128
      2          8           0       -3.328859    0.746436    0.000898
      3          1           0       -4.245173   -0.998426    0.131910
      4          1           0       -2.408245    1.038983    0.007406
      5         36           0        1.666376   -0.010697    0.000625
 ---------------------------------------------------------------------
 Rotational constants (GHZ):     26.6764592      0.8331669      0.8079932
 Leave Link  202 at Wed Dec 11 13:44:41 2019, MaxMem=  268435456 cpu:       0.0
 (Enter /home/matheus/.gaussian/g09/l301.exe)
 Standard basis: Aug-CC-pVTZ (5D, 7F)
 Ernie: Thresh=  0.10000D-02 Tol=  0.10000D-05 Strict=F.
 Ernie:  38 primitive shells out of 205 were deleted.
 There are   197 symmetry adapted basis functions of A   symmetry.
 Integral buffers will be    131072 words long.
 Raffenetti 1 integral format.
 Two-electron integral symmetry is turned on.
   197 basis functions,   415 primitive gaussians,   229 cartesian basis functions
    27 alpha electrons       27 beta electrons
       nuclear repulsion energy       104.6365281813 Hartrees.
 IExCor=    0 DFT=F Ex=HF Corr=None ExCW=0 ScaHFX=  1.000000
 ScaDFX=  1.000000  1.000000  1.000000  1.000000 ScalE2=  1.000000  1.000000
 IRadAn=      5 IRanWt=     -1 IRanGd=            0 ICorTp=0
 NAtoms=    5 NActive=    5 NUniq=    5 SFac= 1.00D+00 NAtFMM=   60 NAOKFM=F Big=F
 Leave Link  301 at Wed Dec 11 13:44:41 2019, MaxMem=  268435456 cpu:       0.0
 (Enter /home/matheus/.gaussian/g09/l302.exe)
 NPDir=0 NMtPBC=     1 NCelOv=     1 NCel=       1 NClECP=     1 NCelD=      1
         NCelK=      1 NCelE2=     1 NClLst=     1 CellRange=     0.0.
 One-electron integrals computed using PRISM.
 NBasis=   197 RedAO= T  NBF=   197
 NBsUse=   197 1.00D-06 NBFU=   197
 Leave Link  302 at Wed Dec 11 13:44:41 2019, MaxMem=  268435456 cpu:       0.2
 (Enter /home/matheus/.gaussian/g09/l303.exe)
 DipDrv:  MaxL=1.
 Leave Link  303 at Wed Dec 11 13:44:41 2019, MaxMem=  268435456 cpu:       0.0
 (Enter /home/matheus/.gaussian/g09/l401.exe)
 Initial guess read from the read-write file.
 B after Tr=     0.000000    0.000000    0.000000
         Rot=    1.000000    0.000000    0.000000    0.000000 Ang=   0.00 deg.
 Guess basis will be translated and rotated to current coordinates.
 Initial guess orbital symmetries:
       Occupied  (A) (A) (A) (A) (A) (A) (A) (A) (A) (A) (A) (A)
                 (A) (A) (A) (A) (A) (A) (A) (A) (A) (A) (A) (A)
                 (A) (A) (A)
       Virtual   (A) (A) (A) (A) (A) (A) (A) (A) (A) (A) (A) (A)
                 (A) (A) (A) (A) (A) (A) (A) (A) (A) (A) (A) (A)
                 (A) (A) (A) (A) (A) (A) (A) (A) (A) (A) (A) (A)
                 (A) (A) (A) (A) (A) (A) (A) (A) (A) (A) (A) (A)
                 (A) (A) (A) (A) (A) (A) (A) (A) (A) (A) (A) (A)
                 (A) (A) (A) (A) (A) (A) (A) (A) (A) (A) (A) (A)
                 (A) (A) (A) (A) (A) (A) (A) (A) (A) (A) (A) (A)
                 (A) (A) (A) (A) (A) (A) (A) (A) (A) (A) (A) (A)
                 (A) (A) (A) (A) (A) (A) (A) (A) (A) (A) (A) (A)
                 (A) (A) (A) (A) (A) (A) (A) (A) (A) (A) (A) (A)
                 (A) (A) (A) (A) (A) (A) (A) (A) (A) (A) (A) (A)
                 (A) (A) (A) (A) (A) (A) (A) (A) (A) (A) (A) (A)
                 (A) (A) (A) (A) (A) (A) (A) (A) (A) (A) (A) (A)
                 (A) (A) (A) (A) (A) (A) (A) (A) (A) (A) (A) (A)
                 (A) (A)
 The electronic state of the initial guess is 1-A.
 Generating alternative initial guess.
 Harris functional with IExCor=  205 diagonalized for initial guess.
 ExpMin= 2.53D-02 ExpMax= 1.17D+07 ExpMxC= 1.33D+04 IAcc=3 IRadAn=         5 AccDes= 0.00D+00
 HarFok:  IExCor=  205 AccDes= 0.00D+00 IRadAn=         5 IDoV= 1
 ScaDFX=  1.000000  1.000000  1.000000  1.000000
 FoFCou: FMM=F IPFlag=           0 FMFlag=      100000 FMFlg1=           0
         NFxFlg=           0 DoJE=T BraDBF=F KetDBF=T FulRan=T
         Omega=  0.000000  0.000000  1.000000  0.000000  0.000000 ICntrl=     500 IOpCl=  0
         NMat0=    1 NMatS0=    1 NMatT0=    0 NMatD0=    1 NMtDS0=    0 NMtDT0=    0
         I1Cent=           4 NGrid=           0.
 Petite list used in FoFCou.
 Harris En= -2901.93159601801    
 Leave Link  401 at Wed Dec 11 13:44:41 2019, MaxMem=  268435456 cpu:       1.0
 (Enter /home/matheus/.gaussian/g09/l502.exe)
 Closed shell SCF:
 Requested convergence on RMS density matrix=1.00D-08 within 128 cycles.
 Requested convergence on MAX density matrix=1.00D-06.
 Requested convergence on             energy=1.00D-06.
 No special actions if energy rises.
 Using DIIS extrapolation, IDIIS=  1040.
 Integral symmetry usage will be decided dynamically.
 IEnd=      178489 IEndB=      178489 NGot=   268435456 MDV=   268326278
 LenX=   268326278 LenY=   268273396
 Fock matrices will be formed incrementally for  20 cycles.

 Cycle   1  Pass 0  IDiag  1:
 FoFCou: FMM=F IPFlag=           0 FMFlag=      100000 FMFlg1=           0
         NFxFlg=           0 DoJE=F BraDBF=F KetDBF=F FulRan=T
         Omega=  0.000000  0.000000  1.000000  0.000000  0.000000 ICntrl=       0 IOpCl=  0
         NMat0=    1 NMatS0=    1 NMatT0=    0 NMatD0=    1 NMtDS0=    0 NMtDT0=    0
         I1Cent=           0 NGrid=           0.
 Symmetry not used in FoFCou.
 E= -2902.88493967566    
 DIIS: error= 3.86D-05 at cycle   1 NSaved=   1.
 NSaved= 1 IEnMin= 1 EnMin= -2902.88493967566     IErMin= 1 ErrMin= 3.86D-05
 ErrMax= 3.86D-05 EMaxC= 1.00D-01 BMatC= 5.51D-07 BMatP= 5.51D-07
 IDIUse=1 WtCom= 1.00D+00 WtEn= 0.00D+00
 Coeff-Com:  0.100D+01
 Coeff:      0.100D+01
 Gap=     0.495 Goal=   None    Shift=    0.000
 RMSDP=2.28D-05 MaxDP=9.41D-04              OVMax= 2.83D-04

 Cycle   2  Pass 0  IDiag  1:
 RMSU=  1.61D-05    CP:  1.00D+00
 E= -2902.88494025337     Delta-E=       -0.000000577710 Rises=F Damp=F
 DIIS: error= 7.61D-06 at cycle   2 NSaved=   2.
 NSaved= 2 IEnMin= 2 EnMin= -2902.88494025337     IErMin= 2 ErrMin= 7.61D-06
 ErrMax= 7.61D-06 EMaxC= 1.00D-01 BMatC= 1.47D-08 BMatP= 5.51D-07
 IDIUse=1 WtCom= 1.00D+00 WtEn= 0.00D+00
 Coeff-Com: -0.407D-01 0.104D+01
 Coeff:     -0.407D-01 0.104D+01
 Gap=     0.494 Goal=   None    Shift=    0.000
 RMSDP=2.37D-06 MaxDP=9.68D-05 DE=-5.78D-07 OVMax= 4.85D-05

 Initial convergence to 1.0D-05 achieved.  Increase integral accuracy.
 Cycle   3  Pass 1  IDiag  1:
 E= -2902.88494027537     Delta-E=       -0.000000021998 Rises=F Damp=F
 DIIS: error= 3.53D-06 at cycle   1 NSaved=   1.
 NSaved= 1 IEnMin= 1 EnMin= -2902.88494027537     IErMin= 1 ErrMin= 3.53D-06
 ErrMax= 3.53D-06 EMaxC= 1.00D-01 BMatC= 1.54D-09 BMatP= 1.54D-09
 IDIUse=1 WtCom= 1.00D+00 WtEn= 0.00D+00
 Coeff-Com:  0.100D+01
 Coeff:      0.100D+01
 Gap=     0.494 Goal=   None    Shift=    0.000
 RMSDP=2.37D-06 MaxDP=9.68D-05 DE=-2.20D-08 OVMax= 1.85D-05

 Cycle   4  Pass 1  IDiag  1:
 RMSU=  1.89D-07    CP:  1.00D+00
 E= -2902.88494027763     Delta-E=       -0.000000002264 Rises=F Damp=F
 DIIS: error= 1.19D-06 at cycle   2 NSaved=   2.
 NSaved= 2 IEnMin= 2 EnMin= -2902.88494027763     IErMin= 2 ErrMin= 1.19D-06
 ErrMax= 1.19D-06 EMaxC= 1.00D-01 BMatC= 3.89D-10 BMatP= 1.54D-09
 IDIUse=1 WtCom= 1.00D+00 WtEn= 0.00D+00
 Coeff-Com:  0.239D+00 0.761D+00
 Coeff:      0.239D+00 0.761D+00
 Gap=     0.494 Goal=   None    Shift=    0.000
 RMSDP=7.48D-08 MaxDP=2.83D-06 DE=-2.26D-09 OVMax= 6.11D-06

 Cycle   5  Pass 1  IDiag  1:
 RMSU=  4.78D-08    CP:  1.00D+00  1.12D+00
 E= -2902.88494027804     Delta-E=       -0.000000000409 Rises=F Damp=F
 DIIS: error= 5.22D-07 at cycle   3 NSaved=   3.
 NSaved= 3 IEnMin= 3 EnMin= -2902.88494027804     IErMin= 3 ErrMin= 5.22D-07
 ErrMax= 5.22D-07 EMaxC= 1.00D-01 BMatC= 6.97D-11 BMatP= 3.89D-10
 IDIUse=1 WtCom= 1.00D+00 WtEn= 0.00D+00
 Coeff-Com: -0.148D+00 0.638D-01 0.108D+01
 Coeff:     -0.148D+00 0.638D-01 0.108D+01
 Gap=     0.494 Goal=   None    Shift=    0.000
 RMSDP=5.40D-08 MaxDP=1.86D-06 DE=-4.09D-10 OVMax= 5.98D-06

 Cycle   6  Pass 1  IDiag  1:
 RMSU=  2.19D-08    CP:  1.00D+00  1.28D+00  1.21D+00
 E= -2902.88494027819     Delta-E=       -0.000000000151 Rises=F Damp=F
 DIIS: error= 1.85D-07 at cycle   4 NSaved=   4.
 NSaved= 4 IEnMin= 4 EnMin= -2902.88494027819     IErMin= 4 ErrMin= 1.85D-07
 ErrMax= 1.85D-07 EMaxC= 1.00D-01 BMatC= 9.26D-12 BMatP= 6.97D-11
 IDIUse=1 WtCom= 1.00D+00 WtEn= 0.00D+00
 Coeff-Com: -0.738D-01-0.109D+00 0.260D+00 0.923D+00
 Coeff:     -0.738D-01-0.109D+00 0.260D+00 0.923D+00
 Gap=     0.494 Goal=   None    Shift=    0.000
 RMSDP=1.80D-08 MaxDP=4.93D-07 DE=-1.51D-10 OVMax= 2.39D-06

 Cycle   7  Pass 1  IDiag  1:
 RMSU=  6.47D-09    CP:  1.00D+00  1.31D+00  1.35D+00  1.20D+00
 E= -2902.88494027820     Delta-E=       -0.000000000009 Rises=F Damp=F
 DIIS: error= 4.87D-08 at cycle   5 NSaved=   5.
 NSaved= 5 IEnMin= 5 EnMin= -2902.88494027820     IErMin= 5 ErrMin= 4.87D-08
 ErrMax= 4.87D-08 EMaxC= 1.00D-01 BMatC= 3.61D-13 BMatP= 9.26D-12
 IDIUse=1 WtCom= 1.00D+00 WtEn= 0.00D+00
 Coeff-Com:  0.227D-01 0.215D-01-0.108D+00-0.213D+00 0.128D+01
 Coeff:      0.227D-01 0.215D-01-0.108D+00-0.213D+00 0.128D+01
 Gap=     0.494 Goal=   None    Shift=    0.000
 RMSDP=5.89D-09 MaxDP=1.49D-07 DE=-8.64D-12 OVMax= 5.19D-07

 SCF Done:  E(RHF) =  -2902.88494028     A.U. after    7 cycles
             Convg  =    0.5893D-08             -V/T =  2.0001
 KE= 2.902563746992D+03 PE=-7.149988040900D+03 EE= 1.239902825448D+03
 Leave Link  502 at Wed Dec 11 13:44:59 2019, MaxMem=  268435456 cpu:      34.2
 (Enter /home/matheus/.gaussian/g09/l801.exe)
 Windowed orbitals will be sorted by symmetry type.
 ExpMin= 2.53D-02 ExpMax= 1.17D+07 ExpMxC= 1.33D+04 IAcc=3 IRadAn=         5 AccDes= 0.00D+00
 HarFok:  IExCor=  205 AccDes= 0.00D+00 IRadAn=         5 IDoV=-2
 ScaDFX=  1.000000  1.000000  1.000000  1.000000
 DSYEVD returned Info=          93 IAlg= 4 N=    46 NDim=    46 NE2=     4547561 trying DSYEV.
 Largest valence mixing into a core orbital is  1.47D-04
 Largest core mixing into a valence orbital is  2.60D-05
 Range of M.O.s used for correlation:    12   197
 NBasis=   197 NAE=    27 NBE=    27 NFC=    11 NFV=     0
 NROrb=    186 NOA=    16 NOB=    16 NVA=   170 NVB=   170

 **** Warning!!: The largest alpha MO coefficient is  0.14011520D+02

 Leave Link  801 at Wed Dec 11 13:44:59 2019, MaxMem=  268435456 cpu:       0.2
 (Enter /home/matheus/.gaussian/g09/l804.exe)
 Closed-shell transformation, MDV=   268435456 ITran=4 ISComp=1.
 Semi-Direct transformation.
 ModeAB=           4 MOrb=            16 LenV=     267351346
 LASXX=     48528660 LTotXX=    48528660 LenRXX=    97827436
 LTotAB=    49298776 MaxLAS=    72153120 LenRXY=           0
 NonZer=   146356096 LenScr=   220395520 LnRSAI=    72153120
 LnScr1=   108983296 LExtra=           0 Total=    499359372
 MaxDsk=          -1 SrtSym=           T ITran=            4
 DoSDTr:  NPSUse=  2
 JobTyp=0 Pass  1:  I=   1 to  16.
 (rs|ai) integrals will be sorted in core.
 Complete sort for first half transformation.
 First half transformation complete.
 Begin second half transformation for I=  10.
 Complete sort for second half transformation.
 Second half transformation complete.
 SymMOI:  orbitals are not symmetric.
 Spin components of T(2) and E(2):
     alpha-alpha T2 =       0.2541289546D-01 E2=     -0.9827428769D-01
     alpha-beta  T2 =       0.1409120939D+00 E2=     -0.5522950651D+00
     beta-beta   T2 =       0.2541289546D-01 E2=     -0.9827428769D-01
 ANorm=    0.1091667479D+01
 E2 =    -0.7488436405D+00 EUMP2 =    -0.29036337839187D+04
 Leave Link  804 at Wed Dec 11 13:45:17 2019, MaxMem=  268435456 cpu:      37.6
 (Enter /home/matheus/.gaussian/g09/l913.exe)
 CIDS:  MDV=   268435456.
 Frozen-core window:  NFC=  11 NFV=   0.
 IFCWin=0 IBDFC=1 NFBD=     0     0 NFCmp=     0     0 NFFFC=     0     0
 Using DD3R+UMP44R for 1st iteration, S=T.
 Using DD4RQ for 2nd and later iterations.
 Would need an additional       431206676 words for in-memory AO integral storage.
 MP4(SDTQ)
 =========
 DD1Dir will call FoFDir   1 times, MxPair=       272
 NAB=   136 NAA=     0 NBB=     0 NumPrc=  2.
 Integrals replicated using symmetry in FoFDir.
 MinBra= 0 MaxBra= 3 Meth= 1.
 IRaf=       0 NMat= 272 IRICut=     340 DoRegI=T DoRafI=T ISym2E= 2 JSym2E=2.
 MP4(D)= -0.14920309D-01
 MP4(S)= -0.62052028D-02
 MP4(R+Q)=  0.14914076D-01
 T4(AAA)= -0.97707510D-03
 T4(AAB)= -0.13722982D-01
 Time for triples=     1247.04 seconds.
 MP4(T)=   -0.29400115D-01
 E3=       -0.12200854D-01        EUMP3=      -0.29036459848D+04
 E4(DQ)=   -0.62331274D-05        UMP4(DQ)=   -0.29036459910D+04
 E4(SDQ)=  -0.62114359D-02        UMP4(SDQ)=  -0.29036521962D+04
 E4(SDTQ)= -0.35611551D-01        UMP4(SDTQ)= -0.29036815963D+04
 VARIATIONAL ENERGIES WITH THE FIRST-ORDER WAVEFUNCTION:
 E(VAR1)=  -0.29035235409D+04     E(CISD,4)=  -0.29035235286D+04
 Largest amplitude= 2.59D-02
 Leave Link  913 at Wed Dec 11 13:56:20 2019, MaxMem=  268435456 cpu:    1319.7
 (Enter /home/matheus/.gaussian/g09/l108.exe)
 Scan completed.

 Summary of the potential surface scan:
   N      R1          SCF          MP2          MP3         MP4DQ       MP4SDQ       MP4SDTQ  
 ----  ---------  -----------  -----------  -----------  -----------  -----------  -----------
    1     3.0000  -2902.87703  -2903.63297  -2903.64431  -2903.64391  -2903.65030  -2903.68063
    2     3.1000  -2902.87942  -2903.63426  -2903.64577  -2903.64543  -2903.65180  -2903.68198
    3     3.2000  -2902.88111  -2903.63503  -2903.64666  -2903.64638  -2903.65272  -2903.68279
    4     3.3000  -2902.88231  -2903.63543  -2903.64717  -2903.64694  -2903.65326  -2903.68321
    5     3.4000  -2902.88315  -2903.63559  -2903.64741  -2903.64722  -2903.65352  -2903.68339
    6     3.5000  -2902.88373  -2903.63559  -2903.64748  -2903.64732  -2903.65361  -2903.68340
    7     3.6000  -2902.88413  -2903.63550  -2903.64744  -2903.64731  -2903.65358  -2903.68331
    8     3.7000  -2902.88441  -2903.63535  -2903.64733  -2903.64723  -2903.65349  -2903.68316
    9     3.8000  -2902.88460  -2903.63517  -2903.64719  -2903.64711  -2903.65337  -2903.68299
   10     3.9000  -2902.88472  -2903.63499  -2903.64705  -2903.64698  -2903.65323  -2903.68281
   11     4.0000  -2902.88481  -2903.63482  -2903.64690  -2903.64685  -2903.65308  -2903.68264
   12     4.1000  -2902.88486  -2903.63466  -2903.64676  -2903.64672  -2903.65295  -2903.68247
   13     4.2000  -2902.88490  -2903.63451  -2903.64663  -2903.64660  -2903.65282  -2903.68232
   14     4.3000  -2902.88492  -2903.63437  -2903.64651  -2903.64649  -2903.65271  -2903.68219
   15     4.4000  -2902.88493  -2903.63426  -2903.64640  -2903.64639  -2903.65261  -2903.68207
   16     4.5000  -2902.88494  -2903.63415  -2903.64631  -2903.64630  -2903.65252  -2903.68196
   17     4.6000  -2902.88494  -2903.63406  -2903.64623  -2903.64622  -2903.65244  -2903.68187
   18     4.7000  -2902.88494  -2903.63398  -2903.64616  -2903.64616  -2903.65237  -2903.68179
   19     4.8000  -2902.88494  -2903.63390  -2903.64609  -2903.64609  -2903.65230  -2903.68172
   20     4.9000  -2902.88494  -2903.63384  -2903.64604  -2903.64604  -2903.65225  -2903.68165
   21     5.0000  -2902.88494  -2903.63378  -2903.64598  -2903.64599  -2903.65220  -2903.68160
 ----  ---------  -----------  -----------  -----------  -----------  -----------  -----------
  
 Leave Link  108 at Wed Dec 11 13:56:20 2019, MaxMem=  268435456 cpu:       0.0
 (Enter /home/matheus/.gaussian/g09/l9999.exe)
 1\1\GINC-REDGIANT\Scan\RMP4SDTQ-FC\Aug-CC-pVTZ\H2Kr1O2\ROOT\11-Dec-201
 9\1\\#p mp4/aug-cc-PVTz int=ultrafine Scan\\PTCC\\0,1\O,0,0.,0.,0.725\
 O,0,0.,0.,-0.725\H,0,-0.1595341571,-0.9047631646,1.0235104166\H,0,0.,0
 .9187205947,-1.0235104166\Kr,0,0.,R1,0.\\R1=3.,s,20,0.1\\Version=EM64L
 -G09RevC.01\State=1-A\HF=-2902.8770264,-2902.8794158,-2902.8811108,-29
 02.8823068,-2902.8831456,-2902.8837301,-2902.8841343,-2902.8844113,-29
 02.884599,-2902.8847248,-2902.8848078,-2902.8848619,-2902.8848965,-290
 2.8849181,-2902.8849312,-2902.8849387,-2902.8849424,-2902.8849437,-290
 2.8849433,-2902.8849421,-2902.8849403\MP2=-2903.6329662,-2903.6342642,
 -2903.6350314,-2903.6354342,-2903.6355926,-2903.6355931,-2903.6354973,
 -2903.6353478,-2903.6351736,-2903.6349934,-2903.6348186,-2903.6346555,
 -2903.6345069,-2903.6343738,-2903.6342554,-2903.6341507,-2903.6340581,
 -2903.6339763,-2903.6339041,-2903.6338403,-2903.6337839\MP3=-2903.6443
 089,-2903.6457686,-2903.646664,-2903.6471691,-2903.6474096,-2903.64747
 67,-2903.6474353,-2903.6473307,-2903.647194,-2903.6470451,-2903.646896
 7,-2903.6467558,-2903.6466263,-2903.6465093,-2903.6464047,-2903.646311
 8,-2903.6462295,-2903.6461567,-2903.6460922,-2903.6460352,-2903.645984
 8\MP4D=-2903.6592518,-2903.6607082,-2903.6616015,-2903.6621048,-2903.6
 623438,-2903.6624093,-2903.6623665,-2903.6622606,-2903.6621226,-2903.6
 619727,-2903.6618233,-2903.6616816,-2903.6615512,-2903.6614335,-2903.6
 613283,-2903.6612347,-2903.6611518,-2903.6610784,-2903.6610134,-2903.6
 609559,-2903.6609051\MP4DQ=-2903.6439088,-2903.6454324,-2903.6463835,-
 2903.6469363,-2903.6472177,-2903.6473193,-2903.6473071,-2903.6472271,-
 2903.6471109,-2903.6469792,-2903.6468451,-2903.6467161,-2903.6465964,-
 2903.6464874,-2903.6463896,-2903.6463022,-2903.6462244,-2903.6461552,-
 2903.6460938,-2903.6460393,-2903.645991\MP4SDQ=-2903.6502987,-2903.651
 7957,-2903.6527239,-2903.653257,-2903.6535213,-2903.6536082,-2903.6535
 831,-2903.653492,-2903.6533661,-2903.6532261,-2903.6530847,-2903.65294
 96,-2903.6528244,-2903.6527109,-2903.6526091,-2903.6525183,-2903.65243
 76,-2903.6523659,-2903.6523024,-2903.6522461,-2903.6521962\MP4SDTQ=-29
 03.6806259,-2903.6819796,-2903.6827857,-2903.6832146,-2903.6833898,-29
 03.6834006,-2903.6833105,-2903.683164,-2903.6829912,-2903.6828112,-290
 3.6826361,-2903.6824724,-2903.6823231,-2903.6821892,-2903.6820701,-290
 3.6819647,-2903.6818716,-2903.6817894,-2903.6817168,-2903.6816528,-290
 3.6815963\RMSD=3.196e-09,8.724e-09,8.189e-09,7.759e-09,7.668e-09,6.674
 e-09,5.814e-09,8.358e-09,6.365e-09,4.912e-09,3.934e-09,3.304e-09,2.896
 e-09,2.613e-09,2.400e-09,2.228e-09,9.150e-09,8.214e-09,7.409e-09,6.635
 e-09,5.893e-09\PG=C01 [X(H2Kr1O2)]\\@


 WE SHOULD BE CAREFUL TO GET OUT OF AN EXPERIENCE ONLY THE WISDOM
 THAT IS IN IT -- AND STOP THERE;
 LEST WE BE LIKE THE CAT THAT SITS DOWN ON A HOT STOVE-LID.
 SHE WILL NEVER SIT DOWN ON A HOT STOVE LID AGAIN;
 BUT ALSO SHE WILL NEVER SIT DOWN ON A COLD ONE ANY MORE.

                                                     -- MARK TWAIN
 Job cpu time:  0 days  8 hours 44 minutes 13.2 seconds.
 File lengths (MBytes):  RWF=   3955 Int=      0 D2E=      0 Chk=      4 Scr=      1
 Normal termination of Gaussian 09 at Wed Dec 11 13:56:20 2019.
