 Entering Gaussian System, Link 0=g09
 Input=/home/matheus/.ptcc/Inputs/H2O2-Kr_15.com
 Output=/home/matheus/.ptcc/Logs-MP4/H2O2-Kr_15.log
 Initial command:
 /home/matheus/.gaussian/g09/l1.exe /home/matheus/.gaussian/g09/scratch/Gau-6849.inp -scrdir=/home/matheus/.gaussian/g09/scratch/
 Entering Link 1 = /home/matheus/.gaussian/g09/l1.exe PID=      6851.
  
 Copyright (c) 1988,1990,1992,1993,1995,1998,2003,2009,2011,
            Gaussian, Inc.  All Rights Reserved.
  
 This is part of the Gaussian(R) 09 program.  It is based on
 the Gaussian(R) 03 system (copyright 2003, Gaussian, Inc.),
 the Gaussian(R) 98 system (copyright 1998, Gaussian, Inc.),
 the Gaussian(R) 94 system (copyright 1995, Gaussian, Inc.),
 the Gaussian 92(TM) system (copyright 1992, Gaussian, Inc.),
 the Gaussian 90(TM) system (copyright 1990, Gaussian, Inc.),
 the Gaussian 88(TM) system (copyright 1988, Gaussian, Inc.),
 the Gaussian 86(TM) system (copyright 1986, Carnegie Mellon
 University), and the Gaussian 82(TM) system (copyright 1983,
 Carnegie Mellon University). Gaussian is a federally registered
 trademark of Gaussian, Inc.
  
 This software contains proprietary and confidential information,
 including trade secrets, belonging to Gaussian, Inc.
  
 This software is provided under written license and may be
 used, copied, transmitted, or stored only in accord with that
 written license.
  
 The following legend is applicable only to US Government
 contracts under FAR:
  
                    RESTRICTED RIGHTS LEGEND
  
 Use, reproduction and disclosure by the US Government is
 subject to restrictions as set forth in subparagraphs (a)
 and (c) of the Commercial Computer Software - Restricted
 Rights clause in FAR 52.227-19.
  
 Gaussian, Inc.
 340 Quinnipiac St., Bldg. 40, Wallingford CT 06492
  
  
 ---------------------------------------------------------------
 Warning -- This program may not be used in any manner that
 competes with the business of Gaussian, Inc. or will provide
 assistance to any competitor of Gaussian, Inc.  The licensee
 of this program is prohibited from giving any competitor of
 Gaussian, Inc. access to this program.  By using this program,
 the user acknowledges that Gaussian, Inc. is engaged in the
 business of creating and licensing software in the field of
 computational chemistry and represents and warrants to the
 licensee that it is not a competitor of Gaussian, Inc. and that
 it will not use this program in any manner prohibited above.
 ---------------------------------------------------------------
  

 Cite this work as:
 Gaussian 09, Revision C.01,
 M. J. Frisch, G. W. Trucks, H. B. Schlegel, G. E. Scuseria, 
 M. A. Robb, J. R. Cheeseman, G. Scalmani, V. Barone, B. Mennucci, 
 G. A. Petersson, H. Nakatsuji, M. Caricato, X. Li, H. P. Hratchian, 
 A. F. Izmaylov, J. Bloino, G. Zheng, J. L. Sonnenberg, M. Hada, 
 M. Ehara, K. Toyota, R. Fukuda, J. Hasegawa, M. Ishida, T. Nakajima, 
 Y. Honda, O. Kitao, H. Nakai, T. Vreven, J. A. Montgomery, Jr., 
 J. E. Peralta, F. Ogliaro, M. Bearpark, J. J. Heyd, E. Brothers, 
 K. N. Kudin, V. N. Staroverov, T. Keith, R. Kobayashi, J. Normand, 
 K. Raghavachari, A. Rendell, J. C. Burant, S. S. Iyengar, J. Tomasi, 
 M. Cossi, N. Rega, J. M. Millam, M. Klene, J. E. Knox, J. B. Cross, 
 V. Bakken, C. Adamo, J. Jaramillo, R. Gomperts, R. E. Stratmann, 
 O. Yazyev, A. J. Austin, R. Cammi, C. Pomelli, J. W. Ochterski, 
 R. L. Martin, K. Morokuma, V. G. Zakrzewski, G. A. Voth, 
 P. Salvador, J. J. Dannenberg, S. Dapprich, A. D. Daniels, 
 O. Farkas, J. B. Foresman, J. V. Ortiz, J. Cioslowski, 
 and D. J. Fox, Gaussian, Inc., Wallingford CT, 2010.
 
 ******************************************
 Gaussian 09:  EM64L-G09RevC.01 23-Sep-2011
                 8-Dec-2019 
 ******************************************
 %mem=2GB
 %nproc=2
 Will use up to    2 processors via shared memory.
 -------------------------------------
 #p mp4/aug-cc-PVTz int=ultrafine Scan
 -------------------------------------
 1/38=1,60=1/1,8;
 2/12=2,17=6,18=5,29=3,40=1/2;
 3/5=16,6=1,7=10,11=9,16=1,25=1,30=1,75=-5/1,2,3;
 4//1;
 5/5=2,38=5/2;
 8/6=4,9=120000,10=1/1,4;
 9/5=5/13;
 6/7=2,8=2,9=2,10=2,18=1/1;
 1/60=1/8(1);
 99/9=1/99;
 2/29=3/2;
 3/5=16,6=1,7=10,11=9,16=1,25=1,30=1,75=-5/1,2,3;
 4/5=5,16=3/1;
 5/5=2,38=5/2;
 8/6=4,9=120000,10=1/1,4;
 9/5=5/13;
 1/60=1/8(-6);
 99/9=1/99;
 Leave Link    1 at Sun Dec  8 08:56:08 2019, MaxMem=  268435456 cpu:       0.0
 (Enter /home/matheus/.gaussian/g09/l101.exe)
 ----
 PTCC
 ----
 Charge =  0 Multiplicity = 1
 Symbolic Z-Matrix:
 O                     0.        0.        0.725 
 O                     0.        0.       -0.725 
 H                     0.45936  -0.79564   1.02351 
 H                     0.        0.91872  -1.02351 
 Kr                    0.       R1        0. 
       Variables:
  R1                    3.     Scan 20    0.1    
 
 NAtoms=      5 NQM=        0 NQMF=       0 NMMI=      5 NMMIF=      0
                NMic=       0 NMicF=      0.
                    Isotopes and Nuclear Properties:
 (Nuclear quadrupole moments (NQMom) in fm**2, nuclear magnetic moments (NMagM)
  in nuclear magnetons)

  Atom         1           2           3           4           5
 IAtWgt=          16          16           1           1          84
 AtmWgt=  15.9949146  15.9949146   1.0078250   1.0078250  83.9115064
 NucSpn=           0           0           1           1           0
 AtZEff=   0.0000000   0.0000000   0.0000000   0.0000000   0.0000000
 NQMom=    0.0000000   0.0000000   0.0000000   0.0000000   0.0000000
 NMagM=    0.0000000   0.0000000   2.7928460   2.7928460   0.0000000
 Leave Link  101 at Sun Dec  8 08:56:08 2019, MaxMem=  268435456 cpu:       0.1
 (Enter /home/matheus/.gaussian/g09/l108.exe)
 Scan the potential surface.
 Variable   Value     No. Steps Step-Size
 -------- ----------- --------- ---------
     1       3.000000      20      0.1000
 A total of     21 points will be computed.
 Leave Link  108 at Sun Dec  8 08:56:08 2019, MaxMem=  268435456 cpu:       0.0
 (Enter /home/matheus/.gaussian/g09/l202.exe)
 ---------------------------------------------------------------------------------------------------
                            Z-MATRIX (ANGSTROMS AND DEGREES)
   CD    Cent   Atom    N1       Length/X        N2       Alpha/Y        N3        Beta/Z          J
 ---------------------------------------------------------------------------------------------------
      1      1  O        0   0.000000          0.000000          0.725000
      2      2  O        0   0.000000          0.000000         -0.725000
      3      3  H        0   0.459360         -0.795635          1.023510
      4      4  H        0   0.000000          0.918721         -1.023510
      5      5  Kr       0   0.000000          3.000000          0.000000
 ---------------------------------------------------------------------------------------------------
                         Z-Matrix orientation:                         
 ---------------------------------------------------------------------
 Center     Atomic      Atomic             Coordinates (Angstroms)
 Number     Number       Type             X           Y           Z
 ---------------------------------------------------------------------
      1          8           0        0.000000    0.000000    0.725000
      2          8           0        0.000000    0.000000   -0.725000
      3          1           0        0.459360   -0.795635    1.023510
      4          1           0        0.000000    0.918721   -1.023510
      5         36           0        0.000000    3.000000    0.000000
 ---------------------------------------------------------------------
                    Distance matrix (angstroms):
                    1          2          3          4          5
     1  O    0.000000
     2  O    1.450000   0.000000
     3  H    0.966000   1.975180   0.000000
     4  H    1.975180   0.966000   2.709303   0.000000
     5  Kr   3.086361   3.086361   3.957958   2.319331   0.000000
 Stoichiometry    H2KrO2
 Framework group  C1[X(H2KrO2)]
 Deg. of freedom     9
 Full point group                 C1      NOp   1
 Largest Abelian subgroup         C1      NOp   1
 Largest concise Abelian subgroup C1      NOp   1
                         Standard orientation:                         
 ---------------------------------------------------------------------
 Center     Atomic      Atomic             Coordinates (Angstroms)
 Number     Number       Type             X           Y           Z
 ---------------------------------------------------------------------
      1          8           0        2.014667   -0.687062   -0.062307
      2          8           0        1.988768    0.761329    0.000872
      3          1           0        2.820911   -0.990551    0.374753
      4          1           0        1.064927    1.042640    0.024073
      5         36           0       -0.997592   -0.017951    0.002574
 ---------------------------------------------------------------------
 Rotational constants (GHZ):     26.4417565      2.3080537      2.1261727
 Leave Link  202 at Sun Dec  8 08:56:08 2019, MaxMem=  268435456 cpu:       0.0
 (Enter /home/matheus/.gaussian/g09/l301.exe)
 Standard basis: Aug-CC-pVTZ (5D, 7F)
 Ernie: Thresh=  0.10000D-02 Tol=  0.10000D-05 Strict=F.
 Ernie:  38 primitive shells out of 205 were deleted.
 There are   197 symmetry adapted basis functions of A   symmetry.
 Integral buffers will be    131072 words long.
 Raffenetti 1 integral format.
 Two-electron integral symmetry is turned on.
   197 basis functions,   415 primitive gaussians,   229 cartesian basis functions
    27 alpha electrons       27 beta electrons
       nuclear repulsion energy       148.3895250152 Hartrees.
 IExCor=    0 DFT=F Ex=HF Corr=None ExCW=0 ScaHFX=  1.000000
 ScaDFX=  1.000000  1.000000  1.000000  1.000000 ScalE2=  1.000000  1.000000
 IRadAn=      5 IRanWt=     -1 IRanGd=            0 ICorTp=0
 NAtoms=    5 NActive=    5 NUniq=    5 SFac= 1.00D+00 NAtFMM=   60 NAOKFM=F Big=F
 Leave Link  301 at Sun Dec  8 08:56:08 2019, MaxMem=  268435456 cpu:       0.0
 (Enter /home/matheus/.gaussian/g09/l302.exe)
 NPDir=0 NMtPBC=     1 NCelOv=     1 NCel=       1 NClECP=     1 NCelD=      1
         NCelK=      1 NCelE2=     1 NClLst=     1 CellRange=     0.0.
 One-electron integrals computed using PRISM.
 NBasis=   197 RedAO= T  NBF=   197
 NBsUse=   197 1.00D-06 NBFU=   197
 Leave Link  302 at Sun Dec  8 08:56:08 2019, MaxMem=  268435456 cpu:       0.2
 (Enter /home/matheus/.gaussian/g09/l303.exe)
 DipDrv:  MaxL=1.
 Leave Link  303 at Sun Dec  8 08:56:09 2019, MaxMem=  268435456 cpu:       0.0
 (Enter /home/matheus/.gaussian/g09/l401.exe)
 Harris functional with IExCor=  205 diagonalized for initial guess.
 ExpMin= 2.53D-02 ExpMax= 1.17D+07 ExpMxC= 1.33D+04 IAcc=3 IRadAn=         5 AccDes= 0.00D+00
 HarFok:  IExCor=  205 AccDes= 0.00D+00 IRadAn=         5 IDoV= 1
 ScaDFX=  1.000000  1.000000  1.000000  1.000000
 FoFCou: FMM=F IPFlag=           0 FMFlag=      100000 FMFlg1=           0
         NFxFlg=           0 DoJE=T BraDBF=F KetDBF=T FulRan=T
         Omega=  0.000000  0.000000  1.000000  0.000000  0.000000 ICntrl=     500 IOpCl=  0
         NMat0=    1 NMatS0=    1 NMatT0=    0 NMatD0=    1 NMtDS0=    0 NMtDT0=    0
         I1Cent=           4 NGrid=           0.
 Petite list used in FoFCou.
 Harris En= -2901.93034877959    
 Initial guess orbital symmetries:
       Occupied  (A) (A) (A) (A) (A) (A) (A) (A) (A) (A) (A) (A)
                 (A) (A) (A) (A) (A) (A) (A) (A) (A) (A) (A) (A)
                 (A) (A) (A)
       Virtual   (A) (A) (A) (A) (A) (A) (A) (A) (A) (A) (A) (A)
                 (A) (A) (A) (A) (A) (A) (A) (A) (A) (A) (A) (A)
                 (A) (A) (A) (A) (A) (A) (A) (A) (A) (A) (A) (A)
                 (A) (A) (A) (A) (A) (A) (A) (A) (A) (A) (A) (A)
                 (A) (A) (A) (A) (A) (A) (A) (A) (A) (A) (A) (A)
                 (A) (A) (A) (A) (A) (A) (A) (A) (A) (A) (A) (A)
                 (A) (A) (A) (A) (A) (A) (A) (A) (A) (A) (A) (A)
                 (A) (A) (A) (A) (A) (A) (A) (A) (A) (A) (A) (A)
                 (A) (A) (A) (A) (A) (A) (A) (A) (A) (A) (A) (A)
                 (A) (A) (A) (A) (A) (A) (A) (A) (A) (A) (A) (A)
                 (A) (A) (A) (A) (A) (A) (A) (A) (A) (A) (A) (A)
                 (A) (A) (A) (A) (A) (A) (A) (A) (A) (A) (A) (A)
                 (A) (A) (A) (A) (A) (A) (A) (A) (A) (A) (A) (A)
                 (A) (A) (A) (A) (A) (A) (A) (A) (A) (A) (A) (A)
                 (A) (A)
 The electronic state of the initial guess is 1-A.
 Leave Link  401 at Sun Dec  8 08:56:09 2019, MaxMem=  268435456 cpu:       1.1
 (Enter /home/matheus/.gaussian/g09/l502.exe)
 Closed shell SCF:
 Requested convergence on RMS density matrix=1.00D-08 within 128 cycles.
 Requested convergence on MAX density matrix=1.00D-06.
 Requested convergence on             energy=1.00D-06.
 No special actions if energy rises.
 Using DIIS extrapolation, IDIIS=  1040.
 Integral symmetry usage will be decided dynamically.
 IEnd=      178489 IEndB=      178489 NGot=   268435456 MDV=   268326278
 LenX=   268326278 LenY=   268273396
 Fock matrices will be formed incrementally for  20 cycles.

 Cycle   1  Pass 0  IDiag  1:
 FoFCou: FMM=F IPFlag=           0 FMFlag=      100000 FMFlg1=           0
         NFxFlg=           0 DoJE=F BraDBF=F KetDBF=F FulRan=T
         Omega=  0.000000  0.000000  1.000000  0.000000  0.000000 ICntrl=       0 IOpCl=  0
         NMat0=    1 NMatS0=    1 NMatT0=    0 NMatD0=    1 NMtDS0=    0 NMtDT0=    0
         I1Cent=           0 NGrid=           0.
 Symmetry not used in FoFCou.
 E= -2902.75865394728    
 DIIS: error= 3.41D-02 at cycle   1 NSaved=   1.
 NSaved= 1 IEnMin= 1 EnMin= -2902.75865394728     IErMin= 1 ErrMin= 3.41D-02
 ErrMax= 3.41D-02 EMaxC= 1.00D-01 BMatC= 6.92D-01 BMatP= 6.92D-01
 IDIUse=3 WtCom= 6.59D-01 WtEn= 3.41D-01
 Coeff-Com:  0.100D+01
 Coeff-En:   0.100D+01
 Coeff:      0.100D+01
 Gap=     0.681 Goal=   None    Shift=    0.000
 GapD=    0.681 DampG=2.000 DampE=0.500 DampFc=1.0000 IDamp=-1.
 RMSDP=2.27D-03 MaxDP=1.50D-01              OVMax= 5.77D-02

 Cycle   2  Pass 0  IDiag  1:
 RMSU=  1.58D-03    CP:  1.01D+00
 E= -2902.86325392493     Delta-E=       -0.104599977652 Rises=F Damp=F
 DIIS: error= 6.99D-03 at cycle   2 NSaved=   2.
 NSaved= 2 IEnMin= 2 EnMin= -2902.86325392493     IErMin= 2 ErrMin= 6.99D-03
 ErrMax= 6.99D-03 EMaxC= 1.00D-01 BMatC= 4.00D-02 BMatP= 6.92D-01
 IDIUse=3 WtCom= 9.30D-01 WtEn= 6.99D-02
 Coeff-Com:  0.151D+00 0.849D+00
 Coeff-En:   0.000D+00 0.100D+01
 Coeff:      0.140D+00 0.860D+00
 Gap=     0.516 Goal=   None    Shift=    0.000
 RMSDP=7.90D-04 MaxDP=4.21D-02 DE=-1.05D-01 OVMax= 2.25D-02

 Cycle   3  Pass 0  IDiag  1:
 RMSU=  4.27D-04    CP:  1.01D+00  7.82D-01
 E= -2902.87672824211     Delta-E=       -0.013474317184 Rises=F Damp=F
 DIIS: error= 2.15D-03 at cycle   3 NSaved=   3.
 NSaved= 3 IEnMin= 3 EnMin= -2902.87672824211     IErMin= 3 ErrMin= 2.15D-03
 ErrMax= 2.15D-03 EMaxC= 1.00D-01 BMatC= 2.21D-03 BMatP= 4.00D-02
 IDIUse=3 WtCom= 9.78D-01 WtEn= 2.15D-02
 Coeff-Com: -0.652D-02 0.167D+00 0.840D+00
 Coeff-En:   0.000D+00 0.000D+00 0.100D+01
 Coeff:     -0.638D-02 0.163D+00 0.843D+00
 Gap=     0.493 Goal=   None    Shift=    0.000
 RMSDP=1.20D-04 MaxDP=4.97D-03 DE=-1.35D-02 OVMax= 7.56D-03

 Cycle   4  Pass 0  IDiag  1:
 RMSU=  4.73D-05    CP:  1.01D+00  8.15D-01  8.95D-01
 E= -2902.87778078739     Delta-E=       -0.001052545281 Rises=F Damp=F
 DIIS: error= 3.75D-04 at cycle   4 NSaved=   4.
 NSaved= 4 IEnMin= 4 EnMin= -2902.87778078739     IErMin= 4 ErrMin= 3.75D-04
 ErrMax= 3.75D-04 EMaxC= 1.00D-01 BMatC= 4.33D-05 BMatP= 2.21D-03
 IDIUse=3 WtCom= 9.96D-01 WtEn= 3.75D-03
 Coeff-Com: -0.417D-02 0.953D-02 0.147D+00 0.847D+00
 Coeff-En:   0.000D+00 0.000D+00 0.000D+00 0.100D+01
 Coeff:     -0.415D-02 0.950D-02 0.147D+00 0.848D+00
 Gap=     0.497 Goal=   None    Shift=    0.000
 RMSDP=2.04D-05 MaxDP=6.73D-04 DE=-1.05D-03 OVMax= 1.56D-03

 Cycle   5  Pass 0  IDiag  1:
 RMSU=  1.26D-05    CP:  1.01D+00  8.16D-01  9.10D-01  9.85D-01
 E= -2902.87781668551     Delta-E=       -0.000035898118 Rises=F Damp=F
 DIIS: error= 1.39D-04 at cycle   5 NSaved=   5.
 NSaved= 5 IEnMin= 5 EnMin= -2902.87781668551     IErMin= 5 ErrMin= 1.39D-04
 ErrMax= 1.39D-04 EMaxC= 1.00D-01 BMatC= 3.24D-06 BMatP= 4.33D-05
 IDIUse=3 WtCom= 9.99D-01 WtEn= 1.39D-03
 Coeff-Com:  0.783D-03-0.144D-01-0.695D-01 0.178D-01 0.107D+01
 Coeff-En:   0.000D+00 0.000D+00 0.000D+00 0.000D+00 0.100D+01
 Coeff:      0.782D-03-0.144D-01-0.694D-01 0.178D-01 0.107D+01
 Gap=     0.497 Goal=   None    Shift=    0.000
 RMSDP=9.56D-06 MaxDP=2.97D-04 DE=-3.59D-05 OVMax= 8.41D-04

 Initial convergence to 1.0D-05 achieved.  Increase integral accuracy.
 Cycle   6  Pass 1  IDiag  1:
 E= -2902.87782137165     Delta-E=       -0.000004686135 Rises=F Damp=F
 DIIS: error= 3.12D-05 at cycle   1 NSaved=   1.
 NSaved= 1 IEnMin= 1 EnMin= -2902.87782137165     IErMin= 1 ErrMin= 3.12D-05
 ErrMax= 3.12D-05 EMaxC= 1.00D-01 BMatC= 2.15D-07 BMatP= 2.15D-07
 IDIUse=1 WtCom= 1.00D+00 WtEn= 0.00D+00
 Coeff-Com:  0.100D+01
 Coeff:      0.100D+01
 Gap=     0.497 Goal=   None    Shift=    0.000
 RMSDP=9.56D-06 MaxDP=2.97D-04 DE=-4.69D-06 OVMax= 2.19D-04

 Cycle   7  Pass 1  IDiag  1:
 RMSU=  1.65D-06    CP:  1.00D+00
 E= -2902.87782174915     Delta-E=       -0.000000377506 Rises=F Damp=F
 DIIS: error= 1.33D-05 at cycle   2 NSaved=   2.
 NSaved= 2 IEnMin= 2 EnMin= -2902.87782174915     IErMin= 2 ErrMin= 1.33D-05
 ErrMax= 1.33D-05 EMaxC= 1.00D-01 BMatC= 5.31D-08 BMatP= 2.15D-07
 IDIUse=1 WtCom= 1.00D+00 WtEn= 0.00D+00
 Coeff-Com:  0.876D-01 0.912D+00
 Coeff:      0.876D-01 0.912D+00
 Gap=     0.497 Goal=   None    Shift=    0.000
 RMSDP=1.13D-06 MaxDP=4.54D-05 DE=-3.78D-07 OVMax= 1.09D-04

 Cycle   8  Pass 1  IDiag  1:
 RMSU=  6.22D-07    CP:  1.00D+00  1.30D+00
 E= -2902.87782184059     Delta-E=       -0.000000091437 Rises=F Damp=F
 DIIS: error= 7.56D-06 at cycle   3 NSaved=   3.
 NSaved= 3 IEnMin= 3 EnMin= -2902.87782184059     IErMin= 3 ErrMin= 7.56D-06
 ErrMax= 7.56D-06 EMaxC= 1.00D-01 BMatC= 1.80D-08 BMatP= 5.31D-08
 IDIUse=1 WtCom= 1.00D+00 WtEn= 0.00D+00
 Coeff-Com: -0.284D+00 0.148D+00 0.114D+01
 Coeff:     -0.284D+00 0.148D+00 0.114D+01
 Gap=     0.497 Goal=   None    Shift=    0.000
 RMSDP=1.05D-06 MaxDP=2.76D-05 DE=-9.14D-08 OVMax= 1.27D-04

 Cycle   9  Pass 1  IDiag  1:
 RMSU=  2.50D-07    CP:  1.00D+00  1.71D+00  1.32D+00
 E= -2902.87782188422     Delta-E=       -0.000000043628 Rises=F Damp=F
 DIIS: error= 3.04D-06 at cycle   4 NSaved=   4.
 NSaved= 4 IEnMin= 4 EnMin= -2902.87782188422     IErMin= 4 ErrMin= 3.04D-06
 ErrMax= 3.04D-06 EMaxC= 1.00D-01 BMatC= 2.07D-09 BMatP= 1.80D-08
 IDIUse=1 WtCom= 1.00D+00 WtEn= 0.00D+00
 Coeff-Com: -0.809D-01-0.450D-01 0.275D+00 0.851D+00
 Coeff:     -0.809D-01-0.450D-01 0.275D+00 0.851D+00
 Gap=     0.497 Goal=   None    Shift=    0.000
 RMSDP=3.01D-07 MaxDP=6.41D-06 DE=-4.36D-08 OVMax= 4.43D-05

 Cycle  10  Pass 1  IDiag  1:
 RMSU=  1.18D-07    CP:  1.00D+00  1.79D+00  1.47D+00  1.27D+00
 E= -2902.87782188950     Delta-E=       -0.000000005282 Rises=F Damp=F
 DIIS: error= 1.65D-06 at cycle   5 NSaved=   5.
 NSaved= 5 IEnMin= 5 EnMin= -2902.87782188950     IErMin= 5 ErrMin= 1.65D-06
 ErrMax= 1.65D-06 EMaxC= 1.00D-01 BMatC= 5.54D-10 BMatP= 2.07D-09
 IDIUse=1 WtCom= 1.00D+00 WtEn= 0.00D+00
 Coeff-Com:  0.114D+00-0.592D-02-0.445D+00-0.435D+00 0.177D+01
 Coeff:      0.114D+00-0.592D-02-0.445D+00-0.435D+00 0.177D+01
 Gap=     0.497 Goal=   None    Shift=    0.000
 RMSDP=3.41D-07 MaxDP=8.31D-06 DE=-5.28D-09 OVMax= 5.49D-05

 Cycle  11  Pass 1  IDiag  1:
 RMSU=  4.00D-08    CP:  1.00D+00  1.85D+00  1.62D+00  1.90D+00  1.98D+00
 E= -2902.87782189246     Delta-E=       -0.000000002958 Rises=F Damp=F
 DIIS: error= 5.98D-07 at cycle   6 NSaved=   6.
 NSaved= 6 IEnMin= 6 EnMin= -2902.87782189246     IErMin= 6 ErrMin= 5.98D-07
 ErrMax= 5.98D-07 EMaxC= 1.00D-01 BMatC= 5.65D-11 BMatP= 5.54D-10
 IDIUse=1 WtCom= 1.00D+00 WtEn= 0.00D+00
 Coeff-Com:  0.156D-01 0.640D-02-0.490D-01-0.144D+00-0.259D-01 0.120D+01
 Coeff:      0.156D-01 0.640D-02-0.490D-01-0.144D+00-0.259D-01 0.120D+01
 Gap=     0.497 Goal=   None    Shift=    0.000
 RMSDP=1.17D-07 MaxDP=2.88D-06 DE=-2.96D-09 OVMax= 1.90D-05

 Cycle  12  Pass 1  IDiag  1:
 RMSU=  1.55D-08    CP:  1.00D+00  1.87D+00  1.66D+00  2.10D+00  2.37D+00
                    CP:  1.53D+00
 E= -2902.87782189276     Delta-E=       -0.000000000296 Rises=F Damp=F
 DIIS: error= 1.78D-07 at cycle   7 NSaved=   7.
 NSaved= 7 IEnMin= 7 EnMin= -2902.87782189276     IErMin= 7 ErrMin= 1.78D-07
 ErrMax= 1.78D-07 EMaxC= 1.00D-01 BMatC= 6.74D-12 BMatP= 5.65D-11
 IDIUse=1 WtCom= 1.00D+00 WtEn= 0.00D+00
 Coeff-Com: -0.145D-01 0.140D-03 0.591D-01 0.473D-01-0.226D+00 0.819D-01
 Coeff-Com:  0.105D+01
 Coeff:     -0.145D-01 0.140D-03 0.591D-01 0.473D-01-0.226D+00 0.819D-01
 Coeff:      0.105D+01
 Gap=     0.497 Goal=   None    Shift=    0.000
 RMSDP=2.41D-08 MaxDP=5.49D-07 DE=-2.96D-10 OVMax= 3.54D-06

 Cycle  13  Pass 1  IDiag  1:
 RMSU=  5.08D-09    CP:  1.00D+00  1.87D+00  1.67D+00  2.13D+00  2.43D+00
                    CP:  1.76D+00  1.34D+00
 E= -2902.87782189277     Delta-E=       -0.000000000015 Rises=F Damp=F
 DIIS: error= 6.22D-08 at cycle   8 NSaved=   8.
 NSaved= 8 IEnMin= 8 EnMin= -2902.87782189277     IErMin= 8 ErrMin= 6.22D-08
 ErrMax= 6.22D-08 EMaxC= 1.00D-01 BMatC= 8.28D-13 BMatP= 6.74D-12
 IDIUse=1 WtCom= 1.00D+00 WtEn= 0.00D+00
 Coeff-Com: -0.511D-02-0.107D-02 0.187D-01 0.269D-01-0.247D-01-0.175D+00
 Coeff-Com:  0.209D-01 0.114D+01
 Coeff:     -0.511D-02-0.107D-02 0.187D-01 0.269D-01-0.247D-01-0.175D+00
 Coeff:      0.209D-01 0.114D+01
 Gap=     0.497 Goal=   None    Shift=    0.000
 RMSDP=9.00D-09 MaxDP=1.89D-07 DE=-1.46D-11 OVMax= 1.09D-06

 SCF Done:  E(RHF) =  -2902.87782189     A.U. after   13 cycles
             Convg  =    0.9001D-08             -V/T =  2.0001
 KE= 2.902625158977D+03 PE=-7.237380226506D+03 EE= 1.283487720621D+03
 Leave Link  502 at Sun Dec  8 08:56:57 2019, MaxMem=  268435456 cpu:      96.6
 (Enter /home/matheus/.gaussian/g09/l801.exe)
 Windowed orbitals will be sorted by symmetry type.
 ExpMin= 2.53D-02 ExpMax= 1.17D+07 ExpMxC= 1.33D+04 IAcc=3 IRadAn=         5 AccDes= 0.00D+00
 HarFok:  IExCor=  205 AccDes= 0.00D+00 IRadAn=         5 IDoV=-2
 ScaDFX=  1.000000  1.000000  1.000000  1.000000
 DSYEVD returned Info=          93 IAlg= 4 N=    46 NDim=    46 NE2=     4547561 trying DSYEV.
 DSYEVD returned Info=          89 IAlg= 4 N=    59 NDim=    59 NE2=     4547561 trying DSYEV.
 Largest valence mixing into a core orbital is  1.44D-04
 Largest core mixing into a valence orbital is  2.59D-05
 Range of M.O.s used for correlation:    12   197
 NBasis=   197 NAE=    27 NBE=    27 NFC=    11 NFV=     0
 NROrb=    186 NOA=    16 NOB=    16 NVA=   170 NVB=   170

 **** Warning!!: The largest alpha MO coefficient is  0.12618584D+02

 Leave Link  801 at Sun Dec  8 08:56:58 2019, MaxMem=  268435456 cpu:       0.2
 (Enter /home/matheus/.gaussian/g09/l804.exe)
 Closed-shell transformation, MDV=   268435456 ITran=4 ISComp=1.
 Semi-Direct transformation.
 ModeAB=           2 MOrb=            16 LenV=     267327018
 LASXX=     48528660 LTotXX=    48528660 LenRXX=    48528660
 LTotAB=    49298776 MaxLAS=    78372960 LenRXY=    78372960
 NonZer=    97057320 LenScr=   146313216 LnRSAI=           0
 LnScr1=           0 LExtra=           0 Total=    273214836
 MaxDsk=          -1 SrtSym=           F ITran=            4
 DoSDTr:  NPSUse=  2
 JobTyp=0 Pass  1:  I=   1 to  16.
 (rs|ai) integrals will be sorted in core.
 Complete sort for first half transformation.
 First half transformation complete.
 Begin second half transformation for I=  10.
 Begin second half transformation for I=  10.
 Complete sort for second half transformation.
 Second half transformation complete.
 SymMOI:  orbitals are not symmetric.
 Spin components of T(2) and E(2):
     alpha-alpha T2 =       0.2592921459D-01 E2=     -0.9990356612D-01
     alpha-beta  T2 =       0.1418150635D+00 E2=     -0.5563689138D+00
     beta-beta   T2 =       0.2592921459D-01 E2=     -0.9990356612D-01
 ANorm=    0.1092553657D+01
 E2 =    -0.7561760460D+00 EUMP2 =    -0.29036339979388D+04
 Leave Link  804 at Sun Dec  8 08:57:20 2019, MaxMem=  268435456 cpu:      45.1
 (Enter /home/matheus/.gaussian/g09/l913.exe)
 CIDS:  MDV=   268435456.
 Frozen-core window:  NFC=  11 NFV=   0.
 IFCWin=0 IBDFC=1 NFBD=     0     0 NFCmp=     0     0 NFFFC=     0     0
 Using DD3R+UMP44R for 1st iteration, S=T.
 Using DD4RQ for 2nd and later iterations.
 Would need an additional       431206676 words for in-memory AO integral storage.
 MP4(SDTQ)
 =========
 DD1Dir will call FoFDir   1 times, MxPair=       272
 NAB=   136 NAA=     0 NBB=     0 NumPrc=  2.
 Integrals replicated using symmetry in FoFDir.
 MinBra= 0 MaxBra= 3 Meth= 1.
 IRaf=       0 NMat= 272 IRICut=     340 DoRegI=T DoRafI=T ISym2E= 2 JSym2E=2.
 MP4(D)= -0.14954914D-01
 MP4(S)= -0.64160774D-02
 MP4(R+Q)=  0.15362226D-01
 T4(AAA)= -0.10394043D-02
 T4(AAB)= -0.14145739D-01
 Time for triples=     1282.48 seconds.
 MP4(T)=   -0.30370286D-01
 E3=       -0.11305844D-01        EUMP3=      -0.29036453038D+04
 E4(DQ)=    0.40731214D-03        UMP4(DQ)=   -0.29036448965D+04
 E4(SDQ)=  -0.60087652D-02        UMP4(SDQ)=  -0.29036513125D+04
 E4(SDTQ)= -0.36379052D-01        UMP4(SDTQ)= -0.29036816828D+04
 VARIATIONAL ENERGIES WITH THE FIRST-ORDER WAVEFUNCTION:
 E(VAR1)=  -0.29035207799D+04     E(CISD,4)=  -0.29035202235D+04
 Largest amplitude= 2.60D-02
 Leave Link  913 at Sun Dec  8 09:08:51 2019, MaxMem=  268435456 cpu:    1379.9
 (Enter /home/matheus/.gaussian/g09/l601.exe)
 Copying SCF densities to generalized density rwf, IOpCl= 0 IROHF=0.

 **********************************************************************

            Population analysis using the SCF density.

 **********************************************************************

 Orbital symmetries:
       Occupied  (A) (A) (A) (A) (A) (A) (A) (A) (A) (A) (A) (A)
                 (A) (A) (A) (A) (A) (A) (A) (A) (A) (A) (A) (A)
                 (A) (A) (A)
       Virtual   (A) (A) (A) (A) (A) (A) (A) (A) (A) (A) (A) (A)
                 (A) (A) (A) (A) (A) (A) (A) (A) (A) (A) (A) (A)
                 (A) (A) (A) (A) (A) (A) (A) (A) (A) (A) (A) (A)
                 (A) (A) (A) (A) (A) (A) (A) (A) (A) (A) (A) (A)
                 (A) (A) (A) (A) (A) (A) (A) (A) (A) (A) (A) (A)
                 (A) (A) (A) (A) (A) (A) (A) (A) (A) (A) (A) (A)
                 (A) (A) (A) (A) (A) (A) (A) (A) (A) (A) (A) (A)
                 (A) (A) (A) (A) (A) (A) (A) (A) (A) (A) (A) (A)
                 (A) (A) (A) (A) (A) (A) (A) (A) (A) (A) (A) (A)
                 (A) (A) (A) (A) (A) (A) (A) (A) (A) (A) (A) (A)
                 (A) (A) (A) (A) (A) (A) (A) (A) (A) (A) (A) (A)
                 (A) (A) (A) (A) (A) (A) (A) (A) (A) (A) (A) (A)
                 (A) (A) (A) (A) (A) (A) (A) (A) (A) (A) (A) (A)
                 (A) (A) (A) (A) (A) (A) (A) (A) (A) (A) (A) (A)
                 (A) (A)
 The electronic state is 1-A.
 Alpha  occ. eigenvalues -- -520.17310 -69.91064 -63.01723 -63.01720 -63.01717
 Alpha  occ. eigenvalues --  -20.62739 -20.62406 -10.85728  -8.33952  -8.33925
 Alpha  occ. eigenvalues --   -8.33910  -3.83332  -3.83326  -3.83305  -3.83278
 Alpha  occ. eigenvalues --   -3.83274  -1.46473  -1.21697  -1.16313  -0.71342
 Alpha  occ. eigenvalues --   -0.70575  -0.61877  -0.54280  -0.53222  -0.52806
 Alpha  occ. eigenvalues --   -0.51572  -0.46118
 Alpha virt. eigenvalues --    0.03575   0.04508   0.08896   0.10468   0.11467
 Alpha virt. eigenvalues --    0.12479   0.15287   0.16146   0.17252   0.18226
 Alpha virt. eigenvalues --    0.19516   0.21312   0.24537   0.25925   0.26682
 Alpha virt. eigenvalues --    0.28262   0.28859   0.31759   0.33682   0.35997
 Alpha virt. eigenvalues --    0.36635   0.37403   0.38712   0.41845   0.43014
 Alpha virt. eigenvalues --    0.45196   0.45500   0.52098   0.56858   0.59729
 Alpha virt. eigenvalues --    0.61454   0.64476   0.68866   0.70798   0.73839
 Alpha virt. eigenvalues --    0.76701   0.77789   0.78182   0.78939   0.81543
 Alpha virt. eigenvalues --    0.83835   0.85013   0.85522   0.87040   0.88134
 Alpha virt. eigenvalues --    0.90543   0.91471   0.93235   0.94761   0.98573
 Alpha virt. eigenvalues --    0.99474   1.00403   1.02473   1.02952   1.05903
 Alpha virt. eigenvalues --    1.08644   1.10436   1.12996   1.14900   1.17856
 Alpha virt. eigenvalues --    1.18816   1.21381   1.23321   1.25905   1.28384
 Alpha virt. eigenvalues --    1.35353   1.39963   1.44620   1.48471   1.50385
 Alpha virt. eigenvalues --    1.52861   1.60093   1.62108   1.65348   1.71788
 Alpha virt. eigenvalues --    1.72257   1.89274   1.96740   1.98068   2.07989
 Alpha virt. eigenvalues --    2.14374   2.16401   2.18671   2.28709   2.30135
 Alpha virt. eigenvalues --    2.35156   2.37180   2.37400   2.40383   2.41553
 Alpha virt. eigenvalues --    2.44811   2.46699   2.52591   2.53300   2.54140
 Alpha virt. eigenvalues --    2.55657   2.58073   2.62562   2.64919   2.68057
 Alpha virt. eigenvalues --    2.69472   2.69791   2.70687   2.73256   2.75044
 Alpha virt. eigenvalues --    2.78726   2.80320   2.83526   2.85531   2.86562
 Alpha virt. eigenvalues --    2.92638   2.94624   2.97074   3.04484   3.08549
 Alpha virt. eigenvalues --    3.12652   3.26103   3.28729   3.34978   3.78887
 Alpha virt. eigenvalues --    3.90780   4.13872   4.16490   4.25269   4.27883
 Alpha virt. eigenvalues --    4.36594   4.37294   4.40730   4.44278   4.48893
 Alpha virt. eigenvalues --    4.64171   4.73105   4.77521   4.83694   5.04148
 Alpha virt. eigenvalues --    5.18592   5.24348   5.27370   5.33792   5.37856
 Alpha virt. eigenvalues --    5.59287   5.80582   6.16397   6.35214   6.41135
 Alpha virt. eigenvalues --    6.45503   6.67608   6.68084   6.75251   6.85218
 Alpha virt. eigenvalues --    7.04200   7.12298   7.12766   7.21214   7.21709
 Alpha virt. eigenvalues --    7.23446   7.30039   7.32034   7.33473   7.39830
 Alpha virt. eigenvalues --    7.41727   7.62031   7.63508   7.76334   8.07943
 Alpha virt. eigenvalues --    8.22942   8.47993   8.53852  14.68382  15.26919
          Condensed to atoms (all electrons):
              1          2          3          4          5
     1  O    8.111937  -0.064908   0.249513  -0.015521  -0.027400
     2  O   -0.064908   8.129360  -0.003964   0.260584  -0.011091
     3  H    0.249513  -0.003964   0.485196   0.004562   0.002351
     4  H   -0.015521   0.260584   0.004562   0.464895  -0.004795
     5  Kr  -0.027400  -0.011091   0.002351  -0.004795  36.029951
 Mulliken atomic charges:
              1
     1  O   -0.253621
     2  O   -0.309980
     3  H    0.262342
     4  H    0.290275
     5  Kr   0.010984
 Sum of Mulliken atomic charges =   0.00000
 Mulliken charges with hydrogens summed into heavy atoms:
              1
     1  O    0.008721
     2  O   -0.019705
     5  Kr   0.010984
 Sum of Mulliken charges with hydrogens summed into heavy atoms =   0.00000
 Electronic spatial extent (au):  <R**2>=            491.2616
 Charge=              0.0000 electrons
 Dipole moment (field-independent basis, Debye):
    X=             -0.3483    Y=             -0.3009    Z=              0.8243  Tot=              0.9441
 Quadrupole moment (field-independent basis, Debye-Ang):
   XX=            -27.4809   YY=            -28.2311   ZZ=            -30.1238
   XY=             -3.8630   XZ=              2.5177   YZ=             -0.8824
 Traceless Quadrupole moment (field-independent basis, Debye-Ang):
   XX=              1.1310   YY=              0.3808   ZZ=             -1.5118
   XY=             -3.8630   XZ=              2.5177   YZ=             -0.8824
 Octapole moment (field-independent basis, Debye-Ang**2):
  XXX=             -3.6044  YYY=             -0.6832  ZZZ=              0.4150  XYY=             -3.9917
  XXY=            -15.8784  XXZ=              7.3366  XZZ=             -7.0921  YZZ=             -0.6555
  YYZ=              1.0524  XYZ=             -2.6495
 Hexadecapole moment (field-independent basis, Debye-Ang**3):
 XXXX=           -356.4725 YYYY=            -63.0278 ZZZZ=            -28.9374 XXXY=            -48.6313
 XXXZ=             21.8081 YYYX=             -5.7726 YYYZ=             -1.1282 ZZZX=              1.3082
 ZZZY=             -0.5763 XXYY=            -74.9290 XXZZ=            -76.2311 YYZZ=            -16.8191
 XXYZ=             -7.7892 YYXZ=              2.9791 ZZXY=             -1.4065
 N-N= 1.483895250152D+02 E-N=-7.237380226149D+03  KE= 2.902625158977D+03
 Leave Link  601 at Sun Dec  8 09:08:51 2019, MaxMem=  268435456 cpu:       0.1
 (Enter /home/matheus/.gaussian/g09/l108.exe)
 Variable Step   Value    
 -------- ---- -----------
     1       1    5.858151
 Leave Link  108 at Sun Dec  8 09:08:51 2019, MaxMem=  268435456 cpu:       0.0
 (Enter /home/matheus/.gaussian/g09/l202.exe)
 ---------------------------------------------------------------------------------------------------
                            Z-MATRIX (ANGSTROMS AND DEGREES)
   CD    Cent   Atom    N1       Length/X        N2       Alpha/Y        N3        Beta/Z          J
 ---------------------------------------------------------------------------------------------------
      1      1  O        0   0.000000          0.000000          0.725000
      2      2  O        0   0.000000          0.000000         -0.725000
      3      3  H        0   0.459360         -0.795635          1.023510
      4      4  H        0   0.000000          0.918721         -1.023510
      5      5  Kr       0   0.000000          3.100000          0.000000
 ---------------------------------------------------------------------------------------------------
                         Z-Matrix orientation:                         
 ---------------------------------------------------------------------
 Center     Atomic      Atomic             Coordinates (Angstroms)
 Number     Number       Type             X           Y           Z
 ---------------------------------------------------------------------
      1          8           0        0.000000    0.000000    0.725000
      2          8           0        0.000000    0.000000   -0.725000
      3          1           0        0.459360   -0.795635    1.023510
      4          1           0        0.000000    0.918721   -1.023510
      5         36           0        0.000000    3.100000    0.000000
 ---------------------------------------------------------------------
                    Distance matrix (angstroms):
                    1          2          3          4          5
     1  O    0.000000
     2  O    1.450000   0.000000
     3  H    0.966000   1.975180   0.000000
     4  H    1.975180   0.966000   2.709303   0.000000
     5  Kr   3.183650   3.183650   4.053956   2.409472   0.000000
 Stoichiometry    H2KrO2
 Framework group  C1[X(H2KrO2)]
 Deg. of freedom     9
 Full point group                 C1      NOp   1
 RotChk:  IX=0 Diff= 1.88D-03
 Largest Abelian subgroup         C1      NOp   1
 Largest concise Abelian subgroup C1      NOp   1
                         Standard orientation:                         
 ---------------------------------------------------------------------
 Center     Atomic      Atomic             Coordinates (Angstroms)
 Number     Number       Type             X           Y           Z
 ---------------------------------------------------------------------
      1          8           0        2.080484   -0.688443   -0.062199
      2          8           0        2.056374    0.759975    0.001087
      3          1           0        2.886156   -0.992979    0.375186
      4          1           0        1.132876    1.042442    0.023911
      5         36           0       -1.030941   -0.017270    0.002494
 ---------------------------------------------------------------------
 Rotational constants (GHZ):     26.4400616      2.1624582      2.0019947
 Leave Link  202 at Sun Dec  8 09:08:51 2019, MaxMem=  268435456 cpu:       0.0
 (Enter /home/matheus/.gaussian/g09/l301.exe)
 Standard basis: Aug-CC-pVTZ (5D, 7F)
 Ernie: Thresh=  0.10000D-02 Tol=  0.10000D-05 Strict=F.
 Ernie:  38 primitive shells out of 205 were deleted.
 There are   197 symmetry adapted basis functions of A   symmetry.
 Integral buffers will be    131072 words long.
 Raffenetti 1 integral format.
 Two-electron integral symmetry is turned on.
   197 basis functions,   415 primitive gaussians,   229 cartesian basis functions
    27 alpha electrons       27 beta electrons
       nuclear repulsion energy       144.9503080274 Hartrees.
 IExCor=    0 DFT=F Ex=HF Corr=None ExCW=0 ScaHFX=  1.000000
 ScaDFX=  1.000000  1.000000  1.000000  1.000000 ScalE2=  1.000000  1.000000
 IRadAn=      5 IRanWt=     -1 IRanGd=            0 ICorTp=0
 NAtoms=    5 NActive=    5 NUniq=    5 SFac= 1.00D+00 NAtFMM=   60 NAOKFM=F Big=F
 Leave Link  301 at Sun Dec  8 09:08:51 2019, MaxMem=  268435456 cpu:       0.0
 (Enter /home/matheus/.gaussian/g09/l302.exe)
 NPDir=0 NMtPBC=     1 NCelOv=     1 NCel=       1 NClECP=     1 NCelD=      1
         NCelK=      1 NCelE2=     1 NClLst=     1 CellRange=     0.0.
 One-electron integrals computed using PRISM.
 NBasis=   197 RedAO= T  NBF=   197
 NBsUse=   197 1.00D-06 NBFU=   197
 Leave Link  302 at Sun Dec  8 09:08:51 2019, MaxMem=  268435456 cpu:       0.2
 (Enter /home/matheus/.gaussian/g09/l303.exe)
 DipDrv:  MaxL=1.
 Leave Link  303 at Sun Dec  8 09:08:51 2019, MaxMem=  268435456 cpu:       0.1
 (Enter /home/matheus/.gaussian/g09/l401.exe)
 Initial guess read from the read-write file.
 B after Tr=     0.000000    0.000000    0.000000
         Rot=    1.000000    0.000000    0.000000    0.000000 Ang=   0.00 deg.
 Guess basis will be translated and rotated to current coordinates.
 Initial guess orbital symmetries:
       Occupied  (A) (A) (A) (A) (A) (A) (A) (A) (A) (A) (A) (A)
                 (A) (A) (A) (A) (A) (A) (A) (A) (A) (A) (A) (A)
                 (A) (A) (A)
       Virtual   (A) (A) (A) (A) (A) (A) (A) (A) (A) (A) (A) (A)
                 (A) (A) (A) (A) (A) (A) (A) (A) (A) (A) (A) (A)
                 (A) (A) (A) (A) (A) (A) (A) (A) (A) (A) (A) (A)
                 (A) (A) (A) (A) (A) (A) (A) (A) (A) (A) (A) (A)
                 (A) (A) (A) (A) (A) (A) (A) (A) (A) (A) (A) (A)
                 (A) (A) (A) (A) (A) (A) (A) (A) (A) (A) (A) (A)
                 (A) (A) (A) (A) (A) (A) (A) (A) (A) (A) (A) (A)
                 (A) (A) (A) (A) (A) (A) (A) (A) (A) (A) (A) (A)
                 (A) (A) (A) (A) (A) (A) (A) (A) (A) (A) (A) (A)
                 (A) (A) (A) (A) (A) (A) (A) (A) (A) (A) (A) (A)
                 (A) (A) (A) (A) (A) (A) (A) (A) (A) (A) (A) (A)
                 (A) (A) (A) (A) (A) (A) (A) (A) (A) (A) (A) (A)
                 (A) (A) (A) (A) (A) (A) (A) (A) (A) (A) (A) (A)
                 (A) (A) (A) (A) (A) (A) (A) (A) (A) (A) (A) (A)
                 (A) (A)
 The electronic state of the initial guess is 1-A.
 Generating alternative initial guess.
 Harris functional with IExCor=  205 diagonalized for initial guess.
 ExpMin= 2.53D-02 ExpMax= 1.17D+07 ExpMxC= 1.33D+04 IAcc=3 IRadAn=         5 AccDes= 0.00D+00
 HarFok:  IExCor=  205 AccDes= 0.00D+00 IRadAn=         5 IDoV= 1
 ScaDFX=  1.000000  1.000000  1.000000  1.000000
 FoFCou: FMM=F IPFlag=           0 FMFlag=      100000 FMFlg1=           0
         NFxFlg=           0 DoJE=T BraDBF=F KetDBF=T FulRan=T
         Omega=  0.000000  0.000000  1.000000  0.000000  0.000000 ICntrl=     500 IOpCl=  0
         NMat0=    1 NMatS0=    1 NMatT0=    0 NMatD0=    1 NMtDS0=    0 NMtDT0=    0
         I1Cent=           4 NGrid=           0.
 Petite list used in FoFCou.
 Harris En= -2901.93140777852    
 Leave Link  401 at Sun Dec  8 09:08:51 2019, MaxMem=  268435456 cpu:       1.3
 (Enter /home/matheus/.gaussian/g09/l502.exe)
 Closed shell SCF:
 Requested convergence on RMS density matrix=1.00D-08 within 128 cycles.
 Requested convergence on MAX density matrix=1.00D-06.
 Requested convergence on             energy=1.00D-06.
 No special actions if energy rises.
 Using DIIS extrapolation, IDIIS=  1040.
 Integral symmetry usage will be decided dynamically.
 IEnd=      178489 IEndB=      178489 NGot=   268435456 MDV=   268326278
 LenX=   268326278 LenY=   268273396
 Fock matrices will be formed incrementally for  20 cycles.

 Cycle   1  Pass 0  IDiag  1:
 FoFCou: FMM=F IPFlag=           0 FMFlag=      100000 FMFlg1=           0
         NFxFlg=           0 DoJE=F BraDBF=F KetDBF=F FulRan=T
         Omega=  0.000000  0.000000  1.000000  0.000000  0.000000 ICntrl=       0 IOpCl=  0
         NMat0=    1 NMatS0=    1 NMatT0=    0 NMatD0=    1 NMtDS0=    0 NMtDT0=    0
         I1Cent=           0 NGrid=           0.
 Symmetry not used in FoFCou.
 E= -2902.88015128939    
 DIIS: error= 5.36D-04 at cycle   1 NSaved=   1.
 NSaved= 1 IEnMin= 1 EnMin= -2902.88015128939     IErMin= 1 ErrMin= 5.36D-04
 ErrMax= 5.36D-04 EMaxC= 1.00D-01 BMatC= 6.84D-05 BMatP= 6.84D-05
 IDIUse=3 WtCom= 9.95D-01 WtEn= 5.36D-03
 Coeff-Com:  0.100D+01
 Coeff-En:   0.100D+01
 Coeff:      0.100D+01
 Gap=     0.498 Goal=   None    Shift=    0.000
 RMSDP=7.05D-05 MaxDP=3.26D-03              OVMax= 3.04D-03

 Cycle   2  Pass 0  IDiag  1:
 RMSU=  4.99D-05    CP:  1.00D+00
 E= -2902.88023216922     Delta-E=       -0.000080879833 Rises=F Damp=F
 DIIS: error= 1.04D-04 at cycle   2 NSaved=   2.
 NSaved= 2 IEnMin= 2 EnMin= -2902.88023216922     IErMin= 2 ErrMin= 1.04D-04
 ErrMax= 1.04D-04 EMaxC= 1.00D-01 BMatC= 2.39D-06 BMatP= 6.84D-05
 IDIUse=3 WtCom= 9.99D-01 WtEn= 1.04D-03
 Coeff-Com: -0.781D-01 0.108D+01
 Coeff-En:   0.000D+00 0.100D+01
 Coeff:     -0.781D-01 0.108D+01
 Gap=     0.497 Goal=   None    Shift=    0.000
 RMSDP=1.37D-05 MaxDP=4.83D-04 DE=-8.09D-05 OVMax= 6.37D-04

 Cycle   3  Pass 0  IDiag  1:
 RMSU=  6.24D-06    CP:  1.00D+00  1.15D+00
 E= -2902.88023563006     Delta-E=       -0.000003460842 Rises=F Damp=F
 DIIS: error= 3.45D-05 at cycle   3 NSaved=   3.
 NSaved= 3 IEnMin= 3 EnMin= -2902.88023563006     IErMin= 3 ErrMin= 3.45D-05
 ErrMax= 3.45D-05 EMaxC= 1.00D-01 BMatC= 4.17D-07 BMatP= 2.39D-06
 IDIUse=1 WtCom= 1.00D+00 WtEn= 0.00D+00
 Coeff-Com: -0.448D-01 0.274D+00 0.771D+00
 Coeff:     -0.448D-01 0.274D+00 0.771D+00
 Gap=     0.497 Goal=   None    Shift=    0.000
 RMSDP=2.64D-06 MaxDP=7.29D-05 DE=-3.46D-06 OVMax= 1.70D-04

 Initial convergence to 1.0D-05 achieved.  Increase integral accuracy.
 Cycle   4  Pass 1  IDiag  1:
 E= -2902.88023601246     Delta-E=       -0.000000382400 Rises=F Damp=F
 DIIS: error= 1.41D-05 at cycle   1 NSaved=   1.
 NSaved= 1 IEnMin= 1 EnMin= -2902.88023601246     IErMin= 1 ErrMin= 1.41D-05
 ErrMax= 1.41D-05 EMaxC= 1.00D-01 BMatC= 4.76D-08 BMatP= 4.76D-08
 IDIUse=1 WtCom= 1.00D+00 WtEn= 0.00D+00
 Coeff-Com:  0.100D+01
 Coeff:      0.100D+01
 Gap=     0.497 Goal=   None    Shift=    0.000
 RMSDP=2.64D-06 MaxDP=7.29D-05 DE=-3.82D-07 OVMax= 1.01D-04

 Cycle   5  Pass 1  IDiag  1:
 RMSU=  9.41D-07    CP:  1.00D+00
 E= -2902.88023606926     Delta-E=       -0.000000056799 Rises=F Damp=F
 DIIS: error= 7.97D-06 at cycle   2 NSaved=   2.
 NSaved= 2 IEnMin= 2 EnMin= -2902.88023606926     IErMin= 2 ErrMin= 7.97D-06
 ErrMax= 7.97D-06 EMaxC= 1.00D-01 BMatC= 1.94D-08 BMatP= 4.76D-08
 IDIUse=1 WtCom= 1.00D+00 WtEn= 0.00D+00
 Coeff-Com:  0.344D+00 0.656D+00
 Coeff:      0.344D+00 0.656D+00
 Gap=     0.497 Goal=   None    Shift=    0.000
 RMSDP=4.18D-07 MaxDP=1.89D-05 DE=-5.68D-08 OVMax= 3.49D-05

 Cycle   6  Pass 1  IDiag  1:
 RMSU=  2.90D-07    CP:  1.00D+00  1.06D+00
 E= -2902.88023608703     Delta-E=       -0.000000017768 Rises=F Damp=F
 DIIS: error= 3.23D-06 at cycle   3 NSaved=   3.
 NSaved= 3 IEnMin= 3 EnMin= -2902.88023608703     IErMin= 3 ErrMin= 3.23D-06
 ErrMax= 3.23D-06 EMaxC= 1.00D-01 BMatC= 2.60D-09 BMatP= 1.94D-08
 IDIUse=1 WtCom= 1.00D+00 WtEn= 0.00D+00
 Coeff-Com: -0.353D+00-0.151D+00 0.150D+01
 Coeff:     -0.353D+00-0.151D+00 0.150D+01
 Gap=     0.497 Goal=   None    Shift=    0.000
 RMSDP=5.24D-07 MaxDP=1.40D-05 DE=-1.78D-08 OVMax= 4.41D-05

 Cycle   7  Pass 1  IDiag  1:
 RMSU=  1.08D-07    CP:  1.00D+00  1.41D+00  1.45D+00
 E= -2902.88023609375     Delta-E=       -0.000000006717 Rises=F Damp=F
 DIIS: error= 5.11D-07 at cycle   4 NSaved=   4.
 NSaved= 4 IEnMin= 4 EnMin= -2902.88023609375     IErMin= 4 ErrMin= 5.11D-07
 ErrMax= 5.11D-07 EMaxC= 1.00D-01 BMatC= 7.83D-11 BMatP= 2.60D-09
 IDIUse=1 WtCom= 1.00D+00 WtEn= 0.00D+00
 Coeff-Com: -0.555D-01-0.293D-01 0.168D+00 0.916D+00
 Coeff:     -0.555D-01-0.293D-01 0.168D+00 0.916D+00
 Gap=     0.497 Goal=   None    Shift=    0.000
 RMSDP=5.66D-08 MaxDP=1.72D-06 DE=-6.72D-09 OVMax= 4.58D-06

 Cycle   8  Pass 1  IDiag  1:
 RMSU=  2.36D-08    CP:  1.00D+00  1.42D+00  1.48D+00  1.28D+00
 E= -2902.88023609389     Delta-E=       -0.000000000142 Rises=F Damp=F
 DIIS: error= 2.17D-07 at cycle   5 NSaved=   5.
 NSaved= 5 IEnMin= 5 EnMin= -2902.88023609389     IErMin= 5 ErrMin= 2.17D-07
 ErrMax= 2.17D-07 EMaxC= 1.00D-01 BMatC= 1.59D-11 BMatP= 7.83D-11
 IDIUse=1 WtCom= 1.00D+00 WtEn= 0.00D+00
 Coeff-Com:  0.653D-01 0.357D-01-0.291D+00-0.583D-02 0.120D+01
 Coeff:      0.653D-01 0.357D-01-0.291D+00-0.583D-02 0.120D+01
 Gap=     0.497 Goal=   None    Shift=    0.000
 RMSDP=3.65D-08 MaxDP=9.80D-07 DE=-1.42D-10 OVMax= 2.85D-06

 Cycle   9  Pass 1  IDiag  1:
 RMSU=  1.03D-08    CP:  1.00D+00  1.42D+00  1.48D+00  1.49D+00  1.36D+00
 E= -2902.88023609393     Delta-E=       -0.000000000039 Rises=F Damp=F
 DIIS: error= 8.80D-08 at cycle   6 NSaved=   6.
 NSaved= 6 IEnMin= 6 EnMin= -2902.88023609393     IErMin= 6 ErrMin= 8.80D-08
 ErrMax= 8.80D-08 EMaxC= 1.00D-01 BMatC= 1.26D-12 BMatP= 1.59D-11
 IDIUse=1 WtCom= 1.00D+00 WtEn= 0.00D+00
 Coeff-Com: -0.401D-02 0.139D-03 0.199D-01-0.638D-01-0.127D+00 0.118D+01
 Coeff:     -0.401D-02 0.139D-03 0.199D-01-0.638D-01-0.127D+00 0.118D+01
 Gap=     0.497 Goal=   None    Shift=    0.000
 RMSDP=9.20D-09 MaxDP=2.12D-07 DE=-3.91D-11 OVMax= 1.07D-06

 SCF Done:  E(RHF) =  -2902.88023609     A.U. after    9 cycles
             Convg  =    0.9201D-08             -V/T =  2.0001
 KE= 2.902607197086D+03 PE=-7.230488105266D+03 EE= 1.280050364058D+03
 Leave Link  502 at Sun Dec  8 09:09:26 2019, MaxMem=  268435456 cpu:      68.8
 (Enter /home/matheus/.gaussian/g09/l801.exe)
 Windowed orbitals will be sorted by symmetry type.
 ExpMin= 2.53D-02 ExpMax= 1.17D+07 ExpMxC= 1.33D+04 IAcc=3 IRadAn=         5 AccDes= 0.00D+00
 HarFok:  IExCor=  205 AccDes= 0.00D+00 IRadAn=         5 IDoV=-2
 ScaDFX=  1.000000  1.000000  1.000000  1.000000
 Largest valence mixing into a core orbital is  1.44D-04
 Largest core mixing into a valence orbital is  2.59D-05
 Range of M.O.s used for correlation:    12   197
 NBasis=   197 NAE=    27 NBE=    27 NFC=    11 NFV=     0
 NROrb=    186 NOA=    16 NOB=    16 NVA=   170 NVB=   170

 **** Warning!!: The largest alpha MO coefficient is  0.12349267D+02

 Leave Link  801 at Sun Dec  8 09:09:26 2019, MaxMem=  268435456 cpu:       0.2
 (Enter /home/matheus/.gaussian/g09/l804.exe)
 Closed-shell transformation, MDV=   268435456 ITran=4 ISComp=1.
 Semi-Direct transformation.
 ModeAB=           2 MOrb=            16 LenV=     267328074
 LASXX=     48528660 LTotXX=    48528660 LenRXX=    48528660
 LTotAB=    49298776 MaxLAS=    78372960 LenRXY=    78372960
 NonZer=    97057320 LenScr=   146313216 LnRSAI=           0
 LnScr1=           0 LExtra=           0 Total=    273214836
 MaxDsk=          -1 SrtSym=           F ITran=            4
 DoSDTr:  NPSUse=  2
 JobTyp=0 Pass  1:  I=   1 to  16.
 (rs|ai) integrals will be sorted in core.
 Complete sort for first half transformation.
 First half transformation complete.
 Begin second half transformation for I=  10.
 Begin second half transformation for I=  10.
 Complete sort for second half transformation.
 Second half transformation complete.
 SymMOI:  orbitals are not symmetric.
 Spin components of T(2) and E(2):
     alpha-alpha T2 =       0.2585498734D-01 E2=     -0.9964780017D-01
     alpha-beta  T2 =       0.1417166678D+00 E2=     -0.5557858445D+00
     beta-beta   T2 =       0.2585498734D-01 E2=     -0.9964780017D-01
 ANorm=    0.1092440681D+01
 E2 =    -0.7550814448D+00 EUMP2 =    -0.29036353175387D+04
 Leave Link  804 at Sun Dec  8 09:09:50 2019, MaxMem=  268435456 cpu:      47.8
 (Enter /home/matheus/.gaussian/g09/l913.exe)
 CIDS:  MDV=   268435456.
 Frozen-core window:  NFC=  11 NFV=   0.
 IFCWin=0 IBDFC=1 NFBD=     0     0 NFCmp=     0     0 NFFFC=     0     0
 Using DD3R+UMP44R for 1st iteration, S=T.
 Using DD4RQ for 2nd and later iterations.
 Would need an additional       431206676 words for in-memory AO integral storage.
 MP4(SDTQ)
 =========
 DD1Dir will call FoFDir   1 times, MxPair=       272
 NAB=   136 NAA=     0 NBB=     0 NumPrc=  2.
 Integrals replicated using symmetry in FoFDir.
 MinBra= 0 MaxBra= 3 Meth= 1.
 IRaf=       0 NMat= 272 IRICut=     340 DoRegI=T DoRafI=T ISym2E= 2 JSym2E=2.
 MP4(D)= -0.14952128D-01
 MP4(S)= -0.63888464D-02
 MP4(R+Q)=  0.15294020D-01
 T4(AAA)= -0.10298093D-02
 T4(AAB)= -0.14083229D-01
 Time for triples=     1327.71 seconds.
 MP4(T)=   -0.30226077D-01
 E3=       -0.11465029D-01        EUMP3=      -0.29036467826D+04
 E4(DQ)=    0.34189201D-03        UMP4(DQ)=   -0.29036464407D+04
 E4(SDQ)=  -0.60469543D-02        UMP4(SDQ)=  -0.29036528295D+04
 E4(SDTQ)= -0.36273031D-01        UMP4(SDTQ)= -0.29036830556D+04
 VARIATIONAL ENERGIES WITH THE FIRST-ORDER WAVEFUNCTION:
 E(VAR1)=  -0.29035225433D+04     E(CISD,4)=  -0.29035220707D+04
 Largest amplitude= 2.64D-02
 Leave Link  913 at Sun Dec  8 09:21:45 2019, MaxMem=  268435456 cpu:    1425.6
 (Enter /home/matheus/.gaussian/g09/l108.exe)
 Variable Step   Value    
 -------- ---- -----------
     1       2    6.047124
 Leave Link  108 at Sun Dec  8 09:21:45 2019, MaxMem=  268435456 cpu:       0.0
 (Enter /home/matheus/.gaussian/g09/l202.exe)
 ---------------------------------------------------------------------------------------------------
                            Z-MATRIX (ANGSTROMS AND DEGREES)
   CD    Cent   Atom    N1       Length/X        N2       Alpha/Y        N3        Beta/Z          J
 ---------------------------------------------------------------------------------------------------
      1      1  O        0   0.000000          0.000000          0.725000
      2      2  O        0   0.000000          0.000000         -0.725000
      3      3  H        0   0.459360         -0.795635          1.023510
      4      4  H        0   0.000000          0.918721         -1.023510
      5      5  Kr       0   0.000000          3.200000          0.000000
 ---------------------------------------------------------------------------------------------------
                         Z-Matrix orientation:                         
 ---------------------------------------------------------------------
 Center     Atomic      Atomic             Coordinates (Angstroms)
 Number     Number       Type             X           Y           Z
 ---------------------------------------------------------------------
      1          8           0        0.000000    0.000000    0.725000
      2          8           0        0.000000    0.000000   -0.725000
      3          1           0        0.459360   -0.795635    1.023510
      4          1           0        0.000000    0.918721   -1.023510
      5         36           0        0.000000    3.200000    0.000000
 ---------------------------------------------------------------------
                    Distance matrix (angstroms):
                    1          2          3          4          5
     1  O    0.000000
     2  O    1.450000   0.000000
     3  H    0.966000   1.975180   0.000000
     4  H    1.975180   0.966000   2.709303   0.000000
     5  Kr   3.281101   3.281101   4.150143   2.500362   0.000000
 Stoichiometry    H2KrO2
 Framework group  C1[X(H2KrO2)]
 Deg. of freedom     9
 Full point group                 C1      NOp   1
 RotChk:  IX=0 Diff= 1.70D-03
 Largest Abelian subgroup         C1      NOp   1
 Largest concise Abelian subgroup C1      NOp   1
                         Standard orientation:                         
 ---------------------------------------------------------------------
 Center     Atomic      Atomic             Coordinates (Angstroms)
 Number     Number       Type             X           Y           Z
 ---------------------------------------------------------------------
      1          8           0        2.146386   -0.689716   -0.062098
      2          8           0        2.123882    0.758723    0.001289
      3          1           0        2.951539   -0.995193    0.375588
      4          1           0        1.200695    1.042229    0.023763
      5         36           0       -1.064288   -0.016642    0.002420
 ---------------------------------------------------------------------
 Rotational constants (GHZ):     26.4385333      2.0301857      1.8881011
 Leave Link  202 at Sun Dec  8 09:21:45 2019, MaxMem=  268435456 cpu:       0.0
 (Enter /home/matheus/.gaussian/g09/l301.exe)
 Standard basis: Aug-CC-pVTZ (5D, 7F)
 Ernie: Thresh=  0.10000D-02 Tol=  0.10000D-05 Strict=F.
 Ernie:  38 primitive shells out of 205 were deleted.
 There are   197 symmetry adapted basis functions of A   symmetry.
 Integral buffers will be    131072 words long.
 Raffenetti 1 integral format.
 Two-electron integral symmetry is turned on.
   197 basis functions,   415 primitive gaussians,   229 cartesian basis functions
    27 alpha electrons       27 beta electrons
       nuclear repulsion energy       141.7103960537 Hartrees.
 IExCor=    0 DFT=F Ex=HF Corr=None ExCW=0 ScaHFX=  1.000000
 ScaDFX=  1.000000  1.000000  1.000000  1.000000 ScalE2=  1.000000  1.000000
 IRadAn=      5 IRanWt=     -1 IRanGd=            0 ICorTp=0
 NAtoms=    5 NActive=    5 NUniq=    5 SFac= 1.00D+00 NAtFMM=   60 NAOKFM=F Big=F
 Leave Link  301 at Sun Dec  8 09:21:45 2019, MaxMem=  268435456 cpu:       0.1
 (Enter /home/matheus/.gaussian/g09/l302.exe)
 NPDir=0 NMtPBC=     1 NCelOv=     1 NCel=       1 NClECP=     1 NCelD=      1
         NCelK=      1 NCelE2=     1 NClLst=     1 CellRange=     0.0.
 One-electron integrals computed using PRISM.
 NBasis=   197 RedAO= T  NBF=   197
 NBsUse=   197 1.00D-06 NBFU=   197
 Leave Link  302 at Sun Dec  8 09:21:45 2019, MaxMem=  268435456 cpu:       0.2
 (Enter /home/matheus/.gaussian/g09/l303.exe)
 DipDrv:  MaxL=1.
 Leave Link  303 at Sun Dec  8 09:21:45 2019, MaxMem=  268435456 cpu:       0.1
 (Enter /home/matheus/.gaussian/g09/l401.exe)
 Initial guess read from the read-write file.
 B after Tr=     0.000000    0.000000    0.000000
         Rot=    1.000000    0.000000    0.000000    0.000000 Ang=   0.00 deg.
 Guess basis will be translated and rotated to current coordinates.
 Initial guess orbital symmetries:
       Occupied  (A) (A) (A) (A) (A) (A) (A) (A) (A) (A) (A) (A)
                 (A) (A) (A) (A) (A) (A) (A) (A) (A) (A) (A) (A)
                 (A) (A) (A)
       Virtual   (A) (A) (A) (A) (A) (A) (A) (A) (A) (A) (A) (A)
                 (A) (A) (A) (A) (A) (A) (A) (A) (A) (A) (A) (A)
                 (A) (A) (A) (A) (A) (A) (A) (A) (A) (A) (A) (A)
                 (A) (A) (A) (A) (A) (A) (A) (A) (A) (A) (A) (A)
                 (A) (A) (A) (A) (A) (A) (A) (A) (A) (A) (A) (A)
                 (A) (A) (A) (A) (A) (A) (A) (A) (A) (A) (A) (A)
                 (A) (A) (A) (A) (A) (A) (A) (A) (A) (A) (A) (A)
                 (A) (A) (A) (A) (A) (A) (A) (A) (A) (A) (A) (A)
                 (A) (A) (A) (A) (A) (A) (A) (A) (A) (A) (A) (A)
                 (A) (A) (A) (A) (A) (A) (A) (A) (A) (A) (A) (A)
                 (A) (A) (A) (A) (A) (A) (A) (A) (A) (A) (A) (A)
                 (A) (A) (A) (A) (A) (A) (A) (A) (A) (A) (A) (A)
                 (A) (A) (A) (A) (A) (A) (A) (A) (A) (A) (A) (A)
                 (A) (A) (A) (A) (A) (A) (A) (A) (A) (A) (A) (A)
                 (A) (A)
 The electronic state of the initial guess is 1-A.
 Generating alternative initial guess.
 Harris functional with IExCor=  205 diagonalized for initial guess.
 ExpMin= 2.53D-02 ExpMax= 1.17D+07 ExpMxC= 1.33D+04 IAcc=3 IRadAn=         5 AccDes= 0.00D+00
 HarFok:  IExCor=  205 AccDes= 0.00D+00 IRadAn=         5 IDoV= 1
 ScaDFX=  1.000000  1.000000  1.000000  1.000000
 FoFCou: FMM=F IPFlag=           0 FMFlag=      100000 FMFlg1=           0
         NFxFlg=           0 DoJE=T BraDBF=F KetDBF=T FulRan=T
         Omega=  0.000000  0.000000  1.000000  0.000000  0.000000 ICntrl=     500 IOpCl=  0
         NMat0=    1 NMatS0=    1 NMatT0=    0 NMatD0=    1 NMtDS0=    0 NMtDT0=    0
         I1Cent=           4 NGrid=           0.
 Petite list used in FoFCou.
 Harris En= -2901.93204281014    
 Leave Link  401 at Sun Dec  8 09:21:46 2019, MaxMem=  268435456 cpu:       1.3
 (Enter /home/matheus/.gaussian/g09/l502.exe)
 Closed shell SCF:
 Requested convergence on RMS density matrix=1.00D-08 within 128 cycles.
 Requested convergence on MAX density matrix=1.00D-06.
 Requested convergence on             energy=1.00D-06.
 No special actions if energy rises.
 Using DIIS extrapolation, IDIIS=  1040.
 Integral symmetry usage will be decided dynamically.
 IEnd=      178489 IEndB=      178489 NGot=   268435456 MDV=   268326278
 LenX=   268326278 LenY=   268273396
 Fock matrices will be formed incrementally for  20 cycles.

 Cycle   1  Pass 0  IDiag  1:
 FoFCou: FMM=F IPFlag=           0 FMFlag=      100000 FMFlg1=           0
         NFxFlg=           0 DoJE=F BraDBF=F KetDBF=F FulRan=T
         Omega=  0.000000  0.000000  1.000000  0.000000  0.000000 ICntrl=       0 IOpCl=  0
         NMat0=    1 NMatS0=    1 NMatT0=    0 NMatD0=    1 NMtDS0=    0 NMtDT0=    0
         I1Cent=           0 NGrid=           0.
 Symmetry not used in FoFCou.
 E= -2902.88188538737    
 DIIS: error= 4.65D-04 at cycle   1 NSaved=   1.
 NSaved= 1 IEnMin= 1 EnMin= -2902.88188538737     IErMin= 1 ErrMin= 4.65D-04
 ErrMax= 4.65D-04 EMaxC= 1.00D-01 BMatC= 5.13D-05 BMatP= 5.13D-05
 IDIUse=3 WtCom= 9.95D-01 WtEn= 4.65D-03
 Coeff-Com:  0.100D+01
 Coeff-En:   0.100D+01
 Coeff:      0.100D+01
 Gap=     0.499 Goal=   None    Shift=    0.000
 RMSDP=6.30D-05 MaxDP=2.41D-03              OVMax= 2.75D-03

 Cycle   2  Pass 0  IDiag  1:
 RMSU=  4.45D-05    CP:  1.00D+00
 E= -2902.88194631904     Delta-E=       -0.000060931677 Rises=F Damp=F
 DIIS: error= 9.10D-05 at cycle   2 NSaved=   2.
 NSaved= 2 IEnMin= 2 EnMin= -2902.88194631904     IErMin= 2 ErrMin= 9.10D-05
 ErrMax= 9.10D-05 EMaxC= 1.00D-01 BMatC= 1.65D-06 BMatP= 5.13D-05
 IDIUse=1 WtCom= 1.00D+00 WtEn= 0.00D+00
 Coeff-Com: -0.832D-01 0.108D+01
 Coeff:     -0.832D-01 0.108D+01
 Gap=     0.498 Goal=   None    Shift=    0.000
 RMSDP=1.18D-05 MaxDP=3.98D-04 DE=-6.09D-05 OVMax= 5.38D-04

 Cycle   3  Pass 0  IDiag  1:
 RMSU=  5.27D-06    CP:  1.00D+00  1.15D+00
 E= -2902.88194884777     Delta-E=       -0.000002528723 Rises=F Damp=F
 DIIS: error= 2.92D-05 at cycle   3 NSaved=   3.
 NSaved= 3 IEnMin= 3 EnMin= -2902.88194884777     IErMin= 3 ErrMin= 2.92D-05
 ErrMax= 2.92D-05 EMaxC= 1.00D-01 BMatC= 2.57D-07 BMatP= 1.65D-06
 IDIUse=1 WtCom= 1.00D+00 WtEn= 0.00D+00
 Coeff-Com: -0.414D-01 0.255D+00 0.786D+00
 Coeff:     -0.414D-01 0.255D+00 0.786D+00
 Gap=     0.498 Goal=   None    Shift=    0.000
 RMSDP=2.25D-06 MaxDP=6.94D-05 DE=-2.53D-06 OVMax= 1.44D-04

 Initial convergence to 1.0D-05 achieved.  Increase integral accuracy.
 Cycle   4  Pass 1  IDiag  1:
 E= -2902.88194909785     Delta-E=       -0.000000250087 Rises=F Damp=F
 DIIS: error= 1.09D-05 at cycle   1 NSaved=   1.
 NSaved= 1 IEnMin= 1 EnMin= -2902.88194909785     IErMin= 1 ErrMin= 1.09D-05
 ErrMax= 1.09D-05 EMaxC= 1.00D-01 BMatC= 3.37D-08 BMatP= 3.37D-08
 IDIUse=1 WtCom= 1.00D+00 WtEn= 0.00D+00
 Coeff-Com:  0.100D+01
 Coeff:      0.100D+01
 Gap=     0.498 Goal=   None    Shift=    0.000
 RMSDP=2.25D-06 MaxDP=6.94D-05 DE=-2.50D-07 OVMax= 8.59D-05

 Cycle   5  Pass 1  IDiag  1:
 RMSU=  8.15D-07    CP:  1.00D+00
 E= -2902.88194913838     Delta-E=       -0.000000040523 Rises=F Damp=F
 DIIS: error= 6.52D-06 at cycle   2 NSaved=   2.
 NSaved= 2 IEnMin= 2 EnMin= -2902.88194913838     IErMin= 2 ErrMin= 6.52D-06
 ErrMax= 6.52D-06 EMaxC= 1.00D-01 BMatC= 1.38D-08 BMatP= 3.37D-08
 IDIUse=1 WtCom= 1.00D+00 WtEn= 0.00D+00
 Coeff-Com:  0.345D+00 0.655D+00
 Coeff:      0.345D+00 0.655D+00
 Gap=     0.498 Goal=   None    Shift=    0.000
 RMSDP=3.54D-07 MaxDP=1.58D-05 DE=-4.05D-08 OVMax= 2.96D-05

 Cycle   6  Pass 1  IDiag  1:
 RMSU=  2.44D-07    CP:  1.00D+00  1.07D+00
 E= -2902.88194915105     Delta-E=       -0.000000012674 Rises=F Damp=F
 DIIS: error= 2.54D-06 at cycle   3 NSaved=   3.
 NSaved= 3 IEnMin= 3 EnMin= -2902.88194915105     IErMin= 3 ErrMin= 2.54D-06
 ErrMax= 2.54D-06 EMaxC= 1.00D-01 BMatC= 1.84D-09 BMatP= 1.38D-08
 IDIUse=1 WtCom= 1.00D+00 WtEn= 0.00D+00
 Coeff-Com: -0.354D+00-0.156D+00 0.151D+01
 Coeff:     -0.354D+00-0.156D+00 0.151D+01
 Gap=     0.498 Goal=   None    Shift=    0.000
 RMSDP=4.47D-07 MaxDP=1.29D-05 DE=-1.27D-08 OVMax= 3.79D-05

 Cycle   7  Pass 1  IDiag  1:
 RMSU=  9.39D-08    CP:  1.00D+00  1.41D+00  1.45D+00
 E= -2902.88194915582     Delta-E=       -0.000000004764 Rises=F Damp=F
 DIIS: error= 4.44D-07 at cycle   4 NSaved=   4.
 NSaved= 4 IEnMin= 4 EnMin= -2902.88194915582     IErMin= 4 ErrMin= 4.44D-07
 ErrMax= 4.44D-07 EMaxC= 1.00D-01 BMatC= 5.82D-11 BMatP= 1.84D-09
 IDIUse=1 WtCom= 1.00D+00 WtEn= 0.00D+00
 Coeff-Com: -0.618D-01-0.331D-01 0.197D+00 0.898D+00
 Coeff:     -0.618D-01-0.331D-01 0.197D+00 0.898D+00
 Gap=     0.498 Goal=   None    Shift=    0.000
 RMSDP=4.80D-08 MaxDP=1.51D-06 DE=-4.76D-09 OVMax= 3.89D-06

 Cycle   8  Pass 1  IDiag  1:
 RMSU=  2.01D-08    CP:  1.00D+00  1.42D+00  1.48D+00  1.28D+00
 E= -2902.88194915592     Delta-E=       -0.000000000110 Rises=F Damp=F
 DIIS: error= 1.80D-07 at cycle   5 NSaved=   5.
 NSaved= 5 IEnMin= 5 EnMin= -2902.88194915592     IErMin= 5 ErrMin= 1.80D-07
 ErrMax= 1.80D-07 EMaxC= 1.00D-01 BMatC= 1.19D-11 BMatP= 5.82D-11
 IDIUse=1 WtCom= 1.00D+00 WtEn= 0.00D+00
 Coeff-Com:  0.713D-01 0.396D-01-0.316D+00-0.132D-01 0.122D+01
 Coeff:      0.713D-01 0.396D-01-0.316D+00-0.132D-01 0.122D+01
 Gap=     0.498 Goal=   None    Shift=    0.000
 RMSDP=3.32D-08 MaxDP=1.01D-06 DE=-1.10D-10 OVMax= 2.52D-06

 Cycle   9  Pass 1  IDiag  1:
 RMSU=  9.06D-09    CP:  1.00D+00  1.41D+00  1.48D+00  1.49D+00  1.36D+00
 E= -2902.88194915595     Delta-E=       -0.000000000029 Rises=F Damp=F
 DIIS: error= 7.61D-08 at cycle   6 NSaved=   6.
 NSaved= 6 IEnMin= 6 EnMin= -2902.88194915595     IErMin= 6 ErrMin= 7.61D-08
 ErrMax= 7.61D-08 EMaxC= 1.00D-01 BMatC= 8.71D-13 BMatP= 1.19D-11
 IDIUse=1 WtCom= 1.00D+00 WtEn= 0.00D+00
 Coeff-Com: -0.155D-01-0.616D-02 0.696D-01-0.526D-01-0.322D+00 0.133D+01
 Coeff:     -0.155D-01-0.616D-02 0.696D-01-0.526D-01-0.322D+00 0.133D+01
 Gap=     0.498 Goal=   None    Shift=    0.000
 RMSDP=8.99D-09 MaxDP=2.09D-07 DE=-2.91D-11 OVMax= 9.73D-07

 SCF Done:  E(RHF) =  -2902.88194916     A.U. after    9 cycles
             Convg  =    0.8985D-08             -V/T =  2.0001
 KE= 2.902593984614D+03 PE=-7.224000861876D+03 EE= 1.276814532052D+03
 Leave Link  502 at Sun Dec  8 09:22:20 2019, MaxMem=  268435456 cpu:      67.8
 (Enter /home/matheus/.gaussian/g09/l801.exe)
 Windowed orbitals will be sorted by symmetry type.
 ExpMin= 2.53D-02 ExpMax= 1.17D+07 ExpMxC= 1.33D+04 IAcc=3 IRadAn=         5 AccDes= 0.00D+00
 HarFok:  IExCor=  205 AccDes= 0.00D+00 IRadAn=         5 IDoV=-2
 ScaDFX=  1.000000  1.000000  1.000000  1.000000
 DSYEVD returned Info=          93 IAlg= 4 N=    46 NDim=    46 NE2=     4547561 trying DSYEV.
 DSYEVD returned Info=         119 IAlg= 4 N=    59 NDim=    59 NE2=     4547561 trying DSYEV.
 Largest valence mixing into a core orbital is  1.44D-04
 Largest core mixing into a valence orbital is  2.60D-05
 Range of M.O.s used for correlation:    12   197
 NBasis=   197 NAE=    27 NBE=    27 NFC=    11 NFV=     0
 NROrb=    186 NOA=    16 NOB=    16 NVA=   170 NVB=   170

 **** Warning!!: The largest alpha MO coefficient is  0.12562599D+02

 Leave Link  801 at Sun Dec  8 09:22:20 2019, MaxMem=  268435456 cpu:       0.3
 (Enter /home/matheus/.gaussian/g09/l804.exe)
 Closed-shell transformation, MDV=   268435456 ITran=4 ISComp=1.
 Semi-Direct transformation.
 ModeAB=           4 MOrb=            16 LenV=     267329038
 LASXX=     48528660 LTotXX=    48528660 LenRXX=    97827436
 LTotAB=    49298776 MaxLAS=    78349152 LenRXY=           0
 NonZer=   146356096 LenScr=   220395520 LnRSAI=    78349152
 LnScr1=   118292480 LExtra=           0 Total=    514864588
 MaxDsk=          -1 SrtSym=           T ITran=            4
 DoSDTr:  NPSUse=  2
 JobTyp=0 Pass  1:  I=   1 to  16.
 (rs|ai) integrals will be sorted in core.
 Complete sort for first half transformation.
 First half transformation complete.
 Begin second half transformation for I=  10.
 Complete sort for second half transformation.
 Second half transformation complete.
 SymMOI:  orbitals are not symmetric.
 Spin components of T(2) and E(2):
     alpha-alpha T2 =       0.2579143870D-01 E2=     -0.9943215695D-01
     alpha-beta  T2 =       0.1416282081D+00 E2=     -0.5552867767D+00
     beta-beta   T2 =       0.2579143870D-01 E2=     -0.9943215695D-01
 ANorm=    0.1092342019D+01
 E2 =    -0.7541510906D+00 EUMP2 =    -0.29036361002465D+04
 Leave Link  804 at Sun Dec  8 09:22:44 2019, MaxMem=  268435456 cpu:      46.6
 (Enter /home/matheus/.gaussian/g09/l913.exe)
 CIDS:  MDV=   268435456.
 Frozen-core window:  NFC=  11 NFV=   0.
 IFCWin=0 IBDFC=1 NFBD=     0     0 NFCmp=     0     0 NFFFC=     0     0
 Using DD3R+UMP44R for 1st iteration, S=T.
 Using DD4RQ for 2nd and later iterations.
 Would need an additional       431206676 words for in-memory AO integral storage.
 MP4(SDTQ)
 =========
 DD1Dir will call FoFDir   1 times, MxPair=       272
 NAB=   136 NAA=     0 NBB=     0 NumPrc=  2.
 Integrals replicated using symmetry in FoFDir.
 MinBra= 0 MaxBra= 3 Meth= 1.
 IRaf=       0 NMat= 272 IRICut=     340 DoRegI=T DoRafI=T ISym2E= 2 JSym2E=2.
 MP4(D)= -0.14950296D-01
 MP4(S)= -0.63654237D-02
 MP4(R+Q)=  0.15235344D-01
 T4(AAA)= -0.10216629D-02
 T4(AAB)= -0.14029891D-01
 Time for triples=     1247.30 seconds.
 MP4(T)=   -0.30103109D-01
 E3=       -0.11591244D-01        EUMP3=      -0.29036476915D+04
 E4(DQ)=    0.28504863D-03        UMP4(DQ)=   -0.29036474064D+04
 E4(SDQ)=  -0.60803751D-02        UMP4(SDQ)=  -0.29036537719D+04
 E4(SDTQ)= -0.36183484D-01        UMP4(SDTQ)= -0.29036838750D+04
 VARIATIONAL ENERGIES WITH THE FIRST-ORDER WAVEFUNCTION:
 E(VAR1)=  -0.29035236984D+04     E(CISD,4)=  -0.29035232969D+04
 Largest amplitude= 2.67D-02
 Leave Link  913 at Sun Dec  8 09:34:01 2019, MaxMem=  268435456 cpu:    1343.6
 (Enter /home/matheus/.gaussian/g09/l108.exe)
 Variable Step   Value    
 -------- ---- -----------
     1       3    6.236096
 Leave Link  108 at Sun Dec  8 09:34:01 2019, MaxMem=  268435456 cpu:       0.0
 (Enter /home/matheus/.gaussian/g09/l202.exe)
 ---------------------------------------------------------------------------------------------------
                            Z-MATRIX (ANGSTROMS AND DEGREES)
   CD    Cent   Atom    N1       Length/X        N2       Alpha/Y        N3        Beta/Z          J
 ---------------------------------------------------------------------------------------------------
      1      1  O        0   0.000000          0.000000          0.725000
      2      2  O        0   0.000000          0.000000         -0.725000
      3      3  H        0   0.459360         -0.795635          1.023510
      4      4  H        0   0.000000          0.918721         -1.023510
      5      5  Kr       0   0.000000          3.300000          0.000000
 ---------------------------------------------------------------------------------------------------
                         Z-Matrix orientation:                         
 ---------------------------------------------------------------------
 Center     Atomic      Atomic             Coordinates (Angstroms)
 Number     Number       Type             X           Y           Z
 ---------------------------------------------------------------------
      1          8           0        0.000000    0.000000    0.725000
      2          8           0        0.000000    0.000000   -0.725000
      3          1           0        0.459360   -0.795635    1.023510
      4          1           0        0.000000    0.918721   -1.023510
      5         36           0        0.000000    3.300000    0.000000
 ---------------------------------------------------------------------
                    Distance matrix (angstroms):
                    1          2          3          4          5
     1  O    0.000000
     2  O    1.450000   0.000000
     3  H    0.966000   1.975180   0.000000
     4  H    1.975180   0.966000   2.709303   0.000000
     5  Kr   3.378702   3.378702   4.246506   2.591923   0.000000
 Stoichiometry    H2KrO2
 Framework group  C1[X(H2KrO2)]
 Deg. of freedom     9
 Full point group                 C1      NOp   1
 RotChk:  IX=0 Diff= 1.53D-03
 Largest Abelian subgroup         C1      NOp   1
 Largest concise Abelian subgroup C1      NOp   1
                         Standard orientation:                         
 ---------------------------------------------------------------------
 Center     Atomic      Atomic             Coordinates (Angstroms)
 Number     Number       Type             X           Y           Z
 ---------------------------------------------------------------------
      1          8           0        2.212364   -0.690893   -0.062002
      2          8           0        2.191307    0.757563    0.001479
      3          1           0        3.017042   -0.997218    0.375965
      4          1           0        1.268399    1.042005    0.023627
      5         36           0       -1.097634   -0.016060    0.002350
 ---------------------------------------------------------------------
 Rotational constants (GHZ):     26.4371498      1.9096627      1.7834177
 Leave Link  202 at Sun Dec  8 09:34:01 2019, MaxMem=  268435456 cpu:       0.0
 (Enter /home/matheus/.gaussian/g09/l301.exe)
 Standard basis: Aug-CC-pVTZ (5D, 7F)
 Ernie: Thresh=  0.10000D-02 Tol=  0.10000D-05 Strict=F.
 Ernie:  38 primitive shells out of 205 were deleted.
 There are   197 symmetry adapted basis functions of A   symmetry.
 Integral buffers will be    131072 words long.
 Raffenetti 1 integral format.
 Two-electron integral symmetry is turned on.
   197 basis functions,   415 primitive gaussians,   229 cartesian basis functions
    27 alpha electrons       27 beta electrons
       nuclear repulsion energy       138.6535561660 Hartrees.
 IExCor=    0 DFT=F Ex=HF Corr=None ExCW=0 ScaHFX=  1.000000
 ScaDFX=  1.000000  1.000000  1.000000  1.000000 ScalE2=  1.000000  1.000000
 IRadAn=      5 IRanWt=     -1 IRanGd=            0 ICorTp=0
 NAtoms=    5 NActive=    5 NUniq=    5 SFac= 1.00D+00 NAtFMM=   60 NAOKFM=F Big=F
 Leave Link  301 at Sun Dec  8 09:34:01 2019, MaxMem=  268435456 cpu:       0.0
 (Enter /home/matheus/.gaussian/g09/l302.exe)
 NPDir=0 NMtPBC=     1 NCelOv=     1 NCel=       1 NClECP=     1 NCelD=      1
         NCelK=      1 NCelE2=     1 NClLst=     1 CellRange=     0.0.
 One-electron integrals computed using PRISM.
 NBasis=   197 RedAO= T  NBF=   197
 NBsUse=   197 1.00D-06 NBFU=   197
 Leave Link  302 at Sun Dec  8 09:34:01 2019, MaxMem=  268435456 cpu:       0.2
 (Enter /home/matheus/.gaussian/g09/l303.exe)
 DipDrv:  MaxL=1.
 Leave Link  303 at Sun Dec  8 09:34:01 2019, MaxMem=  268435456 cpu:       0.0
 (Enter /home/matheus/.gaussian/g09/l401.exe)
 Initial guess read from the read-write file.
 B after Tr=     0.000000    0.000000    0.000000
         Rot=    1.000000    0.000000    0.000000    0.000000 Ang=   0.00 deg.
 Guess basis will be translated and rotated to current coordinates.
 Initial guess orbital symmetries:
       Occupied  (A) (A) (A) (A) (A) (A) (A) (A) (A) (A) (A) (A)
                 (A) (A) (A) (A) (A) (A) (A) (A) (A) (A) (A) (A)
                 (A) (A) (A)
       Virtual   (A) (A) (A) (A) (A) (A) (A) (A) (A) (A) (A) (A)
                 (A) (A) (A) (A) (A) (A) (A) (A) (A) (A) (A) (A)
                 (A) (A) (A) (A) (A) (A) (A) (A) (A) (A) (A) (A)
                 (A) (A) (A) (A) (A) (A) (A) (A) (A) (A) (A) (A)
                 (A) (A) (A) (A) (A) (A) (A) (A) (A) (A) (A) (A)
                 (A) (A) (A) (A) (A) (A) (A) (A) (A) (A) (A) (A)
                 (A) (A) (A) (A) (A) (A) (A) (A) (A) (A) (A) (A)
                 (A) (A) (A) (A) (A) (A) (A) (A) (A) (A) (A) (A)
                 (A) (A) (A) (A) (A) (A) (A) (A) (A) (A) (A) (A)
                 (A) (A) (A) (A) (A) (A) (A) (A) (A) (A) (A) (A)
                 (A) (A) (A) (A) (A) (A) (A) (A) (A) (A) (A) (A)
                 (A) (A) (A) (A) (A) (A) (A) (A) (A) (A) (A) (A)
                 (A) (A) (A) (A) (A) (A) (A) (A) (A) (A) (A) (A)
                 (A) (A) (A) (A) (A) (A) (A) (A) (A) (A) (A) (A)
                 (A) (A)
 The electronic state of the initial guess is 1-A.
 Generating alternative initial guess.
 Harris functional with IExCor=  205 diagonalized for initial guess.
 ExpMin= 2.53D-02 ExpMax= 1.17D+07 ExpMxC= 1.33D+04 IAcc=3 IRadAn=         5 AccDes= 0.00D+00
 HarFok:  IExCor=  205 AccDes= 0.00D+00 IRadAn=         5 IDoV= 1
 ScaDFX=  1.000000  1.000000  1.000000  1.000000
 FoFCou: FMM=F IPFlag=           0 FMFlag=      100000 FMFlg1=           0
         NFxFlg=           0 DoJE=T BraDBF=F KetDBF=T FulRan=T
         Omega=  0.000000  0.000000  1.000000  0.000000  0.000000 ICntrl=     500 IOpCl=  0
         NMat0=    1 NMatS0=    1 NMatT0=    0 NMatD0=    1 NMtDS0=    0 NMtDT0=    0
         I1Cent=           4 NGrid=           0.
 Petite list used in FoFCou.
 Harris En= -2901.93240925414    
 Leave Link  401 at Sun Dec  8 09:34:02 2019, MaxMem=  268435456 cpu:       1.2
 (Enter /home/matheus/.gaussian/g09/l502.exe)
 Closed shell SCF:
 Requested convergence on RMS density matrix=1.00D-08 within 128 cycles.
 Requested convergence on MAX density matrix=1.00D-06.
 Requested convergence on             energy=1.00D-06.
 No special actions if energy rises.
 Using DIIS extrapolation, IDIIS=  1040.
 Integral symmetry usage will be decided dynamically.
 IEnd=      178489 IEndB=      178489 NGot=   268435456 MDV=   268326278
 LenX=   268326278 LenY=   268273396
 Fock matrices will be formed incrementally for  20 cycles.

 Cycle   1  Pass 0  IDiag  1:
 FoFCou: FMM=F IPFlag=           0 FMFlag=      100000 FMFlg1=           0
         NFxFlg=           0 DoJE=F BraDBF=F KetDBF=F FulRan=T
         Omega=  0.000000  0.000000  1.000000  0.000000  0.000000 ICntrl=       0 IOpCl=  0
         NMat0=    1 NMatS0=    1 NMatT0=    0 NMatD0=    1 NMtDS0=    0 NMtDT0=    0
         I1Cent=           0 NGrid=           0.
 Symmetry not used in FoFCou.
 E= -2902.88311009764    
 DIIS: error= 3.78D-04 at cycle   1 NSaved=   1.
 NSaved= 1 IEnMin= 1 EnMin= -2902.88311009764     IErMin= 1 ErrMin= 3.78D-04
 ErrMax= 3.78D-04 EMaxC= 1.00D-01 BMatC= 3.87D-05 BMatP= 3.87D-05
 IDIUse=3 WtCom= 9.96D-01 WtEn= 3.78D-03
 Coeff-Com:  0.100D+01
 Coeff-En:   0.100D+01
 Coeff:      0.100D+01
 Gap=     0.499 Goal=   None    Shift=    0.000
 RMSDP=5.73D-05 MaxDP=1.68D-03              OVMax= 2.47D-03

 Cycle   2  Pass 0  IDiag  1:
 RMSU=  4.05D-05    CP:  1.00D+00
 E= -2902.88315612434     Delta-E=       -0.000046026703 Rises=F Damp=F
 DIIS: error= 7.49D-05 at cycle   2 NSaved=   2.
 NSaved= 2 IEnMin= 2 EnMin= -2902.88315612434     IErMin= 2 ErrMin= 7.49D-05
 ErrMax= 7.49D-05 EMaxC= 1.00D-01 BMatC= 1.15D-06 BMatP= 3.87D-05
 IDIUse=1 WtCom= 1.00D+00 WtEn= 0.00D+00
 Coeff-Com: -0.868D-01 0.109D+01
 Coeff:     -0.868D-01 0.109D+01
 Gap=     0.498 Goal=   None    Shift=    0.000
 RMSDP=1.04D-05 MaxDP=3.22D-04 DE=-4.60D-05 OVMax= 4.86D-04

 Cycle   3  Pass 0  IDiag  1:
 RMSU=  4.56D-06    CP:  1.00D+00  1.14D+00
 E= -2902.88315798230     Delta-E=       -0.000001857960 Rises=F Damp=F
 DIIS: error= 2.32D-05 at cycle   3 NSaved=   3.
 NSaved= 3 IEnMin= 3 EnMin= -2902.88315798230     IErMin= 3 ErrMin= 2.32D-05
 ErrMax= 2.32D-05 EMaxC= 1.00D-01 BMatC= 1.57D-07 BMatP= 1.15D-06
 IDIUse=1 WtCom= 1.00D+00 WtEn= 0.00D+00
 Coeff-Com: -0.377D-01 0.232D+00 0.806D+00
 Coeff:     -0.377D-01 0.232D+00 0.806D+00
 Gap=     0.498 Goal=   None    Shift=    0.000
 RMSDP=1.95D-06 MaxDP=6.37D-05 DE=-1.86D-06 OVMax= 1.24D-04

 Initial convergence to 1.0D-05 achieved.  Increase integral accuracy.
 Cycle   4  Pass 1  IDiag  1:
 E= -2902.88315814771     Delta-E=       -0.000000165409 Rises=F Damp=F
 DIIS: error= 8.14D-06 at cycle   1 NSaved=   1.
 NSaved= 1 IEnMin= 1 EnMin= -2902.88315814771     IErMin= 1 ErrMin= 8.14D-06
 ErrMax= 8.14D-06 EMaxC= 1.00D-01 BMatC= 2.37D-08 BMatP= 2.37D-08
 IDIUse=1 WtCom= 1.00D+00 WtEn= 0.00D+00
 Coeff-Com:  0.100D+01
 Coeff:      0.100D+01
 Gap=     0.498 Goal=   None    Shift=    0.000
 RMSDP=1.95D-06 MaxDP=6.37D-05 DE=-1.65D-07 OVMax= 7.24D-05

 Cycle   5  Pass 1  IDiag  1:
 RMSU=  6.99D-07    CP:  1.00D+00
 E= -2902.88315817639     Delta-E=       -0.000000028680 Rises=F Damp=F
 DIIS: error= 5.56D-06 at cycle   2 NSaved=   2.
 NSaved= 2 IEnMin= 2 EnMin= -2902.88315817639     IErMin= 2 ErrMin= 5.56D-06
 ErrMax= 5.56D-06 EMaxC= 1.00D-01 BMatC= 9.81D-09 BMatP= 2.37D-08
 IDIUse=1 WtCom= 1.00D+00 WtEn= 0.00D+00
 Coeff-Com:  0.347D+00 0.653D+00
 Coeff:      0.347D+00 0.653D+00
 Gap=     0.498 Goal=   None    Shift=    0.000
 RMSDP=2.97D-07 MaxDP=1.32D-05 DE=-2.87D-08 OVMax= 2.51D-05

 Cycle   6  Pass 1  IDiag  1:
 RMSU=  2.04D-07    CP:  1.00D+00  1.07D+00
 E= -2902.88315818537     Delta-E=       -0.000000008980 Rises=F Damp=F
 DIIS: error= 2.13D-06 at cycle   3 NSaved=   3.
 NSaved= 3 IEnMin= 3 EnMin= -2902.88315818537     IErMin= 3 ErrMin= 2.13D-06
 ErrMax= 2.13D-06 EMaxC= 1.00D-01 BMatC= 1.28D-09 BMatP= 9.81D-09
 IDIUse=1 WtCom= 1.00D+00 WtEn= 0.00D+00
 Coeff-Com: -0.355D+00-0.162D+00 0.152D+01
 Coeff:     -0.355D+00-0.162D+00 0.152D+01
 Gap=     0.498 Goal=   None    Shift=    0.000
 RMSDP=3.77D-07 MaxDP=1.15D-05 DE=-8.98D-09 OVMax= 3.21D-05

 Cycle   7  Pass 1  IDiag  1:
 RMSU=  8.21D-08    CP:  1.00D+00  1.40D+00  1.45D+00
 E= -2902.88315818874     Delta-E=       -0.000000003369 Rises=F Damp=F
 DIIS: error= 3.97D-07 at cycle   4 NSaved=   4.
 NSaved= 4 IEnMin= 4 EnMin= -2902.88315818874     IErMin= 4 ErrMin= 3.97D-07
 ErrMax= 3.97D-07 EMaxC= 1.00D-01 BMatC= 4.25D-11 BMatP= 1.28D-09
 IDIUse=1 WtCom= 1.00D+00 WtEn= 0.00D+00
 Coeff-Com: -0.667D-01-0.366D-01 0.219D+00 0.884D+00
 Coeff:     -0.667D-01-0.366D-01 0.219D+00 0.884D+00
 Gap=     0.498 Goal=   None    Shift=    0.000
 RMSDP=4.07D-08 MaxDP=1.30D-06 DE=-3.37D-09 OVMax= 3.30D-06

 Cycle   8  Pass 1  IDiag  1:
 RMSU=  1.71D-08    CP:  1.00D+00  1.41D+00  1.48D+00  1.27D+00
 E= -2902.88315818882     Delta-E=       -0.000000000079 Rises=F Damp=F
 DIIS: error= 1.50D-07 at cycle   5 NSaved=   5.
 NSaved= 5 IEnMin= 5 EnMin= -2902.88315818882     IErMin= 5 ErrMin= 1.50D-07
 ErrMax= 1.50D-07 EMaxC= 1.00D-01 BMatC= 8.71D-12 BMatP= 4.25D-11
 IDIUse=1 WtCom= 1.00D+00 WtEn= 0.00D+00
 Coeff-Com:  0.762D-01 0.433D-01-0.335D+00-0.281D-01 0.124D+01
 Coeff:      0.762D-01 0.433D-01-0.335D+00-0.281D-01 0.124D+01
 Gap=     0.498 Goal=   None    Shift=    0.000
 RMSDP=2.97D-08 MaxDP=1.05D-06 DE=-7.91D-11 OVMax= 2.18D-06

 Cycle   9  Pass 1  IDiag  1:
 RMSU=  7.99D-09    CP:  1.00D+00  1.40D+00  1.48D+00  1.49D+00  1.37D+00
 E= -2902.88315818884     Delta-E=       -0.000000000022 Rises=F Damp=F
 DIIS: error= 6.01D-08 at cycle   6 NSaved=   6.
 NSaved= 6 IEnMin= 6 EnMin= -2902.88315818884     IErMin= 6 ErrMin= 6.01D-08
 ErrMax= 6.01D-08 EMaxC= 1.00D-01 BMatC= 6.18D-13 BMatP= 8.71D-12
 IDIUse=1 WtCom= 1.00D+00 WtEn= 0.00D+00
 Coeff-Com: -0.326D-01-0.159D-01 0.144D+00-0.382D-01-0.597D+00 0.154D+01
 Coeff:     -0.326D-01-0.159D-01 0.144D+00-0.382D-01-0.597D+00 0.154D+01
 Gap=     0.498 Goal=   None    Shift=    0.000
[...]
 ---------------------------------------------------------------------
      1          8           0        0.000000    0.000000    0.725000
      2          8           0        0.000000    0.000000   -0.725000
      3          1           0        0.459360   -0.795635    1.023510
      4          1           0        0.000000    0.918721   -1.023510
      5         36           0        0.000000    5.000000    0.000000
 ---------------------------------------------------------------------
                    Distance matrix (angstroms):
                    1          2          3          4          5
     1  O    0.000000
     2  O    1.450000   0.000000
     3  H    0.966000   1.975180   0.000000
     4  H    1.975180   0.966000   2.709303   0.000000
     5  Kr   5.052289   5.052289   5.903217   4.207661   0.000000
 Stoichiometry    H2KrO2
 Framework group  C1[X(H2KrO2)]
 Deg. of freedom     9
 Full point group                 C1      NOp   1
 RotChk:  IX=0 Diff= 4.27D-04
 Largest Abelian subgroup         C1      NOp   1
 Largest concise Abelian subgroup C1      NOp   1
                         Standard orientation:                         
 ---------------------------------------------------------------------
 Center     Atomic      Atomic             Coordinates (Angstroms)
 Number     Number       Type             X           Y           Z
 ---------------------------------------------------------------------
      1          8           0        3.339822   -0.702772   -0.060896
      2          8           0        3.331040    0.745769    0.003540
      3          1           0        4.140141   -1.016340    0.379923
      4          1           0        2.410546    1.038162    0.022364
      5         36           0       -1.664377   -0.010161    0.001571
 ---------------------------------------------------------------------
 Rotational constants (GHZ):     26.4250637      0.8342608      0.8092270
 Leave Link  202 at Sun Dec  8 13:00:41 2019, MaxMem=  268435456 cpu:       0.0
 (Enter /home/matheus/.gaussian/g09/l301.exe)
 Standard basis: Aug-CC-pVTZ (5D, 7F)
 Ernie: Thresh=  0.10000D-02 Tol=  0.10000D-05 Strict=F.
 Ernie:  38 primitive shells out of 205 were deleted.
 There are   197 symmetry adapted basis functions of A   symmetry.
 Integral buffers will be    131072 words long.
 Raffenetti 1 integral format.
 Two-electron integral symmetry is turned on.
   197 basis functions,   415 primitive gaussians,   229 cartesian basis functions
    27 alpha electrons       27 beta electrons
       nuclear repulsion energy       104.6885151205 Hartrees.
 IExCor=    0 DFT=F Ex=HF Corr=None ExCW=0 ScaHFX=  1.000000
 ScaDFX=  1.000000  1.000000  1.000000  1.000000 ScalE2=  1.000000  1.000000
 IRadAn=      5 IRanWt=     -1 IRanGd=            0 ICorTp=0
 NAtoms=    5 NActive=    5 NUniq=    5 SFac= 1.00D+00 NAtFMM=   60 NAOKFM=F Big=F
 Leave Link  301 at Sun Dec  8 13:00:41 2019, MaxMem=  268435456 cpu:       0.0
 (Enter /home/matheus/.gaussian/g09/l302.exe)
 NPDir=0 NMtPBC=     1 NCelOv=     1 NCel=       1 NClECP=     1 NCelD=      1
         NCelK=      1 NCelE2=     1 NClLst=     1 CellRange=     0.0.
 One-electron integrals computed using PRISM.
 NBasis=   197 RedAO= T  NBF=   197
 NBsUse=   197 1.00D-06 NBFU=   197
 Leave Link  302 at Sun Dec  8 13:00:41 2019, MaxMem=  268435456 cpu:       0.2
 (Enter /home/matheus/.gaussian/g09/l303.exe)
 DipDrv:  MaxL=1.
 Leave Link  303 at Sun Dec  8 13:00:42 2019, MaxMem=  268435456 cpu:       0.1
 (Enter /home/matheus/.gaussian/g09/l401.exe)
 Initial guess read from the read-write file.
 B after Tr=     0.000000    0.000000    0.000000
         Rot=    1.000000    0.000000    0.000000    0.000000 Ang=   0.00 deg.
 Guess basis will be translated and rotated to current coordinates.
 Initial guess orbital symmetries:
       Occupied  (A) (A) (A) (A) (A) (A) (A) (A) (A) (A) (A) (A)
                 (A) (A) (A) (A) (A) (A) (A) (A) (A) (A) (A) (A)
                 (A) (A) (A)
       Virtual   (A) (A) (A) (A) (A) (A) (A) (A) (A) (A) (A) (A)
                 (A) (A) (A) (A) (A) (A) (A) (A) (A) (A) (A) (A)
                 (A) (A) (A) (A) (A) (A) (A) (A) (A) (A) (A) (A)
                 (A) (A) (A) (A) (A) (A) (A) (A) (A) (A) (A) (A)
                 (A) (A) (A) (A) (A) (A) (A) (A) (A) (A) (A) (A)
                 (A) (A) (A) (A) (A) (A) (A) (A) (A) (A) (A) (A)
                 (A) (A) (A) (A) (A) (A) (A) (A) (A) (A) (A) (A)
                 (A) (A) (A) (A) (A) (A) (A) (A) (A) (A) (A) (A)
                 (A) (A) (A) (A) (A) (A) (A) (A) (A) (A) (A) (A)
                 (A) (A) (A) (A) (A) (A) (A) (A) (A) (A) (A) (A)
                 (A) (A) (A) (A) (A) (A) (A) (A) (A) (A) (A) (A)
                 (A) (A) (A) (A) (A) (A) (A) (A) (A) (A) (A) (A)
                 (A) (A) (A) (A) (A) (A) (A) (A) (A) (A) (A) (A)
                 (A) (A) (A) (A) (A) (A) (A) (A) (A) (A) (A) (A)
                 (A) (A)
 The electronic state of the initial guess is 1-A.
 Generating alternative initial guess.
 Harris functional with IExCor=  205 diagonalized for initial guess.
 ExpMin= 2.53D-02 ExpMax= 1.17D+07 ExpMxC= 1.33D+04 IAcc=3 IRadAn=         5 AccDes= 0.00D+00
 HarFok:  IExCor=  205 AccDes= 0.00D+00 IRadAn=         5 IDoV= 1
 ScaDFX=  1.000000  1.000000  1.000000  1.000000
 FoFCou: FMM=F IPFlag=           0 FMFlag=      100000 FMFlg1=           0
         NFxFlg=           0 DoJE=T BraDBF=F KetDBF=T FulRan=T
         Omega=  0.000000  0.000000  1.000000  0.000000  0.000000 ICntrl=     500 IOpCl=  0
         NMat0=    1 NMatS0=    1 NMatT0=    0 NMatD0=    1 NMtDS0=    0 NMtDT0=    0
         I1Cent=           4 NGrid=           0.
 Petite list used in FoFCou.
 Harris En= -2901.93226169389    
 Leave Link  401 at Sun Dec  8 13:00:42 2019, MaxMem=  268435456 cpu:       1.0
 (Enter /home/matheus/.gaussian/g09/l502.exe)
 Closed shell SCF:
 Requested convergence on RMS density matrix=1.00D-08 within 128 cycles.
 Requested convergence on MAX density matrix=1.00D-06.
 Requested convergence on             energy=1.00D-06.
 No special actions if energy rises.
 Using DIIS extrapolation, IDIIS=  1040.
 Integral symmetry usage will be decided dynamically.
 IEnd=      178489 IEndB=      178489 NGot=   268435456 MDV=   268326278
 LenX=   268326278 LenY=   268273396
 Fock matrices will be formed incrementally for  20 cycles.

 Cycle   1  Pass 0  IDiag  1:
 FoFCou: FMM=F IPFlag=           0 FMFlag=      100000 FMFlg1=           0
         NFxFlg=           0 DoJE=F BraDBF=F KetDBF=F FulRan=T
         Omega=  0.000000  0.000000  1.000000  0.000000  0.000000 ICntrl=       0 IOpCl=  0
         NMat0=    1 NMatS0=    1 NMatT0=    0 NMatD0=    1 NMtDS0=    0 NMtDT0=    0
         I1Cent=           0 NGrid=           0.
 Symmetry not used in FoFCou.
 E= -2902.88582470278    
 DIIS: error= 3.64D-05 at cycle   1 NSaved=   1.
 NSaved= 1 IEnMin= 1 EnMin= -2902.88582470278     IErMin= 1 ErrMin= 3.64D-05
 ErrMax= 3.64D-05 EMaxC= 1.00D-01 BMatC= 5.43D-07 BMatP= 5.43D-07
 IDIUse=1 WtCom= 1.00D+00 WtEn= 0.00D+00
 Coeff-Com:  0.100D+01
 Coeff:      0.100D+01
 Gap=     0.500 Goal=   None    Shift=    0.000
 RMSDP=1.98D-05 MaxDP=8.79D-04              OVMax= 3.10D-04

 Cycle   2  Pass 0  IDiag  1:
 RMSU=  1.40D-05    CP:  1.00D+00
 E= -2902.88582527851     Delta-E=       -0.000000575727 Rises=F Damp=F
 DIIS: error= 7.94D-06 at cycle   2 NSaved=   2.
 NSaved= 2 IEnMin= 2 EnMin= -2902.88582527851     IErMin= 2 ErrMin= 7.94D-06
 ErrMax= 7.94D-06 EMaxC= 1.00D-01 BMatC= 1.44D-08 BMatP= 5.43D-07
 IDIUse=1 WtCom= 1.00D+00 WtEn= 0.00D+00
 Coeff-Com: -0.426D-01 0.104D+01
 Coeff:     -0.426D-01 0.104D+01
 Gap=     0.500 Goal=   None    Shift=    0.000
 RMSDP=2.29D-06 MaxDP=9.81D-05 DE=-5.76D-07 OVMax= 5.43D-05

 Initial convergence to 1.0D-05 achieved.  Increase integral accuracy.
 Cycle   3  Pass 1  IDiag  1:
 E= -2902.88582530036     Delta-E=       -0.000000021850 Rises=F Damp=F
 DIIS: error= 3.52D-06 at cycle   1 NSaved=   1.
 NSaved= 1 IEnMin= 1 EnMin= -2902.88582530036     IErMin= 1 ErrMin= 3.52D-06
 ErrMax= 3.52D-06 EMaxC= 1.00D-01 BMatC= 1.44D-09 BMatP= 1.44D-09
 IDIUse=1 WtCom= 1.00D+00 WtEn= 0.00D+00
 Coeff-Com:  0.100D+01
 Coeff:      0.100D+01
 Gap=     0.500 Goal=   None    Shift=    0.000
 RMSDP=2.29D-06 MaxDP=9.81D-05 DE=-2.18D-08 OVMax= 2.05D-05

 Cycle   4  Pass 1  IDiag  1:
 RMSU=  1.92D-07    CP:  1.00D+00
 E= -2902.88582530261     Delta-E=       -0.000000002253 Rises=F Damp=F
 DIIS: error= 9.26D-07 at cycle   2 NSaved=   2.
 NSaved= 2 IEnMin= 2 EnMin= -2902.88582530261     IErMin= 2 ErrMin= 9.26D-07
 ErrMax= 9.26D-07 EMaxC= 1.00D-01 BMatC= 3.35D-10 BMatP= 1.44D-09
 IDIUse=1 WtCom= 1.00D+00 WtEn= 0.00D+00
 Coeff-Com:  0.209D+00 0.791D+00
 Coeff:      0.209D+00 0.791D+00
 Gap=     0.500 Goal=   None    Shift=    0.000
 RMSDP=7.45D-08 MaxDP=2.54D-06 DE=-2.25D-09 OVMax= 6.03D-06

 Cycle   5  Pass 1  IDiag  1:
 RMSU=  4.59D-08    CP:  1.00D+00  1.13D+00
 E= -2902.88582530301     Delta-E=       -0.000000000402 Rises=F Damp=F
 DIIS: error= 5.08D-07 at cycle   3 NSaved=   3.
 NSaved= 3 IEnMin= 3 EnMin= -2902.88582530301     IErMin= 3 ErrMin= 5.08D-07
 ErrMax= 5.08D-07 EMaxC= 1.00D-01 BMatC= 7.03D-11 BMatP= 3.35D-10
 IDIUse=1 WtCom= 1.00D+00 WtEn= 0.00D+00
 Coeff-Com: -0.153D+00 0.763D-01 0.108D+01
 Coeff:     -0.153D+00 0.763D-01 0.108D+01
 Gap=     0.500 Goal=   None    Shift=    0.000
 RMSDP=5.43D-08 MaxDP=1.76D-06 DE=-4.02D-10 OVMax= 5.62D-06

 Cycle   6  Pass 1  IDiag  1:
 RMSU=  2.25D-08    CP:  1.00D+00  1.29D+00  1.22D+00
 E= -2902.88582530316     Delta-E=       -0.000000000148 Rises=F Damp=F
 DIIS: error= 1.92D-07 at cycle   4 NSaved=   4.
 NSaved= 4 IEnMin= 4 EnMin= -2902.88582530316     IErMin= 4 ErrMin= 1.92D-07
 ErrMax= 1.92D-07 EMaxC= 1.00D-01 BMatC= 1.05D-11 BMatP= 7.03D-11
 IDIUse=1 WtCom= 1.00D+00 WtEn= 0.00D+00
 Coeff-Com: -0.740D-01-0.117D+00 0.270D+00 0.921D+00
 Coeff:     -0.740D-01-0.117D+00 0.270D+00 0.921D+00
 Gap=     0.500 Goal=   None    Shift=    0.000
 RMSDP=1.95D-08 MaxDP=4.65D-07 DE=-1.48D-10 OVMax= 2.28D-06

 Cycle   7  Pass 1  IDiag  1:
 RMSU=  7.42D-09    CP:  1.00D+00  1.32D+00  1.38D+00  1.25D+00
 E= -2902.88582530317     Delta-E=       -0.000000000012 Rises=F Damp=F
 DIIS: error= 5.52D-08 at cycle   5 NSaved=   5.
 NSaved= 5 IEnMin= 5 EnMin= -2902.88582530317     IErMin= 5 ErrMin= 5.52D-08
 ErrMax= 5.52D-08 EMaxC= 1.00D-01 BMatC= 6.80D-13 BMatP= 1.05D-11
 IDIUse=1 WtCom= 1.00D+00 WtEn= 0.00D+00
 Coeff-Com:  0.391D-01 0.429D-01-0.178D+00-0.378D+00 0.147D+01
 Coeff:      0.391D-01 0.429D-01-0.178D+00-0.378D+00 0.147D+01
 Gap=     0.500 Goal=   None    Shift=    0.000
 RMSDP=9.51D-09 MaxDP=1.88D-07 DE=-1.18D-11 OVMax= 1.10D-06

 SCF Done:  E(RHF) =  -2902.88582530     A.U. after    7 cycles
             Convg  =    0.9509D-08             -V/T =  2.0001
 KE= 2.902563751469D+03 PE=-7.150073288955D+03 EE= 1.239935197062D+03
 Leave Link  502 at Sun Dec  8 13:00:59 2019, MaxMem=  268435456 cpu:      34.7
 (Enter /home/matheus/.gaussian/g09/l801.exe)
 Windowed orbitals will be sorted by symmetry type.
 ExpMin= 2.53D-02 ExpMax= 1.17D+07 ExpMxC= 1.33D+04 IAcc=3 IRadAn=         5 AccDes= 0.00D+00
 HarFok:  IExCor=  205 AccDes= 0.00D+00 IRadAn=         5 IDoV=-2
 ScaDFX=  1.000000  1.000000  1.000000  1.000000
 DSYEVD returned Info=          93 IAlg= 4 N=    46 NDim=    46 NE2=     4547561 trying DSYEV.
 DSYEVD returned Info=          89 IAlg= 4 N=    59 NDim=    59 NE2=     4547561 trying DSYEV.
 Largest valence mixing into a core orbital is  1.47D-04
 Largest core mixing into a valence orbital is  2.60D-05
 Range of M.O.s used for correlation:    12   197
 NBasis=   197 NAE=    27 NBE=    27 NFC=    11 NFV=     0
 NROrb=    186 NOA=    16 NOB=    16 NVA=   170 NVB=   170

 **** Warning!!: The largest alpha MO coefficient is  0.13110269D+02

 Leave Link  801 at Sun Dec  8 13:01:00 2019, MaxMem=  268435456 cpu:       0.2
 (Enter /home/matheus/.gaussian/g09/l804.exe)
 Closed-shell transformation, MDV=   268435456 ITran=4 ISComp=1.
 Semi-Direct transformation.
 ModeAB=           4 MOrb=            16 LenV=     267351224
 LASXX=     48528660 LTotXX=    48528660 LenRXX=    97827436
 LTotAB=    49298776 MaxLAS=    72170976 LenRXY=           0
 NonZer=   146356096 LenScr=   220395520 LnRSAI=    72170976
 LnScr1=   109029376 LExtra=           0 Total=    499423308
 MaxDsk=          -1 SrtSym=           T ITran=            4
 DoSDTr:  NPSUse=  2
 JobTyp=0 Pass  1:  I=   1 to  16.
 (rs|ai) integrals will be sorted in core.
 Complete sort for first half transformation.
 First half transformation complete.
 Begin second half transformation for I=  10.
 Complete sort for second half transformation.
 Second half transformation complete.
 SymMOI:  orbitals are not symmetric.
 Spin components of T(2) and E(2):
     alpha-alpha T2 =       0.2543511180D-01 E2=     -0.9830982661D-01
     alpha-beta  T2 =       0.1409970421D+00 E2=     -0.5524555329D+00
     beta-beta   T2 =       0.2543511180D-01 E2=     -0.9830982661D-01
 ANorm=    0.1091726736D+01
 E2 =    -0.7490751861D+00 EUMP2 =    -0.29036349004893D+04
 Leave Link  804 at Sun Dec  8 13:01:19 2019, MaxMem=  268435456 cpu:      38.2
 (Enter /home/matheus/.gaussian/g09/l913.exe)
 CIDS:  MDV=   268435456.
 Frozen-core window:  NFC=  11 NFV=   0.
 IFCWin=0 IBDFC=1 NFBD=     0     0 NFCmp=     0     0 NFFFC=     0     0
 Using DD3R+UMP44R for 1st iteration, S=T.
 Using DD4RQ for 2nd and later iterations.
 Would need an additional       431206676 words for in-memory AO integral storage.
 MP4(SDTQ)
 =========
 DD1Dir will call FoFDir   1 times, MxPair=       272
 NAB=   136 NAA=     0 NBB=     0 NumPrc=  2.
 Integrals replicated using symmetry in FoFDir.
 MinBra= 0 MaxBra= 3 Meth= 1.
 IRaf=       0 NMat= 272 IRICut=     340 DoRegI=T DoRafI=T ISym2E= 2 JSym2E=2.
 MP4(D)= -0.14934910D-01
 MP4(S)= -0.62261883D-02
 MP4(R+Q)=  0.14927274D-01
 T4(AAA)= -0.97868844D-03
 T4(AAB)= -0.13739564D-01
 Time for triples=     1271.59 seconds.
 MP4(T)=   -0.29436504D-01
 E3=       -0.12150676D-01        EUMP3=      -0.29036470512D+04
 E4(DQ)=   -0.76354072D-05        UMP4(DQ)=   -0.29036470588D+04
 E4(SDQ)=  -0.62338237D-02        UMP4(SDQ)=  -0.29036532850D+04
 E4(SDTQ)= -0.35670328D-01        UMP4(SDTQ)= -0.29036827215D+04
 VARIATIONAL ENERGIES WITH THE FIRST-ORDER WAVEFUNCTION:
 E(VAR1)=  -0.29035245087D+04     E(CISD,4)=  -0.29035244893D+04
 Largest amplitude= 1.95D-02
 Leave Link  913 at Sun Dec  8 13:12:35 2019, MaxMem=  268435456 cpu:    1348.6
 (Enter /home/matheus/.gaussian/g09/l108.exe)
 Scan completed.

 Summary of the potential surface scan:
   N      R1          SCF          MP2          MP3         MP4DQ       MP4SDQ       MP4SDTQ  
 ----  ---------  -----------  -----------  -----------  -----------  -----------  -----------
    1     3.0000  -2902.87782  -2903.63400  -2903.64530  -2903.64490  -2903.65131  -2903.68168
    2     3.1000  -2902.88024  -2903.63532  -2903.64678  -2903.64644  -2903.65283  -2903.68306
    3     3.2000  -2902.88195  -2903.63610  -2903.64769  -2903.64741  -2903.65377  -2903.68387
    4     3.3000  -2902.88316  -2903.63651  -2903.64821  -2903.64797  -2903.65432  -2903.68431
    5     3.4000  -2902.88401  -2903.63668  -2903.64845  -2903.64826  -2903.65459  -2903.68450
    6     3.5000  -2902.88460  -2903.63669  -2903.64853  -2903.64837  -2903.65468  -2903.68451
    7     3.6000  -2902.88501  -2903.63660  -2903.64849  -2903.64836  -2903.65466  -2903.68443
    8     3.7000  -2902.88529  -2903.63645  -2903.64839  -2903.64828  -2903.65457  -2903.68428
    9     3.8000  -2902.88548  -2903.63628  -2903.64825  -2903.64817  -2903.65445  -2903.68411
   10     3.9000  -2902.88561  -2903.63610  -2903.64811  -2903.64804  -2903.65431  -2903.68393
   11     4.0000  -2902.88569  -2903.63593  -2903.64796  -2903.64791  -2903.65417  -2903.68376
   12     4.1000  -2902.88575  -2903.63577  -2903.64782  -2903.64778  -2903.65404  -2903.68360
   13     4.2000  -2902.88578  -2903.63562  -2903.64769  -2903.64766  -2903.65391  -2903.68345
   14     4.3000  -2902.88580  -2903.63549  -2903.64758  -2903.64755  -2903.65380  -2903.68331
   15     4.4000  -2902.88582  -2903.63537  -2903.64747  -2903.64746  -2903.65370  -2903.68320
   16     4.5000  -2902.88582  -2903.63527  -2903.64738  -2903.64737  -2903.65361  -2903.68309
   17     4.6000  -2902.88583  -2903.63517  -2903.64730  -2903.64729  -2903.65353  -2903.68300
   18     4.7000  -2902.88583  -2903.63509  -2903.64722  -2903.64722  -2903.65346  -2903.68292
   19     4.8000  -2902.88583  -2903.63502  -2903.64716  -2903.64716  -2903.65339  -2903.68284
   20     4.9000  -2902.88583  -2903.63496  -2903.64710  -2903.64711  -2903.65334  -2903.68278
   21     5.0000  -2902.88583  -2903.63490  -2903.64705  -2903.64706  -2903.65328  -2903.68272
 ----  ---------  -----------  -----------  -----------  -----------  -----------  -----------
  
 Leave Link  108 at Sun Dec  8 13:12:35 2019, MaxMem=  268435456 cpu:       0.0
 (Enter /home/matheus/.gaussian/g09/l9999.exe)
 1\1\GINC-REDGIANT\Scan\RMP4SDTQ-FC\Aug-CC-pVTZ\H2Kr1O2\ROOT\08-Dec-201
 9\1\\#p mp4/aug-cc-PVTz int=ultrafine Scan\\PTCC\\0,1\O,0,0.,0.,0.725\
 O,0,0.,0.,-0.725\H,0,0.4593602974,-0.795635374,1.0235104166\H,0,0.,0.9
 187205947,-1.0235104166\Kr,0,0.,R1,0.\\R1=3.,s,20,0.1\\Version=EM64L-G
 09RevC.01\State=1-A\HF=-2902.8778219,-2902.8802361,-2902.8819492,-2902
 .8831582,-2902.8840066,-2902.8845981,-2902.8850074,-2902.8852881,-2902
 .8854784,-2902.8856059,-2902.8856902,-2902.885745,-2902.8857802,-2902.
 8858022,-2902.8858156,-2902.8858232,-2902.8858271,-2902.8858285,-2902.
 8858283,-2902.885827,-2902.8858253\MP2=-2903.6339979,-2903.6353175,-29
 03.6361002,-2903.6365146,-2903.6366819,-2903.6366893,-2903.6365986,-29
 03.636453,-2903.6362817,-2903.6361035,-2903.6359302,-2903.6357684,-290
 3.6356209,-2903.6354886,-2903.635371,-2903.6352668,-2903.6351747,-2903
 .6350931,-2903.6350209,-2903.634957,-2903.6349005\MP3=-2903.6453038,-2
 903.6467826,-2903.6476915,-2903.6482065,-2903.6484546,-2903.6485276,-2
 903.6484905,-2903.6483893,-2903.6482548,-2903.6481076,-2903.6479604,-2
 903.6478205,-2903.6476917,-2903.6475753,-2903.6474712,-2903.6473787,-2
 903.6472965,-2903.6472237,-2903.6471591,-2903.6471019,-2903.6470512\MP
 4D=-2903.6602587,-2903.6617347,-2903.6626418,-2903.6631553,-2903.66340
 22,-2903.6634738,-2903.6634355,-2903.6633331,-2903.6631975,-2903.66304
 93,-2903.6629012,-2903.6627605,-2903.6626309,-2903.6625139,-2903.66240
 92,-2903.662316,-2903.6622333,-2903.66216,-2903.6620949,-2903.6620372,
 -2903.6619861\MP4DQ=-2903.6448965,-2903.6464407,-2903.6474064,-2903.64
 79703,-2903.6482601,-2903.6483684,-2903.6483612,-2903.6482849,-2903.64
 81715,-2903.6480417,-2903.647909,-2903.6477812,-2903.6476624,-2903.647
 5542,-2903.647457,-2903.64737,-2903.6472925,-2903.6472234,-2903.647162
 ,-2903.6471073,-2903.6470588\MP4SDQ=-2903.6513125,-2903.6528295,-2903.
 6537719,-2903.6543155,-2903.6545877,-2903.6546807,-2903.6546602,-2903.
 6545725,-2903.654449,-2903.6543107,-2903.6541706,-2903.6540364,-2903.6
 53912,-2903.6537991,-2903.6536978,-2903.6536074,-2903.6535269,-2903.65
 34553,-2903.6533917,-2903.6533351,-2903.653285\MP4SDTQ=-2903.6816828,-
 2903.6830556,-2903.683875,-2903.6843135,-2903.684496,-2903.6845122,-29
 03.6844262,-2903.6842826,-2903.6841118,-2903.6839332,-2903.6837591,-29
 03.6835962,-2903.6834476,-2903.6833142,-2903.6831956,-2903.6830905,-29
 03.6829975,-2903.6829153,-2903.6828426,-2903.6827783,-2903.6827215\RMS
 D=9.001e-09,9.201e-09,8.985e-09,9.194e-09,9.695e-09,9.000e-09,8.360e-0
 9,8.312e-09,6.607e-09,5.708e-09,5.371e-09,5.191e-09,4.918e-09,4.544e-0
 9,4.153e-09,3.806e-09,3.522e-09,3.293e-09,3.100e-09,2.925e-09,9.509e-0
 9\PG=C01 [X(H2Kr1O2)]\\@


 HE THAT RISETH LATE MUST TROT ALL DAY.

                  -- BENJAMIN FRANKLIN
 Job cpu time:  0 days  8 hours 31 minutes 14.5 seconds.
 File lengths (MBytes):  RWF=   3955 Int=      0 D2E=      0 Chk=      4 Scr=      1
 Normal termination of Gaussian 09 at Sun Dec  8 13:12:36 2019.
