 Entering Gaussian System, Link 0=g09
 Input=/home/matheus/.ptcc/Inputs/H2O2-Kr_13.com
 Output=/home/matheus/.ptcc/Logs-MP4/H2O2-Kr_13.log
 Initial command:
 /home/matheus/.gaussian/g09/l1.exe /home/matheus/.gaussian/g09/scratch/Gau-11672.inp -scrdir=/home/matheus/.gaussian/g09/scratch/
 Entering Link 1 = /home/matheus/.gaussian/g09/l1.exe PID=     11674.
  
 Copyright (c) 1988,1990,1992,1993,1995,1998,2003,2009,2011,
            Gaussian, Inc.  All Rights Reserved.
  
 This is part of the Gaussian(R) 09 program.  It is based on
 the Gaussian(R) 03 system (copyright 2003, Gaussian, Inc.),
 the Gaussian(R) 98 system (copyright 1998, Gaussian, Inc.),
 the Gaussian(R) 94 system (copyright 1995, Gaussian, Inc.),
 the Gaussian 92(TM) system (copyright 1992, Gaussian, Inc.),
 the Gaussian 90(TM) system (copyright 1990, Gaussian, Inc.),
 the Gaussian 88(TM) system (copyright 1988, Gaussian, Inc.),
 the Gaussian 86(TM) system (copyright 1986, Carnegie Mellon
 University), and the Gaussian 82(TM) system (copyright 1983,
 Carnegie Mellon University). Gaussian is a federally registered
 trademark of Gaussian, Inc.
  
 This software contains proprietary and confidential information,
 including trade secrets, belonging to Gaussian, Inc.
  
 This software is provided under written license and may be
 used, copied, transmitted, or stored only in accord with that
 written license.
  
 The following legend is applicable only to US Government
 contracts under FAR:
  
                    RESTRICTED RIGHTS LEGEND
  
 Use, reproduction and disclosure by the US Government is
 subject to restrictions as set forth in subparagraphs (a)
 and (c) of the Commercial Computer Software - Restricted
 Rights clause in FAR 52.227-19.
  
 Gaussian, Inc.
 340 Quinnipiac St., Bldg. 40, Wallingford CT 06492
  
  
 ---------------------------------------------------------------
 Warning -- This program may not be used in any manner that
 competes with the business of Gaussian, Inc. or will provide
 assistance to any competitor of Gaussian, Inc.  The licensee
 of this program is prohibited from giving any competitor of
 Gaussian, Inc. access to this program.  By using this program,
 the user acknowledges that Gaussian, Inc. is engaged in the
 business of creating and licensing software in the field of
 computational chemistry and represents and warrants to the
 licensee that it is not a competitor of Gaussian, Inc. and that
 it will not use this program in any manner prohibited above.
 ---------------------------------------------------------------
  

 Cite this work as:
 Gaussian 09, Revision C.01,
 M. J. Frisch, G. W. Trucks, H. B. Schlegel, G. E. Scuseria, 
 M. A. Robb, J. R. Cheeseman, G. Scalmani, V. Barone, B. Mennucci, 
 G. A. Petersson, H. Nakatsuji, M. Caricato, X. Li, H. P. Hratchian, 
 A. F. Izmaylov, J. Bloino, G. Zheng, J. L. Sonnenberg, M. Hada, 
 M. Ehara, K. Toyota, R. Fukuda, J. Hasegawa, M. Ishida, T. Nakajima, 
 Y. Honda, O. Kitao, H. Nakai, T. Vreven, J. A. Montgomery, Jr., 
 J. E. Peralta, F. Ogliaro, M. Bearpark, J. J. Heyd, E. Brothers, 
 K. N. Kudin, V. N. Staroverov, T. Keith, R. Kobayashi, J. Normand, 
 K. Raghavachari, A. Rendell, J. C. Burant, S. S. Iyengar, J. Tomasi, 
 M. Cossi, N. Rega, J. M. Millam, M. Klene, J. E. Knox, J. B. Cross, 
 V. Bakken, C. Adamo, J. Jaramillo, R. Gomperts, R. E. Stratmann, 
 O. Yazyev, A. J. Austin, R. Cammi, C. Pomelli, J. W. Ochterski, 
 R. L. Martin, K. Morokuma, V. G. Zakrzewski, G. A. Voth, 
 P. Salvador, J. J. Dannenberg, S. Dapprich, A. D. Daniels, 
 O. Farkas, J. B. Foresman, J. V. Ortiz, J. Cioslowski, 
 and D. J. Fox, Gaussian, Inc., Wallingford CT, 2010.
 
 ******************************************
 Gaussian 09:  EM64L-G09RevC.01 23-Sep-2011
                 4-Dec-2019 
 ******************************************
 %mem=2GB
 %nproc=2
 Will use up to    2 processors via shared memory.
 -------------------------------------
 #p mp4/aug-cc-PVTz int=ultrafine Scan
 -------------------------------------
 1/38=1,60=1/1,8;
 2/12=2,17=6,18=5,29=3,40=1/2;
 3/5=16,6=1,7=10,11=9,16=1,25=1,30=1,75=-5/1,2,3;
 4//1;
 5/5=2,38=5/2;
 8/6=4,9=120000,10=1/1,4;
 9/5=5/13;
 6/7=2,8=2,9=2,10=2,18=1/1;
 1/60=1/8(1);
 99/9=1/99;
 2/29=3/2;
 3/5=16,6=1,7=10,11=9,16=1,25=1,30=1,75=-5/1,2,3;
 4/5=5,16=3/1;
 5/5=2,38=5/2;
 8/6=4,9=120000,10=1/1,4;
 9/5=5/13;
 1/60=1/8(-6);
 99/9=1/99;
 Leave Link    1 at Wed Dec  4 07:57:09 2019, MaxMem=  268435456 cpu:       0.0
 (Enter /home/matheus/.gaussian/g09/l101.exe)
 ----
 PTCC
 ----
 Charge =  0 Multiplicity = 1
 Symbolic Z-Matrix:
 O                     0.        0.        0.725 
 O                     0.        0.       -0.725 
 H                     0.70378  -0.59054   1.02351 
 H                     0.        0.91872  -1.02351 
 Kr                    0.       R1        0. 
       Variables:
  R1                    3.     Scan 20    0.1    
 
 NAtoms=      5 NQM=        0 NQMF=       0 NMMI=      5 NMMIF=      0
                NMic=       0 NMicF=      0.
                    Isotopes and Nuclear Properties:
 (Nuclear quadrupole moments (NQMom) in fm**2, nuclear magnetic moments (NMagM)
  in nuclear magnetons)

  Atom         1           2           3           4           5
 IAtWgt=          16          16           1           1          84
 AtmWgt=  15.9949146  15.9949146   1.0078250   1.0078250  83.9115064
 NucSpn=           0           0           1           1           0
 AtZEff=   0.0000000   0.0000000   0.0000000   0.0000000   0.0000000
 NQMom=    0.0000000   0.0000000   0.0000000   0.0000000   0.0000000
 NMagM=    0.0000000   0.0000000   2.7928460   2.7928460   0.0000000
 Leave Link  101 at Wed Dec  4 07:57:09 2019, MaxMem=  268435456 cpu:       0.1
 (Enter /home/matheus/.gaussian/g09/l108.exe)
 Scan the potential surface.
 Variable   Value     No. Steps Step-Size
 -------- ----------- --------- ---------
     1       3.000000      20      0.1000
 A total of     21 points will be computed.
 Leave Link  108 at Wed Dec  4 07:57:09 2019, MaxMem=  268435456 cpu:       0.0
 (Enter /home/matheus/.gaussian/g09/l202.exe)
 ---------------------------------------------------------------------------------------------------
                            Z-MATRIX (ANGSTROMS AND DEGREES)
   CD    Cent   Atom    N1       Length/X        N2       Alpha/Y        N3        Beta/Z          J
 ---------------------------------------------------------------------------------------------------
      1      1  O        0   0.000000          0.000000          0.725000
      2      2  O        0   0.000000          0.000000         -0.725000
      3      3  H        0   0.703781         -0.590542          1.023510
      4      4  H        0   0.000000          0.918721         -1.023510
      5      5  Kr       0   0.000000          3.000000          0.000000
 ---------------------------------------------------------------------------------------------------
                         Z-Matrix orientation:                         
 ---------------------------------------------------------------------
 Center     Atomic      Atomic             Coordinates (Angstroms)
 Number     Number       Type             X           Y           Z
 ---------------------------------------------------------------------
      1          8           0        0.000000    0.000000    0.725000
      2          8           0        0.000000    0.000000   -0.725000
      3          1           0        0.703781   -0.590542    1.023510
      4          1           0        0.000000    0.918721   -1.023510
      5         36           0        0.000000    3.000000    0.000000
 ---------------------------------------------------------------------
                    Distance matrix (angstroms):
                    1          2          3          4          5
     1  O    0.000000
     2  O    1.450000   0.000000
     3  H    0.966000   1.975180   0.000000
     4  H    1.975180   0.966000   2.638840   0.000000
     5  Kr   3.086361   3.086361   3.799326   2.319331   0.000000
 Stoichiometry    H2KrO2
 Framework group  C1[X(H2KrO2)]
 Deg. of freedom     9
 Full point group                 C1      NOp   1
 Largest Abelian subgroup         C1      NOp   1
 Largest concise Abelian subgroup C1      NOp   1
                         Standard orientation:                         
 ---------------------------------------------------------------------
 Center     Atomic      Atomic             Coordinates (Angstroms)
 Number     Number       Type             X           Y           Z
 ---------------------------------------------------------------------
      1          8           0        2.016888   -0.687971   -0.094863
      2          8           0        1.993721    0.758416    0.004771
      3          1           0        2.624080   -1.023798    0.577220
      4          1           0        1.070483    1.040460    0.039958
      5         36           0       -0.993873   -0.016117    0.002877
 ---------------------------------------------------------------------
 Rotational constants (GHZ):     26.0617959      2.3176349      2.1364645
 Leave Link  202 at Wed Dec  4 07:57:09 2019, MaxMem=  268435456 cpu:       0.0
 (Enter /home/matheus/.gaussian/g09/l301.exe)
 Standard basis: Aug-CC-pVTZ (5D, 7F)
 Ernie: Thresh=  0.10000D-02 Tol=  0.10000D-05 Strict=F.
 Ernie:  38 primitive shells out of 205 were deleted.
 There are   197 symmetry adapted basis functions of A   symmetry.
 Integral buffers will be    131072 words long.
 Raffenetti 1 integral format.
 Two-electron integral symmetry is turned on.
   197 basis functions,   415 primitive gaussians,   229 cartesian basis functions
    27 alpha electrons       27 beta electrons
       nuclear repulsion energy       148.5957046553 Hartrees.
 IExCor=    0 DFT=F Ex=HF Corr=None ExCW=0 ScaHFX=  1.000000
 ScaDFX=  1.000000  1.000000  1.000000  1.000000 ScalE2=  1.000000  1.000000
 IRadAn=      5 IRanWt=     -1 IRanGd=            0 ICorTp=0
 NAtoms=    5 NActive=    5 NUniq=    5 SFac= 1.00D+00 NAtFMM=   60 NAOKFM=F Big=F
 Leave Link  301 at Wed Dec  4 07:57:09 2019, MaxMem=  268435456 cpu:       0.0
 (Enter /home/matheus/.gaussian/g09/l302.exe)
 NPDir=0 NMtPBC=     1 NCelOv=     1 NCel=       1 NClECP=     1 NCelD=      1
         NCelK=      1 NCelE2=     1 NClLst=     1 CellRange=     0.0.
 One-electron integrals computed using PRISM.
 NBasis=   197 RedAO= T  NBF=   197
 NBsUse=   197 1.00D-06 NBFU=   197
 Leave Link  302 at Wed Dec  4 07:57:09 2019, MaxMem=  268435456 cpu:       0.2
 (Enter /home/matheus/.gaussian/g09/l303.exe)
 DipDrv:  MaxL=1.
 Leave Link  303 at Wed Dec  4 07:57:09 2019, MaxMem=  268435456 cpu:       0.0
 (Enter /home/matheus/.gaussian/g09/l401.exe)
 Harris functional with IExCor=  205 diagonalized for initial guess.
 ExpMin= 2.53D-02 ExpMax= 1.17D+07 ExpMxC= 1.33D+04 IAcc=3 IRadAn=         5 AccDes= 0.00D+00
 HarFok:  IExCor=  205 AccDes= 0.00D+00 IRadAn=         5 IDoV= 1
 ScaDFX=  1.000000  1.000000  1.000000  1.000000
 FoFCou: FMM=F IPFlag=           0 FMFlag=      100000 FMFlg1=           0
         NFxFlg=           0 DoJE=T BraDBF=F KetDBF=T FulRan=T
         Omega=  0.000000  0.000000  1.000000  0.000000  0.000000 ICntrl=     500 IOpCl=  0
         NMat0=    1 NMatS0=    1 NMatT0=    0 NMatD0=    1 NMtDS0=    0 NMtDT0=    0
         I1Cent=           4 NGrid=           0.
 Petite list used in FoFCou.
 Harris En= -2901.93164105117    
 Initial guess orbital symmetries:
       Occupied  (A) (A) (A) (A) (A) (A) (A) (A) (A) (A) (A) (A)
                 (A) (A) (A) (A) (A) (A) (A) (A) (A) (A) (A) (A)
                 (A) (A) (A)
       Virtual   (A) (A) (A) (A) (A) (A) (A) (A) (A) (A) (A) (A)
                 (A) (A) (A) (A) (A) (A) (A) (A) (A) (A) (A) (A)
                 (A) (A) (A) (A) (A) (A) (A) (A) (A) (A) (A) (A)
                 (A) (A) (A) (A) (A) (A) (A) (A) (A) (A) (A) (A)
                 (A) (A) (A) (A) (A) (A) (A) (A) (A) (A) (A) (A)
                 (A) (A) (A) (A) (A) (A) (A) (A) (A) (A) (A) (A)
                 (A) (A) (A) (A) (A) (A) (A) (A) (A) (A) (A) (A)
                 (A) (A) (A) (A) (A) (A) (A) (A) (A) (A) (A) (A)
                 (A) (A) (A) (A) (A) (A) (A) (A) (A) (A) (A) (A)
                 (A) (A) (A) (A) (A) (A) (A) (A) (A) (A) (A) (A)
                 (A) (A) (A) (A) (A) (A) (A) (A) (A) (A) (A) (A)
                 (A) (A) (A) (A) (A) (A) (A) (A) (A) (A) (A) (A)
                 (A) (A) (A) (A) (A) (A) (A) (A) (A) (A) (A) (A)
                 (A) (A) (A) (A) (A) (A) (A) (A) (A) (A) (A) (A)
                 (A) (A)
 The electronic state of the initial guess is 1-A.
 Leave Link  401 at Wed Dec  4 07:57:10 2019, MaxMem=  268435456 cpu:       1.1
 (Enter /home/matheus/.gaussian/g09/l502.exe)
 Closed shell SCF:
 Requested convergence on RMS density matrix=1.00D-08 within 128 cycles.
 Requested convergence on MAX density matrix=1.00D-06.
 Requested convergence on             energy=1.00D-06.
 No special actions if energy rises.
 Using DIIS extrapolation, IDIIS=  1040.
 Integral symmetry usage will be decided dynamically.
 IEnd=      178489 IEndB=      178489 NGot=   268435456 MDV=   268326278
 LenX=   268326278 LenY=   268273396
 Fock matrices will be formed incrementally for  20 cycles.

 Cycle   1  Pass 0  IDiag  1:
 FoFCou: FMM=F IPFlag=           0 FMFlag=      100000 FMFlg1=           0
         NFxFlg=           0 DoJE=F BraDBF=F KetDBF=F FulRan=T
         Omega=  0.000000  0.000000  1.000000  0.000000  0.000000 ICntrl=       0 IOpCl=  0
         NMat0=    1 NMatS0=    1 NMatT0=    0 NMatD0=    1 NMtDS0=    0 NMtDT0=    0
         I1Cent=           0 NGrid=           0.
 Symmetry not used in FoFCou.
 E= -2902.75985214283    
 DIIS: error= 3.50D-02 at cycle   1 NSaved=   1.
 NSaved= 1 IEnMin= 1 EnMin= -2902.75985214283     IErMin= 1 ErrMin= 3.50D-02
 ErrMax= 3.50D-02 EMaxC= 1.00D-01 BMatC= 6.91D-01 BMatP= 6.91D-01
 IDIUse=3 WtCom= 6.50D-01 WtEn= 3.50D-01
 Coeff-Com:  0.100D+01
 Coeff-En:   0.100D+01
 Coeff:      0.100D+01
 Gap=     0.692 Goal=   None    Shift=    0.000
 GapD=    0.692 DampG=2.000 DampE=0.500 DampFc=1.0000 IDamp=-1.
 RMSDP=2.27D-03 MaxDP=1.50D-01              OVMax= 5.22D-02

 Cycle   2  Pass 0  IDiag  1:
 RMSU=  1.59D-03    CP:  1.01D+00
 E= -2902.86438673071     Delta-E=       -0.104534587872 Rises=F Damp=F
 DIIS: error= 8.64D-03 at cycle   2 NSaved=   2.
 NSaved= 2 IEnMin= 2 EnMin= -2902.86438673071     IErMin= 2 ErrMin= 8.64D-03
 ErrMax= 8.64D-03 EMaxC= 1.00D-01 BMatC= 3.99D-02 BMatP= 6.91D-01
 IDIUse=3 WtCom= 9.14D-01 WtEn= 8.64D-02
 Coeff-Com:  0.151D+00 0.849D+00
 Coeff-En:   0.000D+00 0.100D+01
 Coeff:      0.138D+00 0.862D+00
 Gap=     0.525 Goal=   None    Shift=    0.000
 RMSDP=7.96D-04 MaxDP=4.23D-02 DE=-1.05D-01 OVMax= 2.32D-02

 Cycle   3  Pass 0  IDiag  1:
 RMSU=  4.31D-04    CP:  1.01D+00  7.82D-01
 E= -2902.87784056373     Delta-E=       -0.013453833022 Rises=F Damp=F
 DIIS: error= 2.11D-03 at cycle   3 NSaved=   3.
 NSaved= 3 IEnMin= 3 EnMin= -2902.87784056373     IErMin= 3 ErrMin= 2.11D-03
 ErrMax= 2.11D-03 EMaxC= 1.00D-01 BMatC= 2.29D-03 BMatP= 3.99D-02
 IDIUse=3 WtCom= 9.79D-01 WtEn= 2.11D-02
 Coeff-Com: -0.647D-02 0.170D+00 0.837D+00
 Coeff-En:   0.000D+00 0.000D+00 0.100D+01
 Coeff:     -0.633D-02 0.166D+00 0.840D+00
 Gap=     0.503 Goal=   None    Shift=    0.000
 RMSDP=1.23D-04 MaxDP=5.10D-03 DE=-1.35D-02 OVMax= 7.25D-03

 Cycle   4  Pass 0  IDiag  1:
 RMSU=  4.81D-05    CP:  1.01D+00  8.15D-01  8.89D-01
 E= -2902.87893203790     Delta-E=       -0.001091474174 Rises=F Damp=F
 DIIS: error= 3.74D-04 at cycle   4 NSaved=   4.
 NSaved= 4 IEnMin= 4 EnMin= -2902.87893203790     IErMin= 4 ErrMin= 3.74D-04
 ErrMax= 3.74D-04 EMaxC= 1.00D-01 BMatC= 4.44D-05 BMatP= 2.29D-03
 IDIUse=3 WtCom= 9.96D-01 WtEn= 3.74D-03
 Coeff-Com: -0.420D-02 0.101D-01 0.147D+00 0.847D+00
 Coeff-En:   0.000D+00 0.000D+00 0.000D+00 0.100D+01
 Coeff:     -0.419D-02 0.101D-01 0.147D+00 0.847D+00
 Gap=     0.507 Goal=   None    Shift=    0.000
 RMSDP=2.07D-05 MaxDP=7.02D-04 DE=-1.09D-03 OVMax= 1.64D-03

 Cycle   5  Pass 0  IDiag  1:
 RMSU=  1.30D-05    CP:  1.01D+00  8.16D-01  9.04D-01  9.87D-01
 E= -2902.87896952452     Delta-E=       -0.000037486622 Rises=F Damp=F
 DIIS: error= 1.24D-04 at cycle   5 NSaved=   5.
 NSaved= 5 IEnMin= 5 EnMin= -2902.87896952452     IErMin= 5 ErrMin= 1.24D-04
 ErrMax= 1.24D-04 EMaxC= 1.00D-01 BMatC= 3.45D-06 BMatP= 4.44D-05
 IDIUse=3 WtCom= 9.99D-01 WtEn= 1.24D-03
 Coeff-Com:  0.798D-03-0.149D-01-0.705D-01 0.174D-01 0.107D+01
 Coeff-En:   0.000D+00 0.000D+00 0.000D+00 0.000D+00 0.100D+01
 Coeff:      0.797D-03-0.149D-01-0.704D-01 0.174D-01 0.107D+01
 Gap=     0.506 Goal=   None    Shift=    0.000
 RMSDP=1.02D-05 MaxDP=2.93D-04 DE=-3.75D-05 OVMax= 7.67D-04

 Cycle   6  Pass 0  IDiag  1:
 RMSU=  4.85D-06    CP:  1.01D+00  8.15D-01  9.02D-01  1.07D+00  1.24D+00
 E= -2902.87897468786     Delta-E=       -0.000005163338 Rises=F Damp=F
 DIIS: error= 2.78D-05 at cycle   6 NSaved=   6.
 NSaved= 6 IEnMin= 6 EnMin= -2902.87897468786     IErMin= 6 ErrMin= 2.78D-05
 ErrMax= 2.78D-05 EMaxC= 1.00D-01 BMatC= 2.56D-07 BMatP= 3.45D-06
 IDIUse=1 WtCom= 1.00D+00 WtEn= 0.00D+00
 Coeff-Com:  0.215D-03-0.159D-03-0.868D-02-0.580D-01 0.533D-03 0.107D+01
 Coeff:      0.215D-03-0.159D-03-0.868D-02-0.580D-01 0.533D-03 0.107D+01
 Gap=     0.506 Goal=   None    Shift=    0.000
 RMSDP=3.36D-06 MaxDP=1.10D-04 DE=-5.16D-06 OVMax= 3.32D-04

 Initial convergence to 1.0D-05 achieved.  Increase integral accuracy.
 Cycle   7  Pass 1  IDiag  1:
 E= -2902.87897522655     Delta-E=       -0.000000538692 Rises=F Damp=F
 DIIS: error= 1.69D-05 at cycle   1 NSaved=   1.
 NSaved= 1 IEnMin= 1 EnMin= -2902.87897522655     IErMin= 1 ErrMin= 1.69D-05
 ErrMax= 1.69D-05 EMaxC= 1.00D-01 BMatC= 4.59D-08 BMatP= 4.59D-08
 IDIUse=1 WtCom= 1.00D+00 WtEn= 0.00D+00
 Coeff-Com:  0.100D+01
 Coeff:      0.100D+01
 Gap=     0.506 Goal=   None    Shift=    0.000
 RMSDP=3.36D-06 MaxDP=1.10D-04 DE=-5.39D-07 OVMax= 1.47D-04

 Cycle   8  Pass 1  IDiag  1:
 RMSU=  8.47D-07    CP:  1.00D+00
 E= -2902.87897530894     Delta-E=       -0.000000082384 Rises=F Damp=F
 DIIS: error= 9.24D-06 at cycle   2 NSaved=   2.
 NSaved= 2 IEnMin= 2 EnMin= -2902.87897530894     IErMin= 2 ErrMin= 9.24D-06
 ErrMax= 9.24D-06 EMaxC= 1.00D-01 BMatC= 2.32D-08 BMatP= 4.59D-08
 IDIUse=1 WtCom= 1.00D+00 WtEn= 0.00D+00
 Coeff-Com:  0.346D+00 0.654D+00
 Coeff:      0.346D+00 0.654D+00
 Gap=     0.506 Goal=   None    Shift=    0.000
 RMSDP=5.40D-07 MaxDP=1.94D-05 DE=-8.24D-08 OVMax= 6.45D-05

 Cycle   9  Pass 1  IDiag  1:
 RMSU=  3.41D-07    CP:  1.00D+00  1.20D+00
 E= -2902.87897533731     Delta-E=       -0.000000028374 Rises=F Damp=F
 DIIS: error= 5.49D-06 at cycle   3 NSaved=   3.
 NSaved= 3 IEnMin= 3 EnMin= -2902.87897533731     IErMin= 3 ErrMin= 5.49D-06
 ErrMax= 5.49D-06 EMaxC= 1.00D-01 BMatC= 5.43D-09 BMatP= 2.32D-08
 IDIUse=1 WtCom= 1.00D+00 WtEn= 0.00D+00
 Coeff-Com: -0.554D+00-0.340D+00 0.189D+01
 Coeff:     -0.554D+00-0.340D+00 0.189D+01
 Gap=     0.507 Goal=   None    Shift=    0.000
 RMSDP=1.08D-06 MaxDP=2.28D-05 DE=-2.84D-08 OVMax= 1.60D-04

 Cycle  10  Pass 1  IDiag  1:
 RMSU=  1.42D-07    CP:  1.00D+00  2.00D+00  1.98D+00
 E= -2902.87897536443     Delta-E=       -0.000000027117 Rises=F Damp=F
 DIIS: error= 1.30D-06 at cycle   4 NSaved=   4.
 NSaved= 4 IEnMin= 4 EnMin= -2902.87897536443     IErMin= 4 ErrMin= 1.30D-06
 ErrMax= 1.30D-06 EMaxC= 1.00D-01 BMatC= 3.91D-10 BMatP= 5.43D-09
 IDIUse=1 WtCom= 1.00D+00 WtEn= 0.00D+00
 Coeff-Com:  0.216D+00 0.951D-01-0.823D+00 0.151D+01
 Coeff:      0.216D+00 0.951D-01-0.823D+00 0.151D+01
 Gap=     0.507 Goal=   None    Shift=    0.000
 RMSDP=2.58D-07 MaxDP=6.26D-06 DE=-2.71D-08 OVMax= 4.19D-05

 Cycle  11  Pass 1  IDiag  1:
 RMSU=  3.94D-08    CP:  1.00D+00  2.14D+00  2.19D+00  1.77D+00
 E= -2902.87897536633     Delta-E=       -0.000000001899 Rises=F Damp=F
 DIIS: error= 4.70D-07 at cycle   5 NSaved=   5.
 NSaved= 5 IEnMin= 5 EnMin= -2902.87897536633     IErMin= 5 ErrMin= 4.70D-07
 ErrMax= 4.70D-07 EMaxC= 1.00D-01 BMatC= 6.28D-11 BMatP= 3.91D-10
 IDIUse=1 WtCom= 1.00D+00 WtEn= 0.00D+00
 Coeff-Com:  0.128D+00 0.771D-01-0.447D+00 0.113D+00 0.113D+01
 Coeff:      0.128D+00 0.771D-01-0.447D+00 0.113D+00 0.113D+01
 Gap=     0.506 Goal=   None    Shift=    0.000
 RMSDP=9.88D-08 MaxDP=2.37D-06 DE=-1.90D-09 OVMax= 1.59D-05

 Cycle  12  Pass 1  IDiag  1:
 RMSU=  1.34D-08    CP:  1.00D+00  2.18D+00  2.25D+00  2.11D+00  1.45D+00
 E= -2902.87897536659     Delta-E=       -0.000000000258 Rises=F Damp=F
 DIIS: error= 1.23D-07 at cycle   6 NSaved=   6.
 NSaved= 6 IEnMin= 6 EnMin= -2902.87897536659     IErMin= 6 ErrMin= 1.23D-07
 ErrMax= 1.23D-07 EMaxC= 1.00D-01 BMatC= 4.73D-12 BMatP= 6.28D-11
 IDIUse=1 WtCom= 1.00D+00 WtEn= 0.00D+00
 Coeff-Com: -0.783D-02-0.767D-03 0.315D-01-0.112D+00 0.332D-01 0.106D+01
 Coeff:     -0.783D-02-0.767D-03 0.315D-01-0.112D+00 0.332D-01 0.106D+01
 Gap=     0.506 Goal=   None    Shift=    0.000
 RMSDP=2.07D-08 MaxDP=4.58D-07 DE=-2.58D-10 OVMax= 3.04D-06

 Cycle  13  Pass 1  IDiag  1:
 RMSU=  4.35D-09    CP:  1.00D+00  2.19D+00  2.26D+00  2.17D+00  1.65D+00
                    CP:  1.16D+00
 E= -2902.87897536658     Delta-E=        0.000000000009 Rises=F Damp=F
 DIIS: error= 3.65D-08 at cycle   7 NSaved=   7.
 NSaved= 7 IEnMin= 6 EnMin= -2902.87897536659     IErMin= 7 ErrMin= 3.65D-08
 ErrMax= 3.65D-08 EMaxC= 1.00D-01 BMatC= 4.89D-13 BMatP= 4.73D-12
 IDIUse=1 WtCom= 1.00D+00 WtEn= 0.00D+00
 Coeff-Com: -0.136D-01-0.738D-02 0.468D-01-0.107D-01-0.146D+00 0.894D-01
 Coeff-Com:  0.104D+01
 Coeff:     -0.136D-01-0.738D-02 0.468D-01-0.107D-01-0.146D+00 0.894D-01
 Coeff:      0.104D+01
 Gap=     0.506 Goal=   None    Shift=    0.000
 RMSDP=5.48D-09 MaxDP=1.15D-07 DE= 9.09D-12 OVMax= 6.70D-07

 SCF Done:  E(RHF) =  -2902.87897537     A.U. after   13 cycles
             Convg  =    0.5478D-08             -V/T =  2.0001
 KE= 2.902626887871D+03 PE=-7.237748094757D+03 EE= 1.283646526865D+03
 Leave Link  502 at Wed Dec  4 07:57:59 2019, MaxMem=  268435456 cpu:      98.5
 (Enter /home/matheus/.gaussian/g09/l801.exe)
 Windowed orbitals will be sorted by symmetry type.
 ExpMin= 2.53D-02 ExpMax= 1.17D+07 ExpMxC= 1.33D+04 IAcc=3 IRadAn=         5 AccDes= 0.00D+00
 HarFok:  IExCor=  205 AccDes= 0.00D+00 IRadAn=         5 IDoV=-2
 ScaDFX=  1.000000  1.000000  1.000000  1.000000
 DSYEVD returned Info=          93 IAlg= 4 N=    46 NDim=    46 NE2=     4547561 trying DSYEV.
 DSYEVD returned Info=          93 IAlg= 4 N=    46 NDim=    46 NE2=     4547561 trying DSYEV.
 DSYEVD returned Info=          89 IAlg= 4 N=    59 NDim=    59 NE2=     4547561 trying DSYEV.
 Largest valence mixing into a core orbital is  1.44D-04
 Largest core mixing into a valence orbital is  2.59D-05
 Range of M.O.s used for correlation:    12   197
 NBasis=   197 NAE=    27 NBE=    27 NFC=    11 NFV=     0
 NROrb=    186 NOA=    16 NOB=    16 NVA=   170 NVB=   170

 **** Warning!!: The largest alpha MO coefficient is  0.12392833D+02

 Leave Link  801 at Wed Dec  4 07:57:59 2019, MaxMem=  268435456 cpu:       0.2
 (Enter /home/matheus/.gaussian/g09/l804.exe)
 Closed-shell transformation, MDV=   268435456 ITran=4 ISComp=1.
 Semi-Direct transformation.
 ModeAB=           2 MOrb=            16 LenV=     267326878
 LASXX=     48528660 LTotXX=    48528660 LenRXX=    48528660
 LTotAB=    49298776 MaxLAS=    78372960 LenRXY=    78372960
 NonZer=    97057320 LenScr=   146313216 LnRSAI=           0
 LnScr1=           0 LExtra=           0 Total=    273214836
 MaxDsk=          -1 SrtSym=           F ITran=            4
 DoSDTr:  NPSUse=  2
 JobTyp=0 Pass  1:  I=   1 to  16.
 (rs|ai) integrals will be sorted in core.
 Complete sort for first half transformation.
 First half transformation complete.
 Begin second half transformation for I=  10.
 Begin second half transformation for I=  10.
 Complete sort for second half transformation.
 Second half transformation complete.
 SymMOI:  orbitals are not symmetric.
 Spin components of T(2) and E(2):
     alpha-alpha T2 =       0.2596585700D-01 E2=     -0.9996637326D-01
     alpha-beta  T2 =       0.1419397663D+00 E2=     -0.5566317849D+00
     beta-beta   T2 =       0.2596585700D-01 E2=     -0.9996637326D-01
 ANorm=    0.1092644261D+01
 E2 =    -0.7565645314D+00 EUMP2 =    -0.29036355398979D+04
 Leave Link  804 at Wed Dec  4 07:58:23 2019, MaxMem=  268435456 cpu:      46.7
 (Enter /home/matheus/.gaussian/g09/l913.exe)
 CIDS:  MDV=   268435456.
 Frozen-core window:  NFC=  11 NFV=   0.
 IFCWin=0 IBDFC=1 NFBD=     0     0 NFCmp=     0     0 NFFFC=     0     0
 Using DD3R+UMP44R for 1st iteration, S=T.
 Using DD4RQ for 2nd and later iterations.
 Would need an additional       431206676 words for in-memory AO integral storage.
 MP4(SDTQ)
 =========
 DD1Dir will call FoFDir   1 times, MxPair=       272
 NAB=   136 NAA=     0 NBB=     0 NumPrc=  2.
 Integrals replicated using symmetry in FoFDir.
 MinBra= 0 MaxBra= 3 Meth= 1.
 IRaf=       0 NMat= 272 IRICut=     340 DoRegI=T DoRafI=T ISym2E= 2 JSym2E=2.
 MP4(D)= -0.14971316D-01
 MP4(S)= -0.64553467D-02
 MP4(R+Q)=  0.15394682D-01
 T4(AAA)= -0.10430793D-02
 T4(AAB)= -0.14177181D-01
 Time for triples=     1304.95 seconds.
 MP4(T)=   -0.30440520D-01
 E3=       -0.11251531D-01        EUMP3=      -0.29036467914D+04
 E4(DQ)=    0.42336611D-03        UMP4(DQ)=   -0.29036463681D+04
 E4(SDQ)=  -0.60319806D-02        UMP4(SDQ)=  -0.29036528234D+04
 E4(SDTQ)= -0.36472501D-01        UMP4(SDTQ)= -0.29036832639D+04
 VARIATIONAL ENERGIES WITH THE FIRST-ORDER WAVEFUNCTION:
 E(VAR1)=  -0.29035221066D+04     E(CISD,4)=  -0.29035215418D+04
 Largest amplitude= 2.58D-02
 Leave Link  913 at Wed Dec  4 08:10:16 2019, MaxMem=  268435456 cpu:    1395.5
 (Enter /home/matheus/.gaussian/g09/l601.exe)
 Copying SCF densities to generalized density rwf, IOpCl= 0 IROHF=0.

 **********************************************************************

            Population analysis using the SCF density.

 **********************************************************************

 Orbital symmetries:
       Occupied  (A) (A) (A) (A) (A) (A) (A) (A) (A) (A) (A) (A)
                 (A) (A) (A) (A) (A) (A) (A) (A) (A) (A) (A) (A)
                 (A) (A) (A)
       Virtual   (A) (A) (A) (A) (A) (A) (A) (A) (A) (A) (A) (A)
                 (A) (A) (A) (A) (A) (A) (A) (A) (A) (A) (A) (A)
                 (A) (A) (A) (A) (A) (A) (A) (A) (A) (A) (A) (A)
                 (A) (A) (A) (A) (A) (A) (A) (A) (A) (A) (A) (A)
                 (A) (A) (A) (A) (A) (A) (A) (A) (A) (A) (A) (A)
                 (A) (A) (A) (A) (A) (A) (A) (A) (A) (A) (A) (A)
                 (A) (A) (A) (A) (A) (A) (A) (A) (A) (A) (A) (A)
                 (A) (A) (A) (A) (A) (A) (A) (A) (A) (A) (A) (A)
                 (A) (A) (A) (A) (A) (A) (A) (A) (A) (A) (A) (A)
                 (A) (A) (A) (A) (A) (A) (A) (A) (A) (A) (A) (A)
                 (A) (A) (A) (A) (A) (A) (A) (A) (A) (A) (A) (A)
                 (A) (A) (A) (A) (A) (A) (A) (A) (A) (A) (A) (A)
                 (A) (A) (A) (A) (A) (A) (A) (A) (A) (A) (A) (A)
                 (A) (A) (A) (A) (A) (A) (A) (A) (A) (A) (A) (A)
                 (A) (A)
 The electronic state is 1-A.
 Alpha  occ. eigenvalues -- -520.17402 -69.91157 -63.01815 -63.01813 -63.01809
 Alpha  occ. eigenvalues --  -20.62865 -20.62548 -10.85821  -8.34044  -8.34019
 Alpha  occ. eigenvalues --   -8.34002  -3.83425  -3.83420  -3.83397  -3.83371
 Alpha  occ. eigenvalues --   -3.83367  -1.46572  -1.21740  -1.16411  -0.71781
 Alpha  occ. eigenvalues --   -0.70726  -0.61268  -0.54171  -0.53335  -0.52862
 Alpha  occ. eigenvalues --   -0.51146  -0.47119
 Alpha virt. eigenvalues --    0.03530   0.04510   0.08912   0.10271   0.11537
 Alpha virt. eigenvalues --    0.12488   0.15064   0.15795   0.17383   0.18587
 Alpha virt. eigenvalues --    0.19258   0.21350   0.23697   0.25898   0.26653
 Alpha virt. eigenvalues --    0.28176   0.28571   0.31423   0.34186   0.36070
 Alpha virt. eigenvalues --    0.36618   0.36967   0.38262   0.41953   0.42618
 Alpha virt. eigenvalues --    0.44754   0.46024   0.51796   0.56892   0.59959
 Alpha virt. eigenvalues --    0.61104   0.63958   0.67645   0.71813   0.72502
 Alpha virt. eigenvalues --    0.76699   0.77389   0.77648   0.79781   0.81572
 Alpha virt. eigenvalues --    0.83306   0.84542   0.85681   0.87367   0.87935
 Alpha virt. eigenvalues --    0.91045   0.91341   0.93068   0.95443   0.97777
 Alpha virt. eigenvalues --    0.99543   1.00718   1.02282   1.02818   1.05921
 Alpha virt. eigenvalues --    1.08727   1.08864   1.13129   1.14794   1.17519
 Alpha virt. eigenvalues --    1.18013   1.21220   1.23587   1.25935   1.30344
 Alpha virt. eigenvalues --    1.32713   1.39815   1.42300   1.47874   1.50528
 Alpha virt. eigenvalues --    1.52318   1.59084   1.62218   1.64219   1.69884
 Alpha virt. eigenvalues --    1.75216   1.87289   1.96578   1.99924   2.08016
 Alpha virt. eigenvalues --    2.13333   2.16856   2.23485   2.28056   2.31141
 Alpha virt. eigenvalues --    2.34266   2.37572   2.38946   2.40580   2.41026
 Alpha virt. eigenvalues --    2.43032   2.47285   2.52688   2.53444   2.54198
 Alpha virt. eigenvalues --    2.55212   2.57246   2.61745   2.64200   2.67453
 Alpha virt. eigenvalues --    2.69584   2.69920   2.71003   2.75316   2.75728
 Alpha virt. eigenvalues --    2.78695   2.80113   2.82320   2.85021   2.87909
 Alpha virt. eigenvalues --    2.92850   2.95901   3.00030   3.03137   3.07271
 Alpha virt. eigenvalues --    3.09431   3.24777   3.29914   3.33836   3.83532
 Alpha virt. eigenvalues --    3.88462   4.13319   4.19961   4.22882   4.26978
 Alpha virt. eigenvalues --    4.34523   4.39415   4.42266   4.47660   4.50300
 Alpha virt. eigenvalues --    4.66890   4.71516   4.80265   4.84331   5.00443
 Alpha virt. eigenvalues --    5.14695   5.23594   5.32486   5.35444   5.37837
 Alpha virt. eigenvalues --    5.51635   5.80403   6.16837   6.40192   6.41688
 Alpha virt. eigenvalues --    6.45135   6.65446   6.69937   6.75419   6.88243
 Alpha virt. eigenvalues --    6.98307   7.13999   7.15634   7.20268   7.22446
 Alpha virt. eigenvalues --    7.23842   7.27353   7.29022   7.33720   7.40681
 Alpha virt. eigenvalues --    7.43878   7.58764   7.63705   7.79354   8.16730
 Alpha virt. eigenvalues --    8.17882   8.47341   8.52622  14.59777  15.30718
          Condensed to atoms (all electrons):
              1          2          3          4          5
     1  O    8.113359  -0.072994   0.256820  -0.013646  -0.026443
     2  O   -0.072994   8.139119  -0.001309   0.254300  -0.011151
     3  H    0.256820  -0.001309   0.474115   0.003286   0.001889
     4  H   -0.013646   0.254300   0.003286   0.471560  -0.004299
     5  Kr  -0.026443  -0.011151   0.001889  -0.004299  36.028942
 Mulliken atomic charges:
              1
     1  O   -0.257096
     2  O   -0.307965
     3  H    0.265200
     4  H    0.288799
     5  Kr   0.011062
 Sum of Mulliken atomic charges =   0.00000
 Mulliken charges with hydrogens summed into heavy atoms:
              1
     1  O    0.008104
     2  O   -0.019166
     5  Kr   0.011062
 Sum of Mulliken charges with hydrogens summed into heavy atoms =   0.00000
 Electronic spatial extent (au):  <R**2>=            489.4561
 Charge=              0.0000 electrons
 Dipole moment (field-independent basis, Debye):
    X=             -0.7084    Y=             -0.3522    Z=              1.2481  Tot=              1.4777
 Quadrupole moment (field-independent basis, Debye-Ang):
   XX=            -29.7324   YY=            -28.0811   ZZ=            -29.5679
   XY=             -3.5658   XZ=              3.5377   YZ=             -1.3974
 Traceless Quadrupole moment (field-independent basis, Debye-Ang):
   XX=             -0.6053   YY=              1.0460   ZZ=             -0.4407
   XY=             -3.5658   XZ=              3.5377   YZ=             -1.3974
 Octapole moment (field-independent basis, Debye-Ang**2):
  XXX=            -13.4992  YYY=             -0.8744  ZZZ=              0.8314  XYY=             -4.0055
  XXY=            -13.7318  XXZ=              9.5477  XZZ=             -5.7727  YZZ=             -1.1925
  YYZ=              1.7025  XYZ=             -3.8833
 Hexadecapole moment (field-independent basis, Debye-Ang**3):
 XXXX=           -391.2689 YYYY=            -62.7229 ZZZZ=            -29.0805 XXXY=            -39.0803
 XXXZ=             26.6607 YYYX=             -5.7220 YYYZ=             -1.8862 ZZZX=              2.5185
 ZZZY=             -1.1746 XXYY=            -75.8873 XXZZ=            -72.6973 YYZZ=            -16.2958
 XXYZ=            -10.6616 YYXZ=              4.4824 ZZXY=             -2.7207
 N-N= 1.485957046553D+02 E-N=-7.237748092357D+03  KE= 2.902626887871D+03
 Leave Link  601 at Wed Dec  4 08:10:17 2019, MaxMem=  268435456 cpu:       0.2
 (Enter /home/matheus/.gaussian/g09/l108.exe)
 Variable Step   Value    
 -------- ---- -----------
     1       1    5.858151
 Leave Link  108 at Wed Dec  4 08:10:17 2019, MaxMem=  268435456 cpu:       0.1
 (Enter /home/matheus/.gaussian/g09/l202.exe)
 ---------------------------------------------------------------------------------------------------
                            Z-MATRIX (ANGSTROMS AND DEGREES)
   CD    Cent   Atom    N1       Length/X        N2       Alpha/Y        N3        Beta/Z          J
 ---------------------------------------------------------------------------------------------------
      1      1  O        0   0.000000          0.000000          0.725000
      2      2  O        0   0.000000          0.000000         -0.725000
      3      3  H        0   0.703781         -0.590542          1.023510
      4      4  H        0   0.000000          0.918721         -1.023510
      5      5  Kr       0   0.000000          3.100000          0.000000
 ---------------------------------------------------------------------------------------------------
                         Z-Matrix orientation:                         
 ---------------------------------------------------------------------
 Center     Atomic      Atomic             Coordinates (Angstroms)
 Number     Number       Type             X           Y           Z
 ---------------------------------------------------------------------
      1          8           0        0.000000    0.000000    0.725000
      2          8           0        0.000000    0.000000   -0.725000
      3          1           0        0.703781   -0.590542    1.023510
      4          1           0        0.000000    0.918721   -1.023510
      5         36           0        0.000000    3.100000    0.000000
 ---------------------------------------------------------------------
                    Distance matrix (angstroms):
                    1          2          3          4          5
     1  O    0.000000
     2  O    1.450000   0.000000
     3  H    0.966000   1.975180   0.000000
     4  H    1.975180   0.966000   2.638840   0.000000
     5  Kr   3.183650   3.183650   3.893967   2.409472   0.000000
 Stoichiometry    H2KrO2
 Framework group  C1[X(H2KrO2)]
 Deg. of freedom     9
 Full point group                 C1      NOp   1
 RotChk:  IX=0 Diff= 1.85D-03
 Largest Abelian subgroup         C1      NOp   1
 Largest concise Abelian subgroup C1      NOp   1
                         Standard orientation:                         
 ---------------------------------------------------------------------
 Center     Atomic      Atomic             Coordinates (Angstroms)
 Number     Number       Type             X           Y           Z
 ---------------------------------------------------------------------
      1          8           0        2.082797   -0.689234   -0.094740
      2          8           0        2.061246    0.757168    0.005032
      3          1           0        2.689192   -1.025834    0.577674
      4          1           0        1.138314    1.040279    0.039690
      5         36           0       -1.027218   -0.015498    0.002786
 ---------------------------------------------------------------------
 Rotational constants (GHZ):     26.0603273      2.1711389      2.0113529
 Leave Link  202 at Wed Dec  4 08:10:17 2019, MaxMem=  268435456 cpu:       0.0
 (Enter /home/matheus/.gaussian/g09/l301.exe)
 Standard basis: Aug-CC-pVTZ (5D, 7F)
 Ernie: Thresh=  0.10000D-02 Tol=  0.10000D-05 Strict=F.
 Ernie:  38 primitive shells out of 205 were deleted.
 There are   197 symmetry adapted basis functions of A   symmetry.
 Integral buffers will be    131072 words long.
 Raffenetti 1 integral format.
 Two-electron integral symmetry is turned on.
   197 basis functions,   415 primitive gaussians,   229 cartesian basis functions
    27 alpha electrons       27 beta electrons
       nuclear repulsion energy       145.1485964360 Hartrees.
 IExCor=    0 DFT=F Ex=HF Corr=None ExCW=0 ScaHFX=  1.000000
 ScaDFX=  1.000000  1.000000  1.000000  1.000000 ScalE2=  1.000000  1.000000
 IRadAn=      5 IRanWt=     -1 IRanGd=            0 ICorTp=0
 NAtoms=    5 NActive=    5 NUniq=    5 SFac= 1.00D+00 NAtFMM=   60 NAOKFM=F Big=F
 Leave Link  301 at Wed Dec  4 08:10:17 2019, MaxMem=  268435456 cpu:       0.1
 (Enter /home/matheus/.gaussian/g09/l302.exe)
 NPDir=0 NMtPBC=     1 NCelOv=     1 NCel=       1 NClECP=     1 NCelD=      1
         NCelK=      1 NCelE2=     1 NClLst=     1 CellRange=     0.0.
 One-electron integrals computed using PRISM.
 NBasis=   197 RedAO= T  NBF=   197
 NBsUse=   197 1.00D-06 NBFU=   197
 Leave Link  302 at Wed Dec  4 08:10:17 2019, MaxMem=  268435456 cpu:       0.2
 (Enter /home/matheus/.gaussian/g09/l303.exe)
 DipDrv:  MaxL=1.
 Leave Link  303 at Wed Dec  4 08:10:18 2019, MaxMem=  268435456 cpu:       0.1
 (Enter /home/matheus/.gaussian/g09/l401.exe)
 Initial guess read from the read-write file.
 B after Tr=     0.000000    0.000000    0.000000
         Rot=    1.000000    0.000000    0.000000    0.000000 Ang=   0.00 deg.
 Guess basis will be translated and rotated to current coordinates.
 Initial guess orbital symmetries:
       Occupied  (A) (A) (A) (A) (A) (A) (A) (A) (A) (A) (A) (A)
                 (A) (A) (A) (A) (A) (A) (A) (A) (A) (A) (A) (A)
                 (A) (A) (A)
       Virtual   (A) (A) (A) (A) (A) (A) (A) (A) (A) (A) (A) (A)
                 (A) (A) (A) (A) (A) (A) (A) (A) (A) (A) (A) (A)
                 (A) (A) (A) (A) (A) (A) (A) (A) (A) (A) (A) (A)
                 (A) (A) (A) (A) (A) (A) (A) (A) (A) (A) (A) (A)
                 (A) (A) (A) (A) (A) (A) (A) (A) (A) (A) (A) (A)
                 (A) (A) (A) (A) (A) (A) (A) (A) (A) (A) (A) (A)
                 (A) (A) (A) (A) (A) (A) (A) (A) (A) (A) (A) (A)
                 (A) (A) (A) (A) (A) (A) (A) (A) (A) (A) (A) (A)
                 (A) (A) (A) (A) (A) (A) (A) (A) (A) (A) (A) (A)
                 (A) (A) (A) (A) (A) (A) (A) (A) (A) (A) (A) (A)
                 (A) (A) (A) (A) (A) (A) (A) (A) (A) (A) (A) (A)
                 (A) (A) (A) (A) (A) (A) (A) (A) (A) (A) (A) (A)
                 (A) (A) (A) (A) (A) (A) (A) (A) (A) (A) (A) (A)
                 (A) (A) (A) (A) (A) (A) (A) (A) (A) (A) (A) (A)
                 (A) (A)
 The electronic state of the initial guess is 1-A.
 Generating alternative initial guess.
 Harris functional with IExCor=  205 diagonalized for initial guess.
 ExpMin= 2.53D-02 ExpMax= 1.17D+07 ExpMxC= 1.33D+04 IAcc=3 IRadAn=         5 AccDes= 0.00D+00
 HarFok:  IExCor=  205 AccDes= 0.00D+00 IRadAn=         5 IDoV= 1
 ScaDFX=  1.000000  1.000000  1.000000  1.000000
 FoFCou: FMM=F IPFlag=           0 FMFlag=      100000 FMFlg1=           0
         NFxFlg=           0 DoJE=T BraDBF=F KetDBF=T FulRan=T
         Omega=  0.000000  0.000000  1.000000  0.000000  0.000000 ICntrl=     500 IOpCl=  0
         NMat0=    1 NMatS0=    1 NMatT0=    0 NMatD0=    1 NMtDS0=    0 NMtDT0=    0
         I1Cent=           4 NGrid=           0.
 Petite list used in FoFCou.
 Harris En= -2901.93267878520    
 Leave Link  401 at Wed Dec  4 08:10:18 2019, MaxMem=  268435456 cpu:       1.4
 (Enter /home/matheus/.gaussian/g09/l502.exe)
 Closed shell SCF:
 Requested convergence on RMS density matrix=1.00D-08 within 128 cycles.
 Requested convergence on MAX density matrix=1.00D-06.
 Requested convergence on             energy=1.00D-06.
 No special actions if energy rises.
 Using DIIS extrapolation, IDIIS=  1040.
 Integral symmetry usage will be decided dynamically.
 IEnd=      178489 IEndB=      178489 NGot=   268435456 MDV=   268326278
 LenX=   268326278 LenY=   268273396
 Fock matrices will be formed incrementally for  20 cycles.

 Cycle   1  Pass 0  IDiag  1:
 FoFCou: FMM=F IPFlag=           0 FMFlag=      100000 FMFlg1=           0
         NFxFlg=           0 DoJE=F BraDBF=F KetDBF=F FulRan=T
         Omega=  0.000000  0.000000  1.000000  0.000000  0.000000 ICntrl=       0 IOpCl=  0
         NMat0=    1 NMatS0=    1 NMatT0=    0 NMatD0=    1 NMtDS0=    0 NMtDT0=    0
         I1Cent=           0 NGrid=           0.
 Symmetry not used in FoFCou.
 E= -2902.88134459267    
 DIIS: error= 4.77D-04 at cycle   1 NSaved=   1.
 NSaved= 1 IEnMin= 1 EnMin= -2902.88134459267     IErMin= 1 ErrMin= 4.77D-04
 ErrMax= 4.77D-04 EMaxC= 1.00D-01 BMatC= 6.88D-05 BMatP= 6.88D-05
 IDIUse=3 WtCom= 9.95D-01 WtEn= 4.77D-03
 Coeff-Com:  0.100D+01
 Coeff-En:   0.100D+01
 Coeff:      0.100D+01
 Gap=     0.508 Goal=   None    Shift=    0.000
 RMSDP=7.21D-05 MaxDP=3.11D-03              OVMax= 3.04D-03

 Cycle   2  Pass 0  IDiag  1:
 RMSU=  5.10D-05    CP:  1.00D+00
 E= -2902.88142596783     Delta-E=       -0.000081375156 Rises=F Damp=F
 DIIS: error= 8.40D-05 at cycle   2 NSaved=   2.
 NSaved= 2 IEnMin= 2 EnMin= -2902.88142596783     IErMin= 2 ErrMin= 8.40D-05
 ErrMax= 8.40D-05 EMaxC= 1.00D-01 BMatC= 2.39D-06 BMatP= 6.88D-05
 IDIUse=1 WtCom= 1.00D+00 WtEn= 0.00D+00
 Coeff-Com: -0.791D-01 0.108D+01
 Coeff:     -0.791D-01 0.108D+01
 Gap=     0.507 Goal=   None    Shift=    0.000
 RMSDP=1.35D-05 MaxDP=4.83D-04 DE=-8.14D-05 OVMax= 6.24D-04

 Cycle   3  Pass 0  IDiag  1:
 RMSU=  6.26D-06    CP:  1.00D+00  1.14D+00
 E= -2902.88142943532     Delta-E=       -0.000003467494 Rises=F Damp=F
 DIIS: error= 2.92D-05 at cycle   3 NSaved=   3.
 NSaved= 3 IEnMin= 3 EnMin= -2902.88142943532     IErMin= 3 ErrMin= 2.92D-05
 ErrMax= 2.92D-05 EMaxC= 1.00D-01 BMatC= 3.99D-07 BMatP= 2.39D-06
 IDIUse=1 WtCom= 1.00D+00 WtEn= 0.00D+00
 Coeff-Com: -0.444D-01 0.268D+00 0.776D+00
 Coeff:     -0.444D-01 0.268D+00 0.776D+00
 Gap=     0.507 Goal=   None    Shift=    0.000
 RMSDP=2.55D-06 MaxDP=7.13D-05 DE=-3.47D-06 OVMax= 1.64D-04

 Initial convergence to 1.0D-05 achieved.  Increase integral accuracy.
 Cycle   4  Pass 1  IDiag  1:
 E= -2902.88142980487     Delta-E=       -0.000000369546 Rises=F Damp=F
 DIIS: error= 1.32D-05 at cycle   1 NSaved=   1.
 NSaved= 1 IEnMin= 1 EnMin= -2902.88142980487     IErMin= 1 ErrMin= 1.32D-05
 ErrMax= 1.32D-05 EMaxC= 1.00D-01 BMatC= 4.45D-08 BMatP= 4.45D-08
 IDIUse=1 WtCom= 1.00D+00 WtEn= 0.00D+00
 Coeff-Com:  0.100D+01
 Coeff:      0.100D+01
 Gap=     0.507 Goal=   None    Shift=    0.000
 RMSDP=2.55D-06 MaxDP=7.13D-05 DE=-3.70D-07 OVMax= 8.88D-05

 Cycle   5  Pass 1  IDiag  1:
 RMSU=  8.92D-07    CP:  1.00D+00
 E= -2902.88142985931     Delta-E=       -0.000000054437 Rises=F Damp=F
 DIIS: error= 9.04D-06 at cycle   2 NSaved=   2.
 NSaved= 2 IEnMin= 2 EnMin= -2902.88142985931     IErMin= 2 ErrMin= 9.04D-06
 ErrMax= 9.04D-06 EMaxC= 1.00D-01 BMatC= 1.79D-08 BMatP= 4.45D-08
 IDIUse=1 WtCom= 1.00D+00 WtEn= 0.00D+00
 Coeff-Com:  0.340D+00 0.660D+00
 Coeff:      0.340D+00 0.660D+00
 Gap=     0.507 Goal=   None    Shift=    0.000
 RMSDP=3.99D-07 MaxDP=1.66D-05 DE=-5.44D-08 OVMax= 3.68D-05

 Cycle   6  Pass 1  IDiag  1:
 RMSU=  2.77D-07    CP:  1.00D+00  1.06D+00
 E= -2902.88142987590     Delta-E=       -0.000000016591 Rises=F Damp=F
 DIIS: error= 3.39D-06 at cycle   3 NSaved=   3.
 NSaved= 3 IEnMin= 3 EnMin= -2902.88142987590     IErMin= 3 ErrMin= 3.39D-06
 ErrMax= 3.39D-06 EMaxC= 1.00D-01 BMatC= 2.49D-09 BMatP= 1.79D-08
 IDIUse=1 WtCom= 1.00D+00 WtEn= 0.00D+00
 Coeff-Com: -0.347D+00-0.140D+00 0.149D+01
 Coeff:     -0.347D+00-0.140D+00 0.149D+01
 Gap=     0.507 Goal=   None    Shift=    0.000
 RMSDP=4.90D-07 MaxDP=1.31D-05 DE=-1.66D-08 OVMax= 3.99D-05

 Cycle   7  Pass 1  IDiag  1:
 RMSU=  1.07D-07    CP:  1.00D+00  1.40D+00  1.44D+00
 E= -2902.88142988229     Delta-E=       -0.000000006396 Rises=F Damp=F
 DIIS: error= 6.29D-07 at cycle   4 NSaved=   4.
 NSaved= 4 IEnMin= 4 EnMin= -2902.88142988229     IErMin= 4 ErrMin= 6.29D-07
 ErrMax= 6.29D-07 EMaxC= 1.00D-01 BMatC= 8.71D-11 BMatP= 2.49D-09
 IDIUse=1 WtCom= 1.00D+00 WtEn= 0.00D+00
 Coeff-Com: -0.682D-01-0.363D-01 0.219D+00 0.885D+00
 Coeff:     -0.682D-01-0.363D-01 0.219D+00 0.885D+00
 Gap=     0.507 Goal=   None    Shift=    0.000
 RMSDP=5.69D-08 MaxDP=1.83D-06 DE=-6.40D-09 OVMax= 4.92D-06

 Cycle   8  Pass 1  IDiag  1:
 RMSU=  2.45D-08    CP:  1.00D+00  1.41D+00  1.47D+00  1.27D+00
 E= -2902.88142988244     Delta-E=       -0.000000000142 Rises=F Damp=F
 DIIS: error= 2.39D-07 at cycle   5 NSaved=   5.
 NSaved= 5 IEnMin= 5 EnMin= -2902.88142988244     IErMin= 5 ErrMin= 2.39D-07
 ErrMax= 2.39D-07 EMaxC= 1.00D-01 BMatC= 1.70D-11 BMatP= 8.71D-11
 IDIUse=1 WtCom= 1.00D+00 WtEn= 0.00D+00
 Coeff-Com:  0.679D-01 0.360D-01-0.302D+00-0.347D-01 0.123D+01
 Coeff:      0.679D-01 0.360D-01-0.302D+00-0.347D-01 0.123D+01
 Gap=     0.507 Goal=   None    Shift=    0.000
 RMSDP=3.93D-08 MaxDP=1.01D-06 DE=-1.42D-10 OVMax= 3.28D-06

 Cycle   9  Pass 1  IDiag  1:
 RMSU=  1.11D-08    CP:  1.00D+00  1.41D+00  1.47D+00  1.49D+00  1.36D+00
 E= -2902.88142988247     Delta-E=       -0.000000000031 Rises=F Damp=F
 DIIS: error= 7.49D-08 at cycle   6 NSaved=   6.
 NSaved= 6 IEnMin= 6 EnMin= -2902.88142988247     IErMin= 6 ErrMin= 7.49D-08
 ErrMax= 7.49D-08 EMaxC= 1.00D-01 BMatC= 1.33D-12 BMatP= 1.70D-11
 IDIUse=1 WtCom= 1.00D+00 WtEn= 0.00D+00
 Coeff-Com: -0.724D-02-0.134D-02 0.339D-01-0.517D-01-0.202D+00 0.123D+01
 Coeff:     -0.724D-02-0.134D-02 0.339D-01-0.517D-01-0.202D+00 0.123D+01
 Gap=     0.507 Goal=   None    Shift=    0.000
 RMSDP=1.02D-08 MaxDP=2.19D-07 DE=-3.09D-11 OVMax= 1.24D-06

 Cycle  10  Pass 1  IDiag  1:
 RMSU=  3.36D-09    CP:  1.00D+00  1.41D+00  1.48D+00  1.50D+00  1.46D+00
                    CP:  1.49D+00
 E= -2902.88142988247     Delta-E=       -0.000000000007 Rises=F Damp=F
 DIIS: error= 3.17D-08 at cycle   7 NSaved=   7.
 NSaved= 7 IEnMin= 7 EnMin= -2902.88142988247     IErMin= 7 ErrMin= 3.17D-08
 ErrMax= 3.17D-08 EMaxC= 1.00D-01 BMatC= 2.45D-13 BMatP= 1.33D-12
 IDIUse=1 WtCom= 1.00D+00 WtEn= 0.00D+00
 Coeff-Com: -0.131D-01-0.636D-02 0.568D-01 0.107D-01-0.233D+00-0.112D+00
 Coeff-Com:  0.130D+01
 Coeff:     -0.131D-01-0.636D-02 0.568D-01 0.107D-01-0.233D+00-0.112D+00
 Coeff:      0.130D+01
 Gap=     0.507 Goal=   None    Shift=    0.000
 RMSDP=6.30D-09 MaxDP=1.75D-07 DE=-6.82D-12 OVMax= 6.95D-07

 SCF Done:  E(RHF) =  -2902.88142988     A.U. after   10 cycles
             Convg  =    0.6297D-08             -V/T =  2.0001
 KE= 2.902608644989D+03 PE=-7.230839825667D+03 EE= 1.280201154360D+03
 Leave Link  502 at Wed Dec  4 08:10:55 2019, MaxMem=  268435456 cpu:      73.2
 (Enter /home/matheus/.gaussian/g09/l801.exe)
 Windowed orbitals will be sorted by symmetry type.
 ExpMin= 2.53D-02 ExpMax= 1.17D+07 ExpMxC= 1.33D+04 IAcc=3 IRadAn=         5 AccDes= 0.00D+00
 HarFok:  IExCor=  205 AccDes= 0.00D+00 IRadAn=         5 IDoV=-2
 ScaDFX=  1.000000  1.000000  1.000000  1.000000
 DSYEVD returned Info=          93 IAlg= 4 N=    46 NDim=    46 NE2=     4547561 trying DSYEV.
 DSYEVD returned Info=          89 IAlg= 4 N=    59 NDim=    59 NE2=     4547561 trying DSYEV.
 Largest valence mixing into a core orbital is  1.44D-04
 Largest core mixing into a valence orbital is  2.59D-05
 Range of M.O.s used for correlation:    12   197
 NBasis=   197 NAE=    27 NBE=    27 NFC=    11 NFV=     0
 NROrb=    186 NOA=    16 NOB=    16 NVA=   170 NVB=   170

 **** Warning!!: The largest alpha MO coefficient is  0.13264018D+02

 Leave Link  801 at Wed Dec  4 08:10:56 2019, MaxMem=  268435456 cpu:       0.3
 (Enter /home/matheus/.gaussian/g09/l804.exe)
 Closed-shell transformation, MDV=   268435456 ITran=4 ISComp=1.
 Semi-Direct transformation.
 ModeAB=           2 MOrb=            16 LenV=     267327990
 LASXX=     48528660 LTotXX=    48528660 LenRXX=    48528660
 LTotAB=    49298776 MaxLAS=    78372960 LenRXY=    78372960
 NonZer=    97057320 LenScr=   146313216 LnRSAI=           0
 LnScr1=           0 LExtra=           0 Total=    273214836
 MaxDsk=          -1 SrtSym=           F ITran=            4
 DoSDTr:  NPSUse=  2
 JobTyp=0 Pass  1:  I=   1 to  16.
 (rs|ai) integrals will be sorted in core.
 Complete sort for first half transformation.
 First half transformation complete.
 Begin second half transformation for I=  10.
 Begin second half transformation for I=  10.
 Complete sort for second half transformation.
 Second half transformation complete.
 SymMOI:  orbitals are not symmetric.
 Spin components of T(2) and E(2):
     alpha-alpha T2 =       0.2589175222D-01 E2=     -0.9970964066D-01
     alpha-beta  T2 =       0.1418443199D+00 E2=     -0.5560475198D+00
     beta-beta   T2 =       0.2589175222D-01 E2=     -0.9970964066D-01
 ANorm=    0.1092532757D+01
 E2 =    -0.7554668011D+00 EUMP2 =    -0.29036368966836D+04
 Leave Link  804 at Wed Dec  4 08:11:20 2019, MaxMem=  268435456 cpu:      46.4
 (Enter /home/matheus/.gaussian/g09/l913.exe)
 CIDS:  MDV=   268435456.
 Frozen-core window:  NFC=  11 NFV=   0.
 IFCWin=0 IBDFC=1 NFBD=     0     0 NFCmp=     0     0 NFFFC=     0     0
 Using DD3R+UMP44R for 1st iteration, S=T.
 Using DD4RQ for 2nd and later iterations.
 Would need an additional       431206676 words for in-memory AO integral storage.
 MP4(SDTQ)
 =========
 DD1Dir will call FoFDir   1 times, MxPair=       272
 NAB=   136 NAA=     0 NBB=     0 NumPrc=  2.
 Integrals replicated using symmetry in FoFDir.
 MinBra= 0 MaxBra= 3 Meth= 1.
 IRaf=       0 NMat= 272 IRICut=     340 DoRegI=T DoRafI=T ISym2E= 2 JSym2E=2.
 MP4(D)= -0.14969345D-01
 MP4(S)= -0.64273652D-02
 MP4(R+Q)=  0.15324928D-01
 T4(AAA)= -0.10333412D-02
 T4(AAB)= -0.14114272D-01
 Time for triples=     1303.22 seconds.
 MP4(T)=   -0.30295227D-01
 E3=       -0.11406085D-01        EUMP3=      -0.29036483028D+04
 E4(DQ)=    0.35558340D-03        UMP4(DQ)=   -0.29036479472D+04
 E4(SDQ)=  -0.60717818D-02        UMP4(SDQ)=  -0.29036543746D+04
 E4(SDTQ)= -0.36367009D-01        UMP4(SDTQ)= -0.29036846698D+04
 VARIATIONAL ENERGIES WITH THE FIRST-ORDER WAVEFUNCTION:
 E(VAR1)=  -0.29035239022D+04     E(CISD,4)=  -0.29035234201D+04
 Largest amplitude= 2.71D-02
 Leave Link  913 at Wed Dec  4 08:23:06 2019, MaxMem=  268435456 cpu:    1392.2
 (Enter /home/matheus/.gaussian/g09/l108.exe)
 Variable Step   Value    
 -------- ---- -----------
     1       2    6.047124
 Leave Link  108 at Wed Dec  4 08:23:06 2019, MaxMem=  268435456 cpu:       0.0
 (Enter /home/matheus/.gaussian/g09/l202.exe)
 ---------------------------------------------------------------------------------------------------
                            Z-MATRIX (ANGSTROMS AND DEGREES)
   CD    Cent   Atom    N1       Length/X        N2       Alpha/Y        N3        Beta/Z          J
 ---------------------------------------------------------------------------------------------------
      1      1  O        0   0.000000          0.000000          0.725000
      2      2  O        0   0.000000          0.000000         -0.725000
      3      3  H        0   0.703781         -0.590542          1.023510
      4      4  H        0   0.000000          0.918721         -1.023510
      5      5  Kr       0   0.000000          3.200000          0.000000
 ---------------------------------------------------------------------------------------------------
                         Z-Matrix orientation:                         
 ---------------------------------------------------------------------
 Center     Atomic      Atomic             Coordinates (Angstroms)
 Number     Number       Type             X           Y           Z
 ---------------------------------------------------------------------
      1          8           0        0.000000    0.000000    0.725000
      2          8           0        0.000000    0.000000   -0.725000
      3          1           0        0.703781   -0.590542    1.023510
      4          1           0        0.000000    0.918721   -1.023510
      5         36           0        0.000000    3.200000    0.000000
 ---------------------------------------------------------------------
                    Distance matrix (angstroms):
                    1          2          3          4          5
     1  O    0.000000
     2  O    1.450000   0.000000
     3  H    0.966000   1.975180   0.000000
     4  H    1.975180   0.966000   2.638840   0.000000
     5  Kr   3.281101   3.281101   3.988871   2.500362   0.000000
 Stoichiometry    H2KrO2
 Framework group  C1[X(H2KrO2)]
 Deg. of freedom     9
 Full point group                 C1      NOp   1
 RotChk:  IX=0 Diff= 1.68D-03
 Largest Abelian subgroup         C1      NOp   1
 Largest concise Abelian subgroup C1      NOp   1
                         Standard orientation:                         
 ---------------------------------------------------------------------
 Center     Atomic      Atomic             Coordinates (Angstroms)
 Number     Number       Type             X           Y           Z
 ---------------------------------------------------------------------
      1          8           0        2.148784   -0.690397   -0.094624
      2          8           0        2.128681    0.756018    0.005276
      3          1           0        2.754451   -1.027692    0.578098
      4          1           0        1.206025    1.040085    0.039443
      5         36           0       -1.060561   -0.014927    0.002701
 ---------------------------------------------------------------------
 Rotational constants (GHZ):     26.0589985      2.0380753      1.8966325
 Leave Link  202 at Wed Dec  4 08:23:06 2019, MaxMem=  268435456 cpu:       0.0
 (Enter /home/matheus/.gaussian/g09/l301.exe)
 Standard basis: Aug-CC-pVTZ (5D, 7F)
 Ernie: Thresh=  0.10000D-02 Tol=  0.10000D-05 Strict=F.
 Ernie:  38 primitive shells out of 205 were deleted.
 There are   197 symmetry adapted basis functions of A   symmetry.
 Integral buffers will be    131072 words long.
 Raffenetti 1 integral format.
 Two-electron integral symmetry is turned on.
   197 basis functions,   415 primitive gaussians,   229 cartesian basis functions
    27 alpha electrons       27 beta electrons
       nuclear repulsion energy       141.9011995255 Hartrees.
 IExCor=    0 DFT=F Ex=HF Corr=None ExCW=0 ScaHFX=  1.000000
 ScaDFX=  1.000000  1.000000  1.000000  1.000000 ScalE2=  1.000000  1.000000
 IRadAn=      5 IRanWt=     -1 IRanGd=            0 ICorTp=0
 NAtoms=    5 NActive=    5 NUniq=    5 SFac= 1.00D+00 NAtFMM=   60 NAOKFM=F Big=F
 Leave Link  301 at Wed Dec  4 08:23:06 2019, MaxMem=  268435456 cpu:       0.0
 (Enter /home/matheus/.gaussian/g09/l302.exe)
 NPDir=0 NMtPBC=     1 NCelOv=     1 NCel=       1 NClECP=     1 NCelD=      1
         NCelK=      1 NCelE2=     1 NClLst=     1 CellRange=     0.0.
 One-electron integrals computed using PRISM.
 NBasis=   197 RedAO= T  NBF=   197
 NBsUse=   197 1.00D-06 NBFU=   197
 Leave Link  302 at Wed Dec  4 08:23:07 2019, MaxMem=  268435456 cpu:       0.2
 (Enter /home/matheus/.gaussian/g09/l303.exe)
 DipDrv:  MaxL=1.
 Leave Link  303 at Wed Dec  4 08:23:07 2019, MaxMem=  268435456 cpu:       0.1
 (Enter /home/matheus/.gaussian/g09/l401.exe)
 Initial guess read from the read-write file.
 B after Tr=     0.000000    0.000000    0.000000
         Rot=    1.000000    0.000000    0.000000    0.000000 Ang=   0.00 deg.
 Guess basis will be translated and rotated to current coordinates.
 Initial guess orbital symmetries:
       Occupied  (A) (A) (A) (A) (A) (A) (A) (A) (A) (A) (A) (A)
                 (A) (A) (A) (A) (A) (A) (A) (A) (A) (A) (A) (A)
                 (A) (A) (A)
       Virtual   (A) (A) (A) (A) (A) (A) (A) (A) (A) (A) (A) (A)
                 (A) (A) (A) (A) (A) (A) (A) (A) (A) (A) (A) (A)
                 (A) (A) (A) (A) (A) (A) (A) (A) (A) (A) (A) (A)
                 (A) (A) (A) (A) (A) (A) (A) (A) (A) (A) (A) (A)
                 (A) (A) (A) (A) (A) (A) (A) (A) (A) (A) (A) (A)
                 (A) (A) (A) (A) (A) (A) (A) (A) (A) (A) (A) (A)
                 (A) (A) (A) (A) (A) (A) (A) (A) (A) (A) (A) (A)
                 (A) (A) (A) (A) (A) (A) (A) (A) (A) (A) (A) (A)
                 (A) (A) (A) (A) (A) (A) (A) (A) (A) (A) (A) (A)
                 (A) (A) (A) (A) (A) (A) (A) (A) (A) (A) (A) (A)
                 (A) (A) (A) (A) (A) (A) (A) (A) (A) (A) (A) (A)
                 (A) (A) (A) (A) (A) (A) (A) (A) (A) (A) (A) (A)
                 (A) (A) (A) (A) (A) (A) (A) (A) (A) (A) (A) (A)
                 (A) (A) (A) (A) (A) (A) (A) (A) (A) (A) (A) (A)
                 (A) (A)
 The electronic state of the initial guess is 1-A.
 Generating alternative initial guess.
 Harris functional with IExCor=  205 diagonalized for initial guess.
 ExpMin= 2.53D-02 ExpMax= 1.17D+07 ExpMxC= 1.33D+04 IAcc=3 IRadAn=         5 AccDes= 0.00D+00
 HarFok:  IExCor=  205 AccDes= 0.00D+00 IRadAn=         5 IDoV= 1
 ScaDFX=  1.000000  1.000000  1.000000  1.000000
 FoFCou: FMM=F IPFlag=           0 FMFlag=      100000 FMFlg1=           0
         NFxFlg=           0 DoJE=T BraDBF=F KetDBF=T FulRan=T
         Omega=  0.000000  0.000000  1.000000  0.000000  0.000000 ICntrl=     500 IOpCl=  0
         NMat0=    1 NMatS0=    1 NMatT0=    0 NMatD0=    1 NMtDS0=    0 NMtDT0=    0
         I1Cent=           4 NGrid=           0.
 Petite list used in FoFCou.
 Harris En= -2901.93328816005    
 Leave Link  401 at Wed Dec  4 08:23:07 2019, MaxMem=  268435456 cpu:       1.3
 (Enter /home/matheus/.gaussian/g09/l502.exe)
 Closed shell SCF:
 Requested convergence on RMS density matrix=1.00D-08 within 128 cycles.
 Requested convergence on MAX density matrix=1.00D-06.
 Requested convergence on             energy=1.00D-06.
 No special actions if energy rises.
 Using DIIS extrapolation, IDIIS=  1040.
 Integral symmetry usage will be decided dynamically.
 IEnd=      178489 IEndB=      178489 NGot=   268435456 MDV=   268326278
 LenX=   268326278 LenY=   268273396
 Fock matrices will be formed incrementally for  20 cycles.

 Cycle   1  Pass 0  IDiag  1:
 FoFCou: FMM=F IPFlag=           0 FMFlag=      100000 FMFlg1=           0
         NFxFlg=           0 DoJE=F BraDBF=F KetDBF=F FulRan=T
         Omega=  0.000000  0.000000  1.000000  0.000000  0.000000 ICntrl=       0 IOpCl=  0
         NMat0=    1 NMatS0=    1 NMatT0=    0 NMatD0=    1 NMtDS0=    0 NMtDT0=    0
         I1Cent=           0 NGrid=           0.
 Symmetry not used in FoFCou.
 E= -2902.88310791170    
 DIIS: error= 3.76D-04 at cycle   1 NSaved=   1.
 NSaved= 1 IEnMin= 1 EnMin= -2902.88310791170     IErMin= 1 ErrMin= 3.76D-04
 ErrMax= 3.76D-04 EMaxC= 1.00D-01 BMatC= 5.15D-05 BMatP= 5.15D-05
 IDIUse=3 WtCom= 9.96D-01 WtEn= 3.76D-03
 Coeff-Com:  0.100D+01
 Coeff-En:   0.100D+01
 Coeff:      0.100D+01
 Gap=     0.509 Goal=   None    Shift=    0.000
 RMSDP=6.37D-05 MaxDP=2.25D-03              OVMax= 2.76D-03

 Cycle   2  Pass 0  IDiag  1:
 RMSU=  4.51D-05    CP:  1.00D+00
 E= -2902.88316924710     Delta-E=       -0.000061335401 Rises=F Damp=F
 DIIS: error= 6.26D-05 at cycle   2 NSaved=   2.
 NSaved= 2 IEnMin= 2 EnMin= -2902.88316924710     IErMin= 2 ErrMin= 6.26D-05
 ErrMax= 6.26D-05 EMaxC= 1.00D-01 BMatC= 1.65D-06 BMatP= 5.15D-05
 IDIUse=1 WtCom= 1.00D+00 WtEn= 0.00D+00
 Coeff-Com: -0.845D-01 0.108D+01
 Coeff:     -0.845D-01 0.108D+01
 Gap=     0.507 Goal=   None    Shift=    0.000
 RMSDP=1.17D-05 MaxDP=3.97D-04 DE=-6.13D-05 OVMax= 5.73D-04

 Cycle   3  Pass 0  IDiag  1:
 RMSU=  5.31D-06    CP:  1.00D+00  1.14D+00
 E= -2902.88317177436     Delta-E=       -0.000002527258 Rises=F Damp=F
 DIIS: error= 2.09D-05 at cycle   3 NSaved=   3.
 NSaved= 3 IEnMin= 3 EnMin= -2902.88317177436     IErMin= 3 ErrMin= 2.09D-05
 ErrMax= 2.09D-05 EMaxC= 1.00D-01 BMatC= 2.48D-07 BMatP= 1.65D-06
 IDIUse=1 WtCom= 1.00D+00 WtEn= 0.00D+00
 Coeff-Com: -0.411D-01 0.252D+00 0.789D+00
 Coeff:     -0.411D-01 0.252D+00 0.789D+00
 Gap=     0.508 Goal=   None    Shift=    0.000
 RMSDP=2.18D-06 MaxDP=6.80D-05 DE=-2.53D-06 OVMax= 1.41D-04

 Initial convergence to 1.0D-05 achieved.  Increase integral accuracy.
 Cycle   4  Pass 1  IDiag  1:
 E= -2902.88317201643     Delta-E=       -0.000000242079 Rises=F Damp=F
 DIIS: error= 8.87D-06 at cycle   1 NSaved=   1.
 NSaved= 1 IEnMin= 1 EnMin= -2902.88317201643     IErMin= 1 ErrMin= 8.87D-06
 ErrMax= 8.87D-06 EMaxC= 1.00D-01 BMatC= 3.17D-08 BMatP= 3.17D-08
 IDIUse=1 WtCom= 1.00D+00 WtEn= 0.00D+00
 Coeff-Com:  0.100D+01
 Coeff:      0.100D+01
 Gap=     0.508 Goal=   None    Shift=    0.000
 RMSDP=2.18D-06 MaxDP=6.80D-05 DE=-2.42D-07 OVMax= 7.55D-05

 Cycle   5  Pass 1  IDiag  1:
 RMSU=  7.74D-07    CP:  1.00D+00
 E= -2902.88317205516     Delta-E=       -0.000000038725 Rises=F Damp=F
 DIIS: error= 7.00D-06 at cycle   2 NSaved=   2.
 NSaved= 2 IEnMin= 2 EnMin= -2902.88317205516     IErMin= 2 ErrMin= 7.00D-06
 ErrMax= 7.00D-06 EMaxC= 1.00D-01 BMatC= 1.29D-08 BMatP= 3.17D-08
 IDIUse=1 WtCom= 1.00D+00 WtEn= 0.00D+00
 Coeff-Com:  0.343D+00 0.657D+00
 Coeff:      0.343D+00 0.657D+00
 Gap=     0.508 Goal=   None    Shift=    0.000
 RMSDP=3.38D-07 MaxDP=1.40D-05 DE=-3.87D-08 OVMax= 3.09D-05

 Cycle   6  Pass 1  IDiag  1:
 RMSU=  2.34D-07    CP:  1.00D+00  1.06D+00
 E= -2902.88317206705     Delta-E=       -0.000000011894 Rises=F Damp=F
 DIIS: error= 2.34D-06 at cycle   3 NSaved=   3.
 NSaved= 3 IEnMin= 3 EnMin= -2902.88317206705     IErMin= 3 ErrMin= 2.34D-06
 ErrMax= 2.34D-06 EMaxC= 1.00D-01 BMatC= 1.75D-09 BMatP= 1.29D-08
 IDIUse=1 WtCom= 1.00D+00 WtEn= 0.00D+00
 Coeff-Com: -0.348D+00-0.149D+00 0.150D+01
 Coeff:     -0.348D+00-0.149D+00 0.150D+01
 Gap=     0.508 Goal=   None    Shift=    0.000
 RMSDP=4.18D-07 MaxDP=1.21D-05 DE=-1.19D-08 OVMax= 3.42D-05

 Cycle   7  Pass 1  IDiag  1:
 RMSU=  9.33D-08    CP:  1.00D+00  1.40D+00  1.44D+00
 E= -2902.88317207161     Delta-E=       -0.000000004554 Rises=F Damp=F
 DIIS: error= 5.24D-07 at cycle   4 NSaved=   4.
 NSaved= 4 IEnMin= 4 EnMin= -2902.88317207161     IErMin= 4 ErrMin= 5.24D-07
 ErrMax= 5.24D-07 EMaxC= 1.00D-01 BMatC= 6.39D-11 BMatP= 1.75D-09
 IDIUse=1 WtCom= 1.00D+00 WtEn= 0.00D+00
 Coeff-Com: -0.711D-01-0.392D-01 0.234D+00 0.877D+00
 Coeff:     -0.711D-01-0.392D-01 0.234D+00 0.877D+00
 Gap=     0.508 Goal=   None    Shift=    0.000
 RMSDP=4.85D-08 MaxDP=1.56D-06 DE=-4.55D-09 OVMax= 4.26D-06

 Cycle   8  Pass 1  IDiag  1:
 RMSU=  2.08D-08    CP:  1.00D+00  1.41D+00  1.47D+00  1.27D+00
 E= -2902.88317207172     Delta-E=       -0.000000000113 Rises=F Damp=F
 DIIS: error= 1.90D-07 at cycle   5 NSaved=   5.
 NSaved= 5 IEnMin= 5 EnMin= -2902.88317207172     IErMin= 5 ErrMin= 1.90D-07
 ErrMax= 1.90D-07 EMaxC= 1.00D-01 BMatC= 1.27D-11 BMatP= 6.39D-11
 IDIUse=1 WtCom= 1.00D+00 WtEn= 0.00D+00
 Coeff-Com:  0.732D-01 0.402D-01-0.324D+00-0.426D-01 0.125D+01
 Coeff:      0.732D-01 0.402D-01-0.324D+00-0.426D-01 0.125D+01
 Gap=     0.508 Goal=   None    Shift=    0.000
 RMSDP=3.54D-08 MaxDP=9.97D-07 DE=-1.13D-10 OVMax= 2.90D-06

 Cycle   9  Pass 1  IDiag  1:
 RMSU=  9.76D-09    CP:  1.00D+00  1.40D+00  1.47D+00  1.50D+00  1.37D+00
 E= -2902.88317207175     Delta-E=       -0.000000000034 Rises=F Damp=F
 DIIS: error= 6.98D-08 at cycle   6 NSaved=   6.
 NSaved= 6 IEnMin= 6 EnMin= -2902.88317207175     IErMin= 6 ErrMin= 6.98D-08
 ErrMax= 6.98D-08 EMaxC= 1.00D-01 BMatC= 9.64D-13 BMatP= 1.27D-11
 IDIUse=1 WtCom= 1.00D+00 WtEn= 0.00D+00
 Coeff-Com: -0.194D-01-0.803D-02 0.869D-01-0.391D-01-0.404D+00 0.138D+01
 Coeff:     -0.194D-01-0.803D-02 0.869D-01-0.391D-01-0.404D+00 0.138D+01
 Gap=     0.508 Goal=   None    Shift=    0.000
 RMSDP=1.01D-08 MaxDP=2.31D-07 DE=-3.37D-11 OVMax= 1.14D-06

 Cycle  10  Pass 1  IDiag  1:
 RMSU=  2.97D-09    CP:  1.00D+00  1.40D+00  1.47D+00  1.51D+00  1.47D+00
                    CP:  1.59D+00
 E= -2902.88317207176     Delta-E=       -0.000000000007 Rises=F Damp=F
 DIIS: error= 2.64D-08 at cycle   7 NSaved=   7.
 NSaved= 7 IEnMin= 7 EnMin= -2902.88317207176     IErMin= 7 ErrMin= 2.64D-08
 ErrMax= 2.64D-08 EMaxC= 1.00D-01 BMatC= 1.52D-13 BMatP= 9.64D-13
 IDIUse=1 WtCom= 1.00D+00 WtEn= 0.00D+00
 Coeff-Com: -0.125D-01-0.636D-02 0.542D-01 0.804D-02-0.214D+00-0.443D-01
 Coeff-Com:  0.121D+01
 Coeff:     -0.125D-01-0.636D-02 0.542D-01 0.804D-02-0.214D+00-0.443D-01
 Coeff:      0.121D+01
 Gap=     0.508 Goal=   None    Shift=    0.000
 RMSDP=4.96D-09 MaxDP=1.33D-07 DE=-7.28D-12 OVMax= 5.06D-07

 SCF Done:  E(RHF) =  -2902.88317207     A.U. after   10 cycles
             Convg  =    0.4958D-08             -V/T =  2.0001
 KE= 2.902595203516D+03 PE=-7.224337399004D+03 EE= 1.276957823891D+03
 Leave Link  502 at Wed Dec  4 08:23:43 2019, MaxMem=  268435456 cpu:      72.0
 (Enter /home/matheus/.gaussian/g09/l801.exe)
 Windowed orbitals will be sorted by symmetry type.
 ExpMin= 2.53D-02 ExpMax= 1.17D+07 ExpMxC= 1.33D+04 IAcc=3 IRadAn=         5 AccDes= 0.00D+00
 HarFok:  IExCor=  205 AccDes= 0.00D+00 IRadAn=         5 IDoV=-2
 ScaDFX=  1.000000  1.000000  1.000000  1.000000
 DSYEVD returned Info=          93 IAlg= 4 N=    46 NDim=    46 NE2=     4547561 trying DSYEV.
 DSYEVD returned Info=          89 IAlg= 4 N=    59 NDim=    59 NE2=     4547561 trying DSYEV.
 Largest valence mixing into a core orbital is  1.44D-04
 Largest core mixing into a valence orbital is  2.60D-05
 Range of M.O.s used for correlation:    12   197
 NBasis=   197 NAE=    27 NBE=    27 NFC=    11 NFV=     0
 NROrb=    186 NOA=    16 NOB=    16 NVA=   170 NVB=   170

 **** Warning!!: The largest alpha MO coefficient is  0.13596144D+02

 Leave Link  801 at Wed Dec  4 08:23:43 2019, MaxMem=  268435456 cpu:       0.2
 (Enter /home/matheus/.gaussian/g09/l804.exe)
 Closed-shell transformation, MDV=   268435456 ITran=4 ISComp=1.
 Semi-Direct transformation.
 ModeAB=           4 MOrb=            16 LenV=     267328926
 LASXX=     48528660 LTotXX=    48528660 LenRXX=    97827436
 LTotAB=    49298776 MaxLAS=    78349152 LenRXY=           0
 NonZer=   146356096 LenScr=   220395520 LnRSAI=    78349152
 LnScr1=   118292480 LExtra=           0 Total=    514864588
 MaxDsk=          -1 SrtSym=           T ITran=            4
 DoSDTr:  NPSUse=  2
 JobTyp=0 Pass  1:  I=   1 to  16.
 (rs|ai) integrals will be sorted in core.
 Complete sort for first half transformation.
 First half transformation complete.
 Begin second half transformation for I=  10.
 Complete sort for second half transformation.
 Second half transformation complete.
 SymMOI:  orbitals are not symmetric.
 Spin components of T(2) and E(2):
     alpha-alpha T2 =       0.2582827885D-01 E2=     -0.9949309090D-01
     alpha-beta  T2 =       0.1417582361D+00 E2=     -0.5555468700D+00
     beta-beta   T2 =       0.2582827885D-01 E2=     -0.9949309090D-01
 ANorm=    0.1092435258D+01
 E2 =    -0.7545330518D+00 EUMP2 =    -0.29036377051236D+04
 Leave Link  804 at Wed Dec  4 08:24:05 2019, MaxMem=  268435456 cpu:      43.9
 (Enter /home/matheus/.gaussian/g09/l913.exe)
 CIDS:  MDV=   268435456.
 Frozen-core window:  NFC=  11 NFV=   0.
 IFCWin=0 IBDFC=1 NFBD=     0     0 NFCmp=     0     0 NFFFC=     0     0
 Using DD3R+UMP44R for 1st iteration, S=T.
 Using DD4RQ for 2nd and later iterations.
 Would need an additional       431206676 words for in-memory AO integral storage.
 MP4(SDTQ)
 =========
 DD1Dir will call FoFDir   1 times, MxPair=       272
 NAB=   136 NAA=     0 NBB=     0 NumPrc=  2.
 Integrals replicated using symmetry in FoFDir.
 MinBra= 0 MaxBra= 3 Meth= 1.
 IRaf=       0 NMat= 272 IRICut=     340 DoRegI=T DoRafI=T ISym2E= 2 JSym2E=2.
 MP4(D)= -0.14968187D-01
 MP4(S)= -0.64032340D-02
 MP4(R+Q)=  0.15264907D-01
 T4(AAA)= -0.10250690D-02
 T4(AAB)= -0.14060548D-01
 Time for triples=     1295.43 seconds.
 MP4(T)=   -0.30171234D-01
 E3=       -0.11528391D-01        EUMP3=      -0.29036492335D+04
 E4(DQ)=    0.29671967D-03        UMP4(DQ)=   -0.29036489368D+04
 E4(SDQ)=  -0.61065144D-02        UMP4(SDQ)=  -0.29036553400D+04
 E4(SDTQ)= -0.36277748D-01        UMP4(SDTQ)= -0.29036855113D+04
 VARIATIONAL ENERGIES WITH THE FIRST-ORDER WAVEFUNCTION:
 E(VAR1)=  -0.29035250792D+04     E(CISD,4)=  -0.29035246671D+04
 Largest amplitude= 2.78D-02
 Leave Link  913 at Wed Dec  4 08:35:51 2019, MaxMem=  268435456 cpu:    1384.7
 (Enter /home/matheus/.gaussian/g09/l108.exe)
 Variable Step   Value    
 -------- ---- -----------
     1       3    6.236096
 Leave Link  108 at Wed Dec  4 08:35:51 2019, MaxMem=  268435456 cpu:       0.0
 (Enter /home/matheus/.gaussian/g09/l202.exe)
 ---------------------------------------------------------------------------------------------------
                            Z-MATRIX (ANGSTROMS AND DEGREES)
   CD    Cent   Atom    N1       Length/X        N2       Alpha/Y        N3        Beta/Z          J
 ---------------------------------------------------------------------------------------------------
      1      1  O        0   0.000000          0.000000          0.725000
      2      2  O        0   0.000000          0.000000         -0.725000
      3      3  H        0   0.703781         -0.590542          1.023510
      4      4  H        0   0.000000          0.918721         -1.023510
      5      5  Kr       0   0.000000          3.300000          0.000000
 ---------------------------------------------------------------------------------------------------
                         Z-Matrix orientation:                         
 ---------------------------------------------------------------------
 Center     Atomic      Atomic             Coordinates (Angstroms)
 Number     Number       Type             X           Y           Z
 ---------------------------------------------------------------------
      1          8           0        0.000000    0.000000    0.725000
      2          8           0        0.000000    0.000000   -0.725000
      3          1           0        0.703781   -0.590542    1.023510
      4          1           0        0.000000    0.918721   -1.023510
      5         36           0        0.000000    3.300000    0.000000
 ---------------------------------------------------------------------
                    Distance matrix (angstroms):
                    1          2          3          4          5
     1  O    0.000000
     2  O    1.450000   0.000000
     3  H    0.966000   1.975180   0.000000
     4  H    1.975180   0.966000   2.638840   0.000000
     5  Kr   3.378702   3.378702   4.084018   2.591923   0.000000
 Stoichiometry    H2KrO2
 Framework group  C1[X(H2KrO2)]
 Deg. of freedom     9
 Full point group                 C1      NOp   1
 RotChk:  IX=0 Diff= 1.52D-03
 Largest Abelian subgroup         C1      NOp   1
 Largest concise Abelian subgroup C1      NOp   1
                         Standard orientation:                         
 ---------------------------------------------------------------------
 Center     Atomic      Atomic             Coordinates (Angstroms)
 Number     Number       Type             X           Y           Z
 ---------------------------------------------------------------------
      1          8           0        2.214838   -0.691471   -0.094515
      2          8           0        2.196039    0.754953    0.005504
      3          1           0        2.819837   -1.029394    0.578494
      4          1           0        1.273632    1.039882    0.039215
      5         36           0       -1.093902   -0.014398    0.002621
 ---------------------------------------------------------------------
 Rotational constants (GHZ):     26.0577914      1.9168543      1.7912146
 Leave Link  202 at Wed Dec  4 08:35:51 2019, MaxMem=  268435456 cpu:       0.0
 (Enter /home/matheus/.gaussian/g09/l301.exe)
 Standard basis: Aug-CC-pVTZ (5D, 7F)
 Ernie: Thresh=  0.10000D-02 Tol=  0.10000D-05 Strict=F.
 Ernie:  38 primitive shells out of 205 were deleted.
 There are   197 symmetry adapted basis functions of A   symmetry.
 Integral buffers will be    131072 words long.
 Raffenetti 1 integral format.
 Two-electron integral symmetry is turned on.
   197 basis functions,   415 primitive gaussians,   229 cartesian basis functions
    27 alpha electrons       27 beta electrons
       nuclear repulsion energy       138.8372588181 Hartrees.
 IExCor=    0 DFT=F Ex=HF Corr=None ExCW=0 ScaHFX=  1.000000
 ScaDFX=  1.000000  1.000000  1.000000  1.000000 ScalE2=  1.000000  1.000000
 IRadAn=      5 IRanWt=     -1 IRanGd=            0 ICorTp=0
 NAtoms=    5 NActive=    5 NUniq=    5 SFac= 1.00D+00 NAtFMM=   60 NAOKFM=F Big=F
 Leave Link  301 at Wed Dec  4 08:35:51 2019, MaxMem=  268435456 cpu:       0.0
 (Enter /home/matheus/.gaussian/g09/l302.exe)
 NPDir=0 NMtPBC=     1 NCelOv=     1 NCel=       1 NClECP=     1 NCelD=      1
         NCelK=      1 NCelE2=     1 NClLst=     1 CellRange=     0.0.
 One-electron integrals computed using PRISM.
 NBasis=   197 RedAO= T  NBF=   197
 NBsUse=   197 1.00D-06 NBFU=   197
 Leave Link  302 at Wed Dec  4 08:35:51 2019, MaxMem=  268435456 cpu:       0.2
 (Enter /home/matheus/.gaussian/g09/l303.exe)
 DipDrv:  MaxL=1.
 Leave Link  303 at Wed Dec  4 08:35:51 2019, MaxMem=  268435456 cpu:       0.0
 (Enter /home/matheus/.gaussian/g09/l401.exe)
 Initial guess read from the read-write file.
 B after Tr=     0.000000    0.000000    0.000000
         Rot=    1.000000    0.000000    0.000000    0.000000 Ang=   0.00 deg.
 Guess basis will be translated and rotated to current coordinates.
 Initial guess orbital symmetries:
       Occupied  (A) (A) (A) (A) (A) (A) (A) (A) (A) (A) (A) (A)
                 (A) (A) (A) (A) (A) (A) (A) (A) (A) (A) (A) (A)
                 (A) (A) (A)
       Virtual   (A) (A) (A) (A) (A) (A) (A) (A) (A) (A) (A) (A)
                 (A) (A) (A) (A) (A) (A) (A) (A) (A) (A) (A) (A)
                 (A) (A) (A) (A) (A) (A) (A) (A) (A) (A) (A) (A)
                 (A) (A) (A) (A) (A) (A) (A) (A) (A) (A) (A) (A)
                 (A) (A) (A) (A) (A) (A) (A) (A) (A) (A) (A) (A)
                 (A) (A) (A) (A) (A) (A) (A) (A) (A) (A) (A) (A)
                 (A) (A) (A) (A) (A) (A) (A) (A) (A) (A) (A) (A)
                 (A) (A) (A) (A) (A) (A) (A) (A) (A) (A) (A) (A)
                 (A) (A) (A) (A) (A) (A) (A) (A) (A) (A) (A) (A)
                 (A) (A) (A) (A) (A) (A) (A) (A) (A) (A) (A) (A)
                 (A) (A) (A) (A) (A) (A) (A) (A) (A) (A) (A) (A)
                 (A) (A) (A) (A) (A) (A) (A) (A) (A) (A) (A) (A)
                 (A) (A) (A) (A) (A) (A) (A) (A) (A) (A) (A) (A)
                 (A) (A) (A) (A) (A) (A) (A) (A) (A) (A) (A) (A)
                 (A) (A)
 The electronic state of the initial guess is 1-A.
 Generating alternative initial guess.
 Harris functional with IExCor=  205 diagonalized for initial guess.
 ExpMin= 2.53D-02 ExpMax= 1.17D+07 ExpMxC= 1.33D+04 IAcc=3 IRadAn=         5 AccDes= 0.00D+00
 HarFok:  IExCor=  205 AccDes= 0.00D+00 IRadAn=         5 IDoV= 1
 ScaDFX=  1.000000  1.000000  1.000000  1.000000
 FoFCou: FMM=F IPFlag=           0 FMFlag=      100000 FMFlg1=           0
         NFxFlg=           0 DoJE=T BraDBF=F KetDBF=T FulRan=T
         Omega=  0.000000  0.000000  1.000000  0.000000  0.000000 ICntrl=     500 IOpCl=  0
         NMat0=    1 NMatS0=    1 NMatT0=    0 NMatD0=    1 NMtDS0=    0 NMtDT0=    0
         I1Cent=           4 NGrid=           0.
 Petite list used in FoFCou.
 Harris En= -2901.93362734266    
 Leave Link  401 at Wed Dec  4 08:35:51 2019, MaxMem=  268435456 cpu:       1.2
 (Enter /home/matheus/.gaussian/g09/l502.exe)
 Closed shell SCF:
 Requested convergence on RMS density matrix=1.00D-08 within 128 cycles.
 Requested convergence on MAX density matrix=1.00D-06.
 Requested convergence on             energy=1.00D-06.
 No special actions if energy rises.
 Using DIIS extrapolation, IDIIS=  1040.
 Integral symmetry usage will be decided dynamically.
 IEnd=      178489 IEndB=      178489 NGot=   268435456 MDV=   268326278
 LenX=   268326278 LenY=   268273396
 Fock matrices will be formed incrementally for  20 cycles.

 Cycle   1  Pass 0  IDiag  1:
 FoFCou: FMM=F IPFlag=           0 FMFlag=      100000 FMFlg1=           0
         NFxFlg=           0 DoJE=F BraDBF=F KetDBF=F FulRan=T
         Omega=  0.000000  0.000000  1.000000  0.000000  0.000000 ICntrl=       0 IOpCl=  0
         NMat0=    1 NMatS0=    1 NMatT0=    0 NMatD0=    1 NMtDS0=    0 NMtDT0=    0
         I1Cent=           0 NGrid=           0.
 Symmetry not used in FoFCou.
 E= -2902.88435381039    
 DIIS: error= 3.43D-04 at cycle   1 NSaved=   1.
 NSaved= 1 IEnMin= 1 EnMin= -2902.88435381039     IErMin= 1 ErrMin= 3.43D-04
 ErrMax= 3.43D-04 EMaxC= 1.00D-01 BMatC= 3.88D-05 BMatP= 3.88D-05
 IDIUse=3 WtCom= 9.97D-01 WtEn= 3.43D-03
 Coeff-Com:  0.100D+01
 Coeff-En:   0.100D+01
 Coeff:      0.100D+01
 Gap=     0.509 Goal=   None    Shift=    0.000
 RMSDP=5.78D-05 MaxDP=1.57D-03              OVMax= 2.50D-03

 Cycle   2  Pass 0  IDiag  1:
 RMSU=  4.09D-05    CP:  1.00D+00
 E= -2902.88440016818     Delta-E=       -0.000046357790 Rises=F Damp=F
 DIIS: error= 5.93D-05 at cycle   2 NSaved=   2.
 NSaved= 2 IEnMin= 2 EnMin= -2902.88440016818     IErMin= 2 ErrMin= 5.93D-05
 ErrMax= 5.93D-05 EMaxC= 1.00D-01 BMatC= 1.15D-06 BMatP= 3.88D-05
 IDIUse=1 WtCom= 1.00D+00 WtEn= 0.00D+00
 Coeff-Com: -0.883D-01 0.109D+01
 Coeff:     -0.883D-01 0.109D+01
 Gap=     0.508 Goal=   None    Shift=    0.000
 RMSDP=1.03D-05 MaxDP=3.21D-04 DE=-4.64D-05 OVMax= 5.24D-04

 Cycle   3  Pass 0  IDiag  1:
 RMSU=  4.59D-06    CP:  1.00D+00  1.14D+00
 E= -2902.88440202179     Delta-E=       -0.000001853612 Rises=F Damp=F
 DIIS: error= 1.81D-05 at cycle   3 NSaved=   3.
 NSaved= 3 IEnMin= 3 EnMin= -2902.88440202179     IErMin= 3 ErrMin= 1.81D-05
 ErrMax= 1.81D-05 EMaxC= 1.00D-01 BMatC= 1.53D-07 BMatP= 1.15D-06
 IDIUse=1 WtCom= 1.00D+00 WtEn= 0.00D+00
 Coeff-Com: -0.375D-01 0.231D+00 0.807D+00
 Coeff:     -0.375D-01 0.231D+00 0.807D+00
 Gap=     0.508 Goal=   None    Shift=    0.000
 RMSDP=1.90D-06 MaxDP=6.24D-05 DE=-1.85D-06 OVMax= 1.24D-04

 Initial convergence to 1.0D-05 achieved.  Increase integral accuracy.
 Cycle   4  Pass 1  IDiag  1:
 E= -2902.88440218214     Delta-E=       -0.000000160353 Rises=F Damp=F
 DIIS: error= 7.78D-06 at cycle   1 NSaved=   1.
 NSaved= 1 IEnMin= 1 EnMin= -2902.88440218214     IErMin= 1 ErrMin= 7.78D-06
 ErrMax= 7.78D-06 EMaxC= 1.00D-01 BMatC= 2.26D-08 BMatP= 2.26D-08
 IDIUse=1 WtCom= 1.00D+00 WtEn= 0.00D+00
 Coeff-Com:  0.100D+01
 Coeff:      0.100D+01
 Gap=     0.508 Goal=   None    Shift=    0.000
 RMSDP=1.90D-06 MaxDP=6.24D-05 DE=-1.60D-07 OVMax= 6.36D-05

 Cycle   5  Pass 1  IDiag  1:
 RMSU=  6.68D-07    CP:  1.00D+00
 E= -2902.88440220955     Delta-E=       -0.000000027405 Rises=F Damp=F
 DIIS: error= 5.32D-06 at cycle   2 NSaved=   2.
 NSaved= 2 IEnMin= 2 EnMin= -2902.88440220955     IErMin= 2 ErrMin= 5.32D-06
 ErrMax= 5.32D-06 EMaxC= 1.00D-01 BMatC= 9.37D-09 BMatP= 2.26D-08
 IDIUse=1 WtCom= 1.00D+00 WtEn= 0.00D+00
 Coeff-Com:  0.347D+00 0.653D+00
 Coeff:      0.347D+00 0.653D+00
 Gap=     0.508 Goal=   None    Shift=    0.000
 RMSDP=2.85D-07 MaxDP=1.18D-05 DE=-2.74D-08 OVMax= 2.59D-05

 Cycle   6  Pass 1  IDiag  1:
 RMSU=  1.98D-07    CP:  1.00D+00  1.06D+00
 E= -2902.88440221810     Delta-E=       -0.000000008555 Rises=F Damp=F
 DIIS: error= 2.15D-06 at cycle   3 NSaved=   3.
 NSaved= 3 IEnMin= 3 EnMin= -2902.88440221810     IErMin= 3 ErrMin= 2.15D-06
 ErrMax= 2.15D-06 EMaxC= 1.00D-01 BMatC= 1.21D-09 BMatP= 9.37D-09
 IDIUse=1 WtCom= 1.00D+00 WtEn= 0.00D+00
 Coeff-Com: -0.349D+00-0.160D+00 0.151D+01
 Coeff:     -0.349D+00-0.160D+00 0.151D+01
 Gap=     0.508 Goal=   None    Shift=    0.000
 RMSDP=3.53D-07 MaxDP=1.08D-05 DE=-8.56D-09 OVMax= 2.90D-05

 Cycle   7  Pass 1  IDiag  1:
 RMSU=  8.13D-08    CP:  1.00D+00  1.39D+00  1.44D+00
 E= -2902.88440222133     Delta-E=       -0.000000003228 Rises=F Damp=F
 DIIS: error= 4.46D-07 at cycle   4 NSaved=   4.
[...]
     2  O    1.450000   0.000000
     3  H    0.966000   1.975180   0.000000
     4  H    1.975180   0.966000   2.638840   0.000000
     5  Kr   5.052289   5.052289   5.726870   4.207661   0.000000
 Stoichiometry    H2KrO2
 Framework group  C1[X(H2KrO2)]
 Deg. of freedom     9
 Full point group                 C1      NOp   1
 RotChk:  IX=0 Diff= 4.53D-04
 Largest Abelian subgroup         C1      NOp   1
 Largest concise Abelian subgroup C1      NOp   1
                         Standard orientation:                         
 ---------------------------------------------------------------------
 Center     Atomic      Atomic             Coordinates (Angstroms)
 Number     Number       Type             X           Y           Z
 ---------------------------------------------------------------------
      1          8           0        3.342996   -0.702237   -0.093274
      2          8           0        3.335200    0.744203    0.007973
      3          1           0        3.941638   -1.045570    0.582674
      4          1           0        2.414927    1.036458    0.036974
      5         36           0       -1.660615   -0.009073    0.001743
 ---------------------------------------------------------------------
 Rotational constants (GHZ):     26.0470012      0.8363201      0.8114805
 Leave Link  202 at Wed Dec  4 12:11:37 2019, MaxMem=  268435456 cpu:       0.0
 (Enter /home/matheus/.gaussian/g09/l301.exe)
 Standard basis: Aug-CC-pVTZ (5D, 7F)
 Ernie: Thresh=  0.10000D-02 Tol=  0.10000D-05 Strict=F.
 Ernie:  38 primitive shells out of 205 were deleted.
 There are   197 symmetry adapted basis functions of A   symmetry.
 Integral buffers will be    131072 words long.
 Raffenetti 1 integral format.
 Two-electron integral symmetry is turned on.
   197 basis functions,   415 primitive gaussians,   229 cartesian basis functions
    27 alpha electrons       27 beta electrons
       nuclear repulsion energy       104.7931029570 Hartrees.
 IExCor=    0 DFT=F Ex=HF Corr=None ExCW=0 ScaHFX=  1.000000
 ScaDFX=  1.000000  1.000000  1.000000  1.000000 ScalE2=  1.000000  1.000000
 IRadAn=      5 IRanWt=     -1 IRanGd=            0 ICorTp=0
 NAtoms=    5 NActive=    5 NUniq=    5 SFac= 1.00D+00 NAtFMM=   60 NAOKFM=F Big=F
 Leave Link  301 at Wed Dec  4 12:11:37 2019, MaxMem=  268435456 cpu:       0.0
 (Enter /home/matheus/.gaussian/g09/l302.exe)
 NPDir=0 NMtPBC=     1 NCelOv=     1 NCel=       1 NClECP=     1 NCelD=      1
         NCelK=      1 NCelE2=     1 NClLst=     1 CellRange=     0.0.
 One-electron integrals computed using PRISM.
 NBasis=   197 RedAO= T  NBF=   197
 NBsUse=   197 1.00D-06 NBFU=   197
 Leave Link  302 at Wed Dec  4 12:11:37 2019, MaxMem=  268435456 cpu:       0.2
 (Enter /home/matheus/.gaussian/g09/l303.exe)
 DipDrv:  MaxL=1.
 Leave Link  303 at Wed Dec  4 12:11:37 2019, MaxMem=  268435456 cpu:       0.0
 (Enter /home/matheus/.gaussian/g09/l401.exe)
 Initial guess read from the read-write file.
 B after Tr=     0.000000    0.000000    0.000000
         Rot=    1.000000    0.000000    0.000000    0.000000 Ang=   0.00 deg.
 Guess basis will be translated and rotated to current coordinates.
 Initial guess orbital symmetries:
       Occupied  (A) (A) (A) (A) (A) (A) (A) (A) (A) (A) (A) (A)
                 (A) (A) (A) (A) (A) (A) (A) (A) (A) (A) (A) (A)
                 (A) (A) (A)
       Virtual   (A) (A) (A) (A) (A) (A) (A) (A) (A) (A) (A) (A)
                 (A) (A) (A) (A) (A) (A) (A) (A) (A) (A) (A) (A)
                 (A) (A) (A) (A) (A) (A) (A) (A) (A) (A) (A) (A)
                 (A) (A) (A) (A) (A) (A) (A) (A) (A) (A) (A) (A)
                 (A) (A) (A) (A) (A) (A) (A) (A) (A) (A) (A) (A)
                 (A) (A) (A) (A) (A) (A) (A) (A) (A) (A) (A) (A)
                 (A) (A) (A) (A) (A) (A) (A) (A) (A) (A) (A) (A)
                 (A) (A) (A) (A) (A) (A) (A) (A) (A) (A) (A) (A)
                 (A) (A) (A) (A) (A) (A) (A) (A) (A) (A) (A) (A)
                 (A) (A) (A) (A) (A) (A) (A) (A) (A) (A) (A) (A)
                 (A) (A) (A) (A) (A) (A) (A) (A) (A) (A) (A) (A)
                 (A) (A) (A) (A) (A) (A) (A) (A) (A) (A) (A) (A)
                 (A) (A) (A) (A) (A) (A) (A) (A) (A) (A) (A) (A)
                 (A) (A) (A) (A) (A) (A) (A) (A) (A) (A) (A) (A)
                 (A) (A)
 The electronic state of the initial guess is 1-A.
 Generating alternative initial guess.
 Harris functional with IExCor=  205 diagonalized for initial guess.
 ExpMin= 2.53D-02 ExpMax= 1.17D+07 ExpMxC= 1.33D+04 IAcc=3 IRadAn=         5 AccDes= 0.00D+00
 HarFok:  IExCor=  205 AccDes= 0.00D+00 IRadAn=         5 IDoV= 1
 ScaDFX=  1.000000  1.000000  1.000000  1.000000
 FoFCou: FMM=F IPFlag=           0 FMFlag=      100000 FMFlg1=           0
         NFxFlg=           0 DoJE=T BraDBF=F KetDBF=T FulRan=T
         Omega=  0.000000  0.000000  1.000000  0.000000  0.000000 ICntrl=     500 IOpCl=  0
         NMat0=    1 NMatS0=    1 NMatT0=    0 NMatD0=    1 NMtDS0=    0 NMtDT0=    0
         I1Cent=           4 NGrid=           0.
 Petite list used in FoFCou.
 Harris En= -2901.93328820227    
 Leave Link  401 at Wed Dec  4 12:11:38 2019, MaxMem=  268435456 cpu:       1.1
 (Enter /home/matheus/.gaussian/g09/l502.exe)
 Closed shell SCF:
 Requested convergence on RMS density matrix=1.00D-08 within 128 cycles.
 Requested convergence on MAX density matrix=1.00D-06.
 Requested convergence on             energy=1.00D-06.
 No special actions if energy rises.
 Using DIIS extrapolation, IDIIS=  1040.
 Integral symmetry usage will be decided dynamically.
 IEnd=      178489 IEndB=      178489 NGot=   268435456 MDV=   268326278
 LenX=   268326278 LenY=   268273396
 Fock matrices will be formed incrementally for  20 cycles.

 Cycle   1  Pass 0  IDiag  1:
 FoFCou: FMM=F IPFlag=           0 FMFlag=      100000 FMFlg1=           0
         NFxFlg=           0 DoJE=F BraDBF=F KetDBF=F FulRan=T
         Omega=  0.000000  0.000000  1.000000  0.000000  0.000000 ICntrl=       0 IOpCl=  0
         NMat0=    1 NMatS0=    1 NMatT0=    0 NMatD0=    1 NMtDS0=    0 NMtDT0=    0
         I1Cent=           0 NGrid=           0.
 Symmetry not used in FoFCou.
 E= -2902.88712203080    
 DIIS: error= 3.41D-05 at cycle   1 NSaved=   1.
 NSaved= 1 IEnMin= 1 EnMin= -2902.88712203080     IErMin= 1 ErrMin= 3.41D-05
 ErrMax= 3.41D-05 EMaxC= 1.00D-01 BMatC= 5.62D-07 BMatP= 5.62D-07
 IDIUse=1 WtCom= 1.00D+00 WtEn= 0.00D+00
 Coeff-Com:  0.100D+01
 Coeff:      0.100D+01
 Gap=     0.510 Goal=   None    Shift=    0.000
 RMSDP=1.78D-05 MaxDP=7.89D-04              OVMax= 3.08D-04

 Cycle   2  Pass 0  IDiag  1:
 RMSU=  1.26D-05    CP:  1.00D+00
 E= -2902.88712263570     Delta-E=       -0.000000604901 Rises=F Damp=F
 DIIS: error= 7.63D-06 at cycle   2 NSaved=   2.
 NSaved= 2 IEnMin= 2 EnMin= -2902.88712263570     IErMin= 2 ErrMin= 7.63D-06
 ErrMax= 7.63D-06 EMaxC= 1.00D-01 BMatC= 1.42D-08 BMatP= 5.62D-07
 IDIUse=1 WtCom= 1.00D+00 WtEn= 0.00D+00
 Coeff-Com: -0.459D-01 0.105D+01
 Coeff:     -0.459D-01 0.105D+01
 Gap=     0.509 Goal=   None    Shift=    0.000
 RMSDP=2.28D-06 MaxDP=9.87D-05 DE=-6.05D-07 OVMax= 5.33D-05

 Initial convergence to 1.0D-05 achieved.  Increase integral accuracy.
 Cycle   3  Pass 1  IDiag  1:
 E= -2902.88712265755     Delta-E=       -0.000000021854 Rises=F Damp=F
 DIIS: error= 3.25D-06 at cycle   1 NSaved=   1.
 NSaved= 1 IEnMin= 1 EnMin= -2902.88712265755     IErMin= 1 ErrMin= 3.25D-06
 ErrMax= 3.25D-06 EMaxC= 1.00D-01 BMatC= 1.33D-09 BMatP= 1.33D-09
 IDIUse=1 WtCom= 1.00D+00 WtEn= 0.00D+00
 Coeff-Com:  0.100D+01
 Coeff:      0.100D+01
 Gap=     0.509 Goal=   None    Shift=    0.000
 RMSDP=2.28D-06 MaxDP=9.87D-05 DE=-2.19D-08 OVMax= 2.01D-05

 Cycle   4  Pass 1  IDiag  1:
 RMSU=  1.96D-07    CP:  1.00D+00
 E= -2902.88712265975     Delta-E=       -0.000000002198 Rises=F Damp=F
 DIIS: error= 8.16D-07 at cycle   2 NSaved=   2.
 NSaved= 2 IEnMin= 2 EnMin= -2902.88712265975     IErMin= 2 ErrMin= 8.16D-07
 ErrMax= 8.16D-07 EMaxC= 1.00D-01 BMatC= 2.80D-10 BMatP= 1.33D-09
 IDIUse=1 WtCom= 1.00D+00 WtEn= 0.00D+00
 Coeff-Com:  0.173D+00 0.827D+00
 Coeff:      0.173D+00 0.827D+00
 Gap=     0.509 Goal=   None    Shift=    0.000
 RMSDP=7.46D-08 MaxDP=2.15D-06 DE=-2.20D-09 OVMax= 5.71D-06

 Cycle   5  Pass 1  IDiag  1:
 RMSU=  4.37D-08    CP:  1.00D+00  1.15D+00
 E= -2902.88712266015     Delta-E=       -0.000000000396 Rises=F Damp=F
 DIIS: error= 4.65D-07 at cycle   3 NSaved=   3.
 NSaved= 3 IEnMin= 3 EnMin= -2902.88712266015     IErMin= 3 ErrMin= 4.65D-07
 ErrMax= 4.65D-07 EMaxC= 1.00D-01 BMatC= 6.72D-11 BMatP= 2.80D-10
 IDIUse=1 WtCom= 1.00D+00 WtEn= 0.00D+00
 Coeff-Com: -0.155D+00 0.786D-01 0.108D+01
 Coeff:     -0.155D+00 0.786D-01 0.108D+01
 Gap=     0.509 Goal=   None    Shift=    0.000
 RMSDP=5.38D-08 MaxDP=1.60D-06 DE=-3.96D-10 OVMax= 5.00D-06

 Cycle   6  Pass 1  IDiag  1:
 RMSU=  2.29D-08    CP:  1.00D+00  1.29D+00  1.26D+00
 E= -2902.88712266029     Delta-E=       -0.000000000140 Rises=F Damp=F
 DIIS: error= 2.08D-07 at cycle   4 NSaved=   4.
 NSaved= 4 IEnMin= 4 EnMin= -2902.88712266029     IErMin= 4 ErrMin= 2.08D-07
 ErrMax= 2.08D-07 EMaxC= 1.00D-01 BMatC= 1.18D-11 BMatP= 6.72D-11
 IDIUse=1 WtCom= 1.00D+00 WtEn= 0.00D+00
 Coeff-Com: -0.746D-01-0.130D+00 0.294D+00 0.910D+00
 Coeff:     -0.746D-01-0.130D+00 0.294D+00 0.910D+00
 Gap=     0.509 Goal=   None    Shift=    0.000
 RMSDP=2.07D-08 MaxDP=5.40D-07 DE=-1.40D-10 OVMax= 2.27D-06

 Cycle   7  Pass 1  IDiag  1:
 RMSU=  8.04D-09    CP:  1.00D+00  1.33D+00  1.44D+00  1.28D+00
 E= -2902.88712266032     Delta-E=       -0.000000000032 Rises=F Damp=F
 DIIS: error= 6.07D-08 at cycle   5 NSaved=   5.
 NSaved= 5 IEnMin= 5 EnMin= -2902.88712266032     IErMin= 5 ErrMin= 6.07D-08
 ErrMax= 6.07D-08 EMaxC= 1.00D-01 BMatC= 9.51D-13 BMatP= 1.18D-11
 IDIUse=1 WtCom= 1.00D+00 WtEn= 0.00D+00
 Coeff-Com:  0.533D-01 0.650D-01-0.254D+00-0.495D+00 0.163D+01
 Coeff:      0.533D-01 0.650D-01-0.254D+00-0.495D+00 0.163D+01
 Gap=     0.509 Goal=   None    Shift=    0.000
 RMSDP=1.28D-08 MaxDP=3.13D-07 DE=-3.18D-11 OVMax= 1.56D-06

 Cycle   8  Pass 1  IDiag  1:
 RMSU=  3.69D-09    CP:  1.00D+00  1.31D+00  1.48D+00  1.52D+00  1.63D+00
 E= -2902.88712266032     Delta-E=        0.000000000000 Rises=F Damp=F
 DIIS: error= 2.44D-08 at cycle   6 NSaved=   6.
 NSaved= 6 IEnMin= 6 EnMin= -2902.88712266032     IErMin= 6 ErrMin= 2.44D-08
 ErrMax= 2.44D-08 EMaxC= 1.00D-01 BMatC= 1.31D-13 BMatP= 9.51D-13
 IDIUse=1 WtCom= 1.00D+00 WtEn= 0.00D+00
 Coeff-Com:  0.655D-02 0.102D-01-0.229D-01-0.736D-01-0.174D-01 0.110D+01
 Coeff:      0.655D-02 0.102D-01-0.229D-01-0.736D-01-0.174D-01 0.110D+01
 Gap=     0.509 Goal=   None    Shift=    0.000
 RMSDP=3.22D-09 MaxDP=7.01D-08 DE=-4.55D-13 OVMax= 4.95D-07

 SCF Done:  E(RHF) =  -2902.88712266     A.U. after    8 cycles
             Convg  =    0.3222D-08             -V/T =  2.0001
 KE= 2.902564234985D+03 PE=-7.150244431098D+03 EE= 1.239999970496D+03
 Leave Link  502 at Wed Dec  4 12:11:58 2019, MaxMem=  268435456 cpu:      40.8
 (Enter /home/matheus/.gaussian/g09/l801.exe)
 Windowed orbitals will be sorted by symmetry type.
 ExpMin= 2.53D-02 ExpMax= 1.17D+07 ExpMxC= 1.33D+04 IAcc=3 IRadAn=         5 AccDes= 0.00D+00
 HarFok:  IExCor=  205 AccDes= 0.00D+00 IRadAn=         5 IDoV=-2
 ScaDFX=  1.000000  1.000000  1.000000  1.000000
 DSYEVD returned Info=          93 IAlg= 4 N=    46 NDim=    46 NE2=     4547561 trying DSYEV.
 DSYEVD returned Info=          89 IAlg= 4 N=    59 NDim=    59 NE2=     4547561 trying DSYEV.
 Largest valence mixing into a core orbital is  1.47D-04
 Largest core mixing into a valence orbital is  2.60D-05
 Range of M.O.s used for correlation:    12   197
 NBasis=   197 NAE=    27 NBE=    27 NFC=    11 NFV=     0
 NROrb=    186 NOA=    16 NOB=    16 NVA=   170 NVB=   170

 **** Warning!!: The largest alpha MO coefficient is  0.12271857D+02

 Leave Link  801 at Wed Dec  4 12:11:58 2019, MaxMem=  268435456 cpu:       0.2
 (Enter /home/matheus/.gaussian/g09/l804.exe)
 Closed-shell transformation, MDV=   268435456 ITran=4 ISComp=1.
 Semi-Direct transformation.
 ModeAB=           4 MOrb=            16 LenV=     267350982
 LASXX=     48528660 LTotXX=    48528660 LenRXX=    97827436
 LTotAB=    49298776 MaxLAS=    72182880 LenRXY=           0
 NonZer=   146356096 LenScr=   220395520 LnRSAI=    72182880
 LnScr1=   109029376 LExtra=           0 Total=    499435212
 MaxDsk=          -1 SrtSym=           T ITran=            4
 DoSDTr:  NPSUse=  2
 JobTyp=0 Pass  1:  I=   1 to  16.
 (rs|ai) integrals will be sorted in core.
 Complete sort for first half transformation.
 First half transformation complete.
 Begin second half transformation for I=  10.
 Complete sort for second half transformation.
 Second half transformation complete.
 SymMOI:  orbitals are not symmetric.
 Spin components of T(2) and E(2):
     alpha-alpha T2 =       0.2547115123D-01 E2=     -0.9836632742D-01
     alpha-beta  T2 =       0.1411330396D+00 E2=     -0.5527083809D+00
     beta-beta   T2 =       0.2547115123D-01 E2=     -0.9836632742D-01
 ANorm=    0.1091822029D+01
 E2 =    -0.7494410357D+00 EUMP2 =    -0.29036365636960D+04
 Leave Link  804 at Wed Dec  4 12:12:20 2019, MaxMem=  268435456 cpu:      41.4
 (Enter /home/matheus/.gaussian/g09/l913.exe)
 CIDS:  MDV=   268435456.
 Frozen-core window:  NFC=  11 NFV=   0.
 IFCWin=0 IBDFC=1 NFBD=     0     0 NFCmp=     0     0 NFFFC=     0     0
 Using DD3R+UMP44R for 1st iteration, S=T.
 Using DD4RQ for 2nd and later iterations.
 Would need an additional       431206676 words for in-memory AO integral storage.
 MP4(SDTQ)
 =========
 DD1Dir will call FoFDir   1 times, MxPair=       272
 NAB=   136 NAA=     0 NBB=     0 NumPrc=  2.
 Integrals replicated using symmetry in FoFDir.
 MinBra= 0 MaxBra= 3 Meth= 1.
 IRaf=       0 NMat= 272 IRICut=     340 DoRegI=T DoRafI=T ISym2E= 2 JSym2E=2.
 MP4(D)= -0.14955740D-01
 MP4(S)= -0.62583545D-02
 MP4(R+Q)=  0.14949762D-01
 T4(AAA)= -0.98138866D-03
 T4(AAB)= -0.13767155D-01
 Time for triples=     1346.73 seconds.
 MP4(T)=   -0.29497088D-01
 E3=       -0.12070315D-01        EUMP3=      -0.29036486340D+04
 E4(DQ)=   -0.59779268D-05        UMP4(DQ)=   -0.29036486400D+04
 E4(SDQ)=  -0.62643324D-02        UMP4(SDQ)=  -0.29036548983D+04
 E4(SDTQ)= -0.35761420D-01        UMP4(SDTQ)= -0.29036843954D+04
 VARIATIONAL ENERGIES WITH THE FIRST-ORDER WAVEFUNCTION:
 E(VAR1)=  -0.29035259341D+04     E(CISD,4)=  -0.29035258990D+04
 Largest amplitude= 1.77D-02
 Leave Link  913 at Wed Dec  4 12:24:23 2019, MaxMem=  268435456 cpu:    1423.9
 (Enter /home/matheus/.gaussian/g09/l108.exe)
 Scan completed.

 Summary of the potential surface scan:
   N      R1          SCF          MP2          MP3         MP4DQ       MP4SDQ       MP4SDTQ  
 ----  ---------  -----------  -----------  -----------  -----------  -----------  -----------
    1     3.0000  -2902.87898  -2903.63554  -2903.64679  -2903.64637  -2903.65282  -2903.68326
    2     3.1000  -2902.88143  -2903.63690  -2903.64830  -2903.64795  -2903.65437  -2903.68467
    3     3.2000  -2902.88317  -2903.63771  -2903.64923  -2903.64894  -2903.65534  -2903.68551
    4     3.3000  -2902.88440  -2903.63814  -2903.64976  -2903.64952  -2903.65590  -2903.68596
    5     3.4000  -2902.88527  -2903.63832  -2903.65002  -2903.64982  -2903.65618  -2903.68616
    6     3.5000  -2902.88587  -2903.63834  -2903.65010  -2903.64994  -2903.65628  -2903.68618
    7     3.6000  -2902.88629  -2903.63825  -2903.65007  -2903.64994  -2903.65627  -2903.68610
    8     3.7000  -2902.88657  -2903.63811  -2903.64997  -2903.64986  -2903.65619  -2903.68596
    9     3.8000  -2902.88677  -2903.63794  -2903.64984  -2903.64975  -2903.65607  -2903.68579
   10     3.9000  -2902.88690  -2903.63777  -2903.64970  -2903.64963  -2903.65593  -2903.68561
   11     4.0000  -2902.88699  -2903.63760  -2903.64955  -2903.64949  -2903.65579  -2903.68544
   12     4.1000  -2902.88704  -2903.63744  -2903.64941  -2903.64937  -2903.65566  -2903.68528
   13     4.2000  -2902.88708  -2903.63729  -2903.64928  -2903.64925  -2903.65553  -2903.68513
   14     4.3000  -2902.88710  -2903.63716  -2903.64916  -2903.64914  -2903.65542  -2903.68499
   15     4.4000  -2902.88711  -2903.63704  -2903.64906  -2903.64904  -2903.65532  -2903.68488
   16     4.5000  -2902.88712  -2903.63693  -2903.64897  -2903.64895  -2903.65522  -2903.68477
   17     4.6000  -2902.88712  -2903.63684  -2903.64888  -2903.64888  -2903.65514  -2903.68468
   18     4.7000  -2902.88713  -2903.63676  -2903.64881  -2903.64881  -2903.65507  -2903.68459
   19     4.8000  -2902.88713  -2903.63669  -2903.64874  -2903.64874  -2903.65501  -2903.68452
   20     4.9000  -2902.88712  -2903.63662  -2903.64869  -2903.64869  -2903.65495  -2903.68445
   21     5.0000  -2902.88712  -2903.63656  -2903.64863  -2903.64864  -2903.65490  -2903.68440
 ----  ---------  -----------  -----------  -----------  -----------  -----------  -----------
  
 Leave Link  108 at Wed Dec  4 12:24:23 2019, MaxMem=  268435456 cpu:       0.0
 (Enter /home/matheus/.gaussian/g09/l9999.exe)
 1\1\GINC-REDGIANT\Scan\RMP4SDTQ-FC\Aug-CC-pVTZ\H2Kr1O2\MATHEUS\04-Dec-
 2019\1\\#p mp4/aug-cc-PVTz int=ultrafine Scan\\PTCC\\0,1\O,0,0.,0.,0.7
 25\O,0,0.,0.,-0.725\H,0,0.7037808064,-0.5905422151,1.0235104166\H,0,0.
 ,0.9187205947,-1.0235104166\Kr,0,0.,R1,0.\\R1=3.,s,20,0.1\\Version=EM6
 4L-G09RevC.01\State=1-A\HF=-2902.8789754,-2902.8814299,-2902.8831721,-
 2902.8844022,-2902.8852661,-2902.8858689,-2902.8862866,-2902.8865735,-
 2902.8867684,-2902.8868991,-2902.8869855,-2902.8870417,-2902.8870776,-
 2902.8871,-2902.8871135,-2902.8871212,-2902.887125,-2902.8871262,-2902
 .8871258,-2902.8871245,-2902.8871227\MP2=-2903.6355399,-2903.6368967,-
 2903.6377051,-2903.6381377,-2903.6383183,-2903.6383355,-2903.6382522,-
 2903.6381119,-2903.6379443,-2903.6377686,-2903.6375967,-2903.6374355,-
 2903.6372882,-2903.6371557,-2903.6370378,-2903.6369331,-2903.6368404,-
 2903.6367582,-2903.6366854,-2903.6366209,-2903.6365637\MP3=-2903.64679
 14,-2903.6483028,-2903.6492335,-2903.6497635,-2903.6500222,-2903.65010
 28,-2903.6500714,-2903.649974,-2903.6498422,-2903.6496965,-2903.649549
 9,-2903.6494101,-2903.649281,-2903.6491639,-2903.6490591,-2903.6489658
 ,-2903.6488828,-2903.648809,-2903.6487436,-2903.6486855,-2903.648634\M
 P4D=-2903.6617627,-2903.6632721,-2903.6642017,-2903.6647308,-2903.6649
 886,-2903.6650683,-2903.6650359,-2903.6649376,-2903.6648048,-2903.6646
 583,-2903.664511,-2903.6643705,-2903.6642407,-2903.6641231,-2903.66401
 77,-2903.6639238,-2903.6638402,-2903.663766,-2903.6637001,-2903.663641
 6,-2903.6635898\MP4DQ=-2903.6463681,-2903.6479472,-2903.6489368,-2903.
 6495173,-2903.6498192,-2903.6499364,-2903.6499357,-2903.6498643,-2903.
 6497541,-2903.6496265,-2903.6494949,-2903.6493676,-2903.6492487,-2903.
 6491402,-2903.6490424,-2903.6489548,-2903.6488766,-2903.6488068,-2903.
 6487446,-2903.6486892,-2903.64864\MP4SDQ=-2903.6528234,-2903.6543746,-
 2903.65534,-2903.6558996,-2903.6561833,-2903.6562846,-2903.6562701,-29
 03.6561867,-2903.6560661,-2903.6559294,-2903.6557901,-2903.6556561,-29
 03.6555315,-2903.6554181,-2903.6553161,-2903.6552249,-2903.6551436,-29
 03.6550711,-2903.6550066,-2903.6549493,-2903.6548983\MP4SDTQ=-2903.683
 2639,-2903.6846698,-2903.6855113,-2903.6859649,-2903.6861578,-2903.686
 1815,-2903.6861008,-2903.6859608,-2903.6857922,-2903.6856148,-2903.685
 4411,-2903.685278,-2903.6851288,-2903.6849947,-2903.6848751,-2903.6847
 691,-2903.6846751,-2903.6845919,-2903.6845183,-2903.6844531,-2903.6843
 954\RMSD=5.478e-09,6.297e-09,4.958e-09,3.532e-09,2.876e-09,2.731e-09,9
 .514e-09,8.024e-09,7.592e-09,9.498e-09,2.980e-09,8.802e-09,8.013e-09,7
 .484e-09,7.004e-09,6.322e-09,5.428e-09,4.589e-09,3.966e-09,3.534e-09,3
 .222e-09\PG=C01 [X(H2Kr1O2)]\\@


 IF AT FIRST YOU DON'T SUCCEED, TRY LOOKING IN 
 THE WASTEBASKET FOR THE DIRECTIONS.
 Job cpu time:  0 days  8 hours 46 minutes  5.3 seconds.
 File lengths (MBytes):  RWF=   3955 Int=      0 D2E=      0 Chk=      4 Scr=      1
 Normal termination of Gaussian 09 at Wed Dec  4 12:24:24 2019.
