 Entering Gaussian System, Link 0=g09
 Input=/home/matheus/.ptcc/Inputs/H2O2-Kr_28.com
 Output=/home/matheus/.ptcc/Logs-MP4/H2O2-Kr_28.log
 Initial command:
 /home/matheus/.gaussian/g09/l1.exe /home/matheus/.gaussian/g09/scratch/Gau-4006.inp -scrdir=/home/matheus/.gaussian/g09/scratch/
 Entering Link 1 = /home/matheus/.gaussian/g09/l1.exe PID=      4008.
  
 Copyright (c) 1988,1990,1992,1993,1995,1998,2003,2009,2011,
            Gaussian, Inc.  All Rights Reserved.
  
 This is part of the Gaussian(R) 09 program.  It is based on
 the Gaussian(R) 03 system (copyright 2003, Gaussian, Inc.),
 the Gaussian(R) 98 system (copyright 1998, Gaussian, Inc.),
 the Gaussian(R) 94 system (copyright 1995, Gaussian, Inc.),
 the Gaussian 92(TM) system (copyright 1992, Gaussian, Inc.),
 the Gaussian 90(TM) system (copyright 1990, Gaussian, Inc.),
 the Gaussian 88(TM) system (copyright 1988, Gaussian, Inc.),
 the Gaussian 86(TM) system (copyright 1986, Carnegie Mellon
 University), and the Gaussian 82(TM) system (copyright 1983,
 Carnegie Mellon University). Gaussian is a federally registered
 trademark of Gaussian, Inc.
  
 This software contains proprietary and confidential information,
 including trade secrets, belonging to Gaussian, Inc.
  
 This software is provided under written license and may be
 used, copied, transmitted, or stored only in accord with that
 written license.
  
 The following legend is applicable only to US Government
 contracts under FAR:
  
                    RESTRICTED RIGHTS LEGEND
  
 Use, reproduction and disclosure by the US Government is
 subject to restrictions as set forth in subparagraphs (a)
 and (c) of the Commercial Computer Software - Restricted
 Rights clause in FAR 52.227-19.
  
 Gaussian, Inc.
 340 Quinnipiac St., Bldg. 40, Wallingford CT 06492
  
  
 ---------------------------------------------------------------
 Warning -- This program may not be used in any manner that
 competes with the business of Gaussian, Inc. or will provide
 assistance to any competitor of Gaussian, Inc.  The licensee
 of this program is prohibited from giving any competitor of
 Gaussian, Inc. access to this program.  By using this program,
 the user acknowledges that Gaussian, Inc. is engaged in the
 business of creating and licensing software in the field of
 computational chemistry and represents and warrants to the
 licensee that it is not a competitor of Gaussian, Inc. and that
 it will not use this program in any manner prohibited above.
 ---------------------------------------------------------------
  

 Cite this work as:
 Gaussian 09, Revision C.01,
 M. J. Frisch, G. W. Trucks, H. B. Schlegel, G. E. Scuseria, 
 M. A. Robb, J. R. Cheeseman, G. Scalmani, V. Barone, B. Mennucci, 
 G. A. Petersson, H. Nakatsuji, M. Caricato, X. Li, H. P. Hratchian, 
 A. F. Izmaylov, J. Bloino, G. Zheng, J. L. Sonnenberg, M. Hada, 
 M. Ehara, K. Toyota, R. Fukuda, J. Hasegawa, M. Ishida, T. Nakajima, 
 Y. Honda, O. Kitao, H. Nakai, T. Vreven, J. A. Montgomery, Jr., 
 J. E. Peralta, F. Ogliaro, M. Bearpark, J. J. Heyd, E. Brothers, 
 K. N. Kudin, V. N. Staroverov, T. Keith, R. Kobayashi, J. Normand, 
 K. Raghavachari, A. Rendell, J. C. Burant, S. S. Iyengar, J. Tomasi, 
 M. Cossi, N. Rega, J. M. Millam, M. Klene, J. E. Knox, J. B. Cross, 
 V. Bakken, C. Adamo, J. Jaramillo, R. Gomperts, R. E. Stratmann, 
 O. Yazyev, A. J. Austin, R. Cammi, C. Pomelli, J. W. Ochterski, 
 R. L. Martin, K. Morokuma, V. G. Zakrzewski, G. A. Voth, 
 P. Salvador, J. J. Dannenberg, S. Dapprich, A. D. Daniels, 
 O. Farkas, J. B. Foresman, J. V. Ortiz, J. Cioslowski, 
 and D. J. Fox, Gaussian, Inc., Wallingford CT, 2010.
 
 ******************************************
 Gaussian 09:  EM64L-G09RevC.01 23-Sep-2011
                14-Dec-2019 
 ******************************************
 %mem=2GB
 %nproc=2
 Will use up to    2 processors via shared memory.
 -------------------------------------
 #p mp4/aug-cc-PVTz int=ultrafine Scan
 -------------------------------------
 1/38=1,60=1/1,8;
 2/12=2,17=6,18=5,29=3,40=1/2;
 3/5=16,6=1,7=10,11=9,16=1,25=1,30=1,75=-5/1,2,3;
 4//1;
 5/5=2,38=5/2;
 8/6=4,9=120000,10=1/1,4;
 9/5=5/13;
 6/7=2,8=2,9=2,10=2,18=1/1;
 1/60=1/8(1);
 99/9=1/99;
 2/29=3/2;
 3/5=16,6=1,7=10,11=9,16=1,25=1,30=1,75=-5/1,2,3;
 4/5=5,16=3/1;
 5/5=2,38=5/2;
 8/6=4,9=120000,10=1/1,4;
 9/5=5/13;
 1/60=1/8(-6);
 99/9=1/99;
 Leave Link    1 at Sat Dec 14 15:18:50 2019, MaxMem=  268435456 cpu:       0.0
 (Enter /home/matheus/.gaussian/g09/l101.exe)
 ----
 PTCC
 ----
 Charge =  0 Multiplicity = 1
 Symbolic Z-Matrix:
 O                     0.        0.        0.725 
 O                     0.        0.       -0.725 
 H                    -0.90476   0.15953   1.02351 
 H                     0.        0.91872  -1.02351 
 Kr                    0.       R1        0. 
       Variables:
  R1                    3.     Scan 20    0.1    
 
 NAtoms=      5 NQM=        0 NQMF=       0 NMMI=      5 NMMIF=      0
                NMic=       0 NMicF=      0.
                    Isotopes and Nuclear Properties:
 (Nuclear quadrupole moments (NQMom) in fm**2, nuclear magnetic moments (NMagM)
  in nuclear magnetons)

  Atom         1           2           3           4           5
 IAtWgt=          16          16           1           1          84
 AtmWgt=  15.9949146  15.9949146   1.0078250   1.0078250  83.9115064
 NucSpn=           0           0           1           1           0
 AtZEff=   0.0000000   0.0000000   0.0000000   0.0000000   0.0000000
 NQMom=    0.0000000   0.0000000   0.0000000   0.0000000   0.0000000
 NMagM=    0.0000000   0.0000000   2.7928460   2.7928460   0.0000000
 Leave Link  101 at Sat Dec 14 15:18:50 2019, MaxMem=  268435456 cpu:       0.1
 (Enter /home/matheus/.gaussian/g09/l108.exe)
 Scan the potential surface.
 Variable   Value     No. Steps Step-Size
 -------- ----------- --------- ---------
     1       3.000000      20      0.1000
 A total of     21 points will be computed.
 Leave Link  108 at Sat Dec 14 15:18:50 2019, MaxMem=  268435456 cpu:       0.0
 (Enter /home/matheus/.gaussian/g09/l202.exe)
 ---------------------------------------------------------------------------------------------------
                            Z-MATRIX (ANGSTROMS AND DEGREES)
   CD    Cent   Atom    N1       Length/X        N2       Alpha/Y        N3        Beta/Z          J
 ---------------------------------------------------------------------------------------------------
      1      1  O        0   0.000000          0.000000          0.725000
      2      2  O        0   0.000000          0.000000         -0.725000
      3      3  H        0  -0.904763          0.159534          1.023510
      4      4  H        0   0.000000          0.918721         -1.023510
      5      5  Kr       0   0.000000          3.000000          0.000000
 ---------------------------------------------------------------------------------------------------
                         Z-Matrix orientation:                         
 ---------------------------------------------------------------------
 Center     Atomic      Atomic             Coordinates (Angstroms)
 Number     Number       Type             X           Y           Z
 ---------------------------------------------------------------------
      1          8           0        0.000000    0.000000    0.725000
      2          8           0        0.000000    0.000000   -0.725000
      3          1           0       -0.904763    0.159534    1.023510
      4          1           0        0.000000    0.918721   -1.023510
      5         36           0        0.000000    3.000000    0.000000
 ---------------------------------------------------------------------
                    Distance matrix (angstroms):
                    1          2          3          4          5
     1  O    0.000000
     2  O    1.450000   0.000000
     3  H    0.966000   1.975180   0.000000
     4  H    1.975180   0.966000   2.363314   0.000000
     5  Kr   3.086361   3.086361   3.151891   2.319331   0.000000
 Stoichiometry    H2KrO2
 Framework group  C1[X(H2KrO2)]
 Deg. of freedom     9
 Full point group                 C1      NOp   1
 Largest Abelian subgroup         C1      NOp   1
 Largest concise Abelian subgroup C1      NOp   1
                         Standard orientation:                         
 ---------------------------------------------------------------------
 Center     Atomic      Atomic             Coordinates (Angstroms)
 Number     Number       Type             X           Y           Z
 ---------------------------------------------------------------------
      1          8           0       -2.025459   -0.700316   -0.115097
      2          8           0       -2.013251    0.743386    0.019343
      3          1           0       -1.883208   -1.082864    0.760447
      4          1           0       -1.092171    1.031511    0.061209
      5         36           0        0.980140   -0.008145   -0.001545
 ---------------------------------------------------------------------
 Rotational constants (GHZ):     25.6204873      2.3529019      2.1689661
 Leave Link  202 at Sat Dec 14 15:18:50 2019, MaxMem=  268435456 cpu:       0.0
 (Enter /home/matheus/.gaussian/g09/l301.exe)
 Standard basis: Aug-CC-pVTZ (5D, 7F)
 Ernie: Thresh=  0.10000D-02 Tol=  0.10000D-05 Strict=F.
 Ernie:  38 primitive shells out of 205 were deleted.
 There are   197 symmetry adapted basis functions of A   symmetry.
 Integral buffers will be    131072 words long.
 Raffenetti 1 integral format.
 Two-electron integral symmetry is turned on.
   197 basis functions,   415 primitive gaussians,   229 cartesian basis functions
    27 alpha electrons       27 beta electrons
       nuclear repulsion energy       149.6490473971 Hartrees.
 IExCor=    0 DFT=F Ex=HF Corr=None ExCW=0 ScaHFX=  1.000000
 ScaDFX=  1.000000  1.000000  1.000000  1.000000 ScalE2=  1.000000  1.000000
 IRadAn=      5 IRanWt=     -1 IRanGd=            0 ICorTp=0
 NAtoms=    5 NActive=    5 NUniq=    5 SFac= 1.00D+00 NAtFMM=   60 NAOKFM=F Big=F
 Leave Link  301 at Sat Dec 14 15:18:50 2019, MaxMem=  268435456 cpu:       0.0
 (Enter /home/matheus/.gaussian/g09/l302.exe)
 NPDir=0 NMtPBC=     1 NCelOv=     1 NCel=       1 NClECP=     1 NCelD=      1
         NCelK=      1 NCelE2=     1 NClLst=     1 CellRange=     0.0.
 One-electron integrals computed using PRISM.
 NBasis=   197 RedAO= T  NBF=   197
 NBsUse=   197 1.00D-06 NBFU=   197
 Leave Link  302 at Sat Dec 14 15:18:50 2019, MaxMem=  268435456 cpu:       0.2
 (Enter /home/matheus/.gaussian/g09/l303.exe)
 DipDrv:  MaxL=1.
 Leave Link  303 at Sat Dec 14 15:18:50 2019, MaxMem=  268435456 cpu:       0.0
 (Enter /home/matheus/.gaussian/g09/l401.exe)
 Harris functional with IExCor=  205 diagonalized for initial guess.
 ExpMin= 2.53D-02 ExpMax= 1.17D+07 ExpMxC= 1.33D+04 IAcc=3 IRadAn=         5 AccDes= 0.00D+00
 HarFok:  IExCor=  205 AccDes= 0.00D+00 IRadAn=         5 IDoV= 1
 ScaDFX=  1.000000  1.000000  1.000000  1.000000
 FoFCou: FMM=F IPFlag=           0 FMFlag=      100000 FMFlg1=           0
         NFxFlg=           0 DoJE=T BraDBF=F KetDBF=T FulRan=T
         Omega=  0.000000  0.000000  1.000000  0.000000  0.000000 ICntrl=     500 IOpCl=  0
         NMat0=    1 NMatS0=    1 NMatT0=    0 NMatD0=    1 NMtDS0=    0 NMtDT0=    0
         I1Cent=           4 NGrid=           0.
 Petite list used in FoFCou.
 Harris En= -2901.93218911977    
 Initial guess orbital symmetries:
       Occupied  (A) (A) (A) (A) (A) (A) (A) (A) (A) (A) (A) (A)
                 (A) (A) (A) (A) (A) (A) (A) (A) (A) (A) (A) (A)
                 (A) (A) (A)
       Virtual   (A) (A) (A) (A) (A) (A) (A) (A) (A) (A) (A) (A)
                 (A) (A) (A) (A) (A) (A) (A) (A) (A) (A) (A) (A)
                 (A) (A) (A) (A) (A) (A) (A) (A) (A) (A) (A) (A)
                 (A) (A) (A) (A) (A) (A) (A) (A) (A) (A) (A) (A)
                 (A) (A) (A) (A) (A) (A) (A) (A) (A) (A) (A) (A)
                 (A) (A) (A) (A) (A) (A) (A) (A) (A) (A) (A) (A)
                 (A) (A) (A) (A) (A) (A) (A) (A) (A) (A) (A) (A)
                 (A) (A) (A) (A) (A) (A) (A) (A) (A) (A) (A) (A)
                 (A) (A) (A) (A) (A) (A) (A) (A) (A) (A) (A) (A)
                 (A) (A) (A) (A) (A) (A) (A) (A) (A) (A) (A) (A)
                 (A) (A) (A) (A) (A) (A) (A) (A) (A) (A) (A) (A)
                 (A) (A) (A) (A) (A) (A) (A) (A) (A) (A) (A) (A)
                 (A) (A) (A) (A) (A) (A) (A) (A) (A) (A) (A) (A)
                 (A) (A) (A) (A) (A) (A) (A) (A) (A) (A) (A) (A)
                 (A) (A)
 The electronic state of the initial guess is 1-A.
 Leave Link  401 at Sat Dec 14 15:18:50 2019, MaxMem=  268435456 cpu:       1.1
 (Enter /home/matheus/.gaussian/g09/l502.exe)
 Closed shell SCF:
 Requested convergence on RMS density matrix=1.00D-08 within 128 cycles.
 Requested convergence on MAX density matrix=1.00D-06.
 Requested convergence on             energy=1.00D-06.
 No special actions if energy rises.
 Using DIIS extrapolation, IDIIS=  1040.
 Integral symmetry usage will be decided dynamically.
 IEnd=      178489 IEndB=      178489 NGot=   268435456 MDV=   268326278
 LenX=   268326278 LenY=   268273396
 Fock matrices will be formed incrementally for  20 cycles.

 Cycle   1  Pass 0  IDiag  1:
 FoFCou: FMM=F IPFlag=           0 FMFlag=      100000 FMFlg1=           0
         NFxFlg=           0 DoJE=F BraDBF=F KetDBF=F FulRan=T
         Omega=  0.000000  0.000000  1.000000  0.000000  0.000000 ICntrl=       0 IOpCl=  0
         NMat0=    1 NMatS0=    1 NMatT0=    0 NMatD0=    1 NMtDS0=    0 NMtDT0=    0
         I1Cent=           0 NGrid=           0.
 Symmetry not used in FoFCou.
 E= -2902.75878027650    
 DIIS: error= 3.86D-02 at cycle   1 NSaved=   1.
 NSaved= 1 IEnMin= 1 EnMin= -2902.75878027650     IErMin= 1 ErrMin= 3.86D-02
 ErrMax= 3.86D-02 EMaxC= 1.00D-01 BMatC= 6.93D-01 BMatP= 6.93D-01
 IDIUse=3 WtCom= 6.14D-01 WtEn= 3.86D-01
 Coeff-Com:  0.100D+01
 Coeff-En:   0.100D+01
 Coeff:      0.100D+01
 Gap=     0.712 Goal=   None    Shift=    0.000
 GapD=    0.712 DampG=2.000 DampE=0.500 DampFc=1.0000 IDamp=-1.
 RMSDP=2.23D-03 MaxDP=1.50D-01              OVMax= 5.22D-02

 Cycle   2  Pass 0  IDiag  1:
 RMSU=  1.56D-03    CP:  1.01D+00
 E= -2902.86373534557     Delta-E=       -0.104955069070 Rises=F Damp=F
 DIIS: error= 7.09D-03 at cycle   2 NSaved=   2.
 NSaved= 2 IEnMin= 2 EnMin= -2902.86373534557     IErMin= 2 ErrMin= 7.09D-03
 ErrMax= 7.09D-03 EMaxC= 1.00D-01 BMatC= 4.07D-02 BMatP= 6.93D-01
 IDIUse=3 WtCom= 9.29D-01 WtEn= 7.09D-02
 Coeff-Com:  0.152D+00 0.848D+00
 Coeff-En:   0.000D+00 0.100D+01
 Coeff:      0.141D+00 0.859D+00
 Gap=     0.541 Goal=   None    Shift=    0.000
 RMSDP=8.00D-04 MaxDP=4.22D-02 DE=-1.05D-01 OVMax= 2.43D-02

 Cycle   3  Pass 0  IDiag  1:
 RMSU=  4.37D-04    CP:  1.01D+00  7.81D-01
 E= -2902.87766693579     Delta-E=       -0.013931590216 Rises=F Damp=F
 DIIS: error= 1.95D-03 at cycle   3 NSaved=   3.
 NSaved= 3 IEnMin= 3 EnMin= -2902.87766693579     IErMin= 3 ErrMin= 1.95D-03
 ErrMax= 1.95D-03 EMaxC= 1.00D-01 BMatC= 2.34D-03 BMatP= 4.07D-02
 IDIUse=3 WtCom= 9.81D-01 WtEn= 1.95D-02
 Coeff-Com: -0.609D-02 0.170D+00 0.836D+00
 Coeff-En:   0.000D+00 0.000D+00 0.100D+01
 Coeff:     -0.597D-02 0.167D+00 0.839D+00
 Gap=     0.521 Goal=   None    Shift=    0.000
 RMSDP=1.25D-04 MaxDP=4.93D-03 DE=-1.39D-02 OVMax= 7.67D-03

 Cycle   4  Pass 0  IDiag  1:
 RMSU=  4.96D-05    CP:  1.01D+00  8.12D-01  8.81D-01
 E= -2902.87881309728     Delta-E=       -0.001146161495 Rises=F Damp=F
 DIIS: error= 3.22D-04 at cycle   4 NSaved=   4.
 NSaved= 4 IEnMin= 4 EnMin= -2902.87881309728     IErMin= 4 ErrMin= 3.22D-04
 ErrMax= 3.22D-04 EMaxC= 1.00D-01 BMatC= 4.97D-05 BMatP= 2.34D-03
 IDIUse=3 WtCom= 9.97D-01 WtEn= 3.22D-03
 Coeff-Com: -0.439D-02 0.106D-01 0.152D+00 0.842D+00
 Coeff-En:   0.000D+00 0.000D+00 0.000D+00 0.100D+01
 Coeff:     -0.437D-02 0.106D-01 0.152D+00 0.842D+00
 Gap=     0.522 Goal=   None    Shift=    0.000
 RMSDP=2.19D-05 MaxDP=7.20D-04 DE=-1.15D-03 OVMax= 1.75D-03

 Cycle   5  Pass 0  IDiag  1:
 RMSU=  1.36D-05    CP:  1.01D+00  8.13D-01  8.97D-01  9.85D-01
 E= -2902.87885611082     Delta-E=       -0.000043013541 Rises=F Damp=F
 DIIS: error= 9.50D-05 at cycle   5 NSaved=   5.
 NSaved= 5 IEnMin= 5 EnMin= -2902.87885611082     IErMin= 5 ErrMin= 9.50D-05
 ErrMax= 9.50D-05 EMaxC= 1.00D-01 BMatC= 4.00D-06 BMatP= 4.97D-05
 IDIUse=1 WtCom= 1.00D+00 WtEn= 0.00D+00
 Coeff-Com:  0.867D-03-0.156D-01-0.751D-01 0.696D-02 0.108D+01
 Coeff:      0.867D-03-0.156D-01-0.751D-01 0.696D-02 0.108D+01
 Gap=     0.522 Goal=   None    Shift=    0.000
 RMSDP=1.16D-05 MaxDP=3.12D-04 DE=-4.30D-05 OVMax= 8.17D-04

 Cycle   6  Pass 0  IDiag  1:
 RMSU=  5.27D-06    CP:  1.01D+00  8.12D-01  8.94D-01  1.08D+00  1.26D+00
 E= -2902.87886246785     Delta-E=       -0.000006357023 Rises=F Damp=F
 DIIS: error= 3.35D-05 at cycle   6 NSaved=   6.
 NSaved= 6 IEnMin= 6 EnMin= -2902.87886246785     IErMin= 6 ErrMin= 3.35D-05
 ErrMax= 3.35D-05 EMaxC= 1.00D-01 BMatC= 3.20D-07 BMatP= 4.00D-06
 IDIUse=1 WtCom= 1.00D+00 WtEn= 0.00D+00
 Coeff-Com:  0.260D-03-0.519D-03-0.110D-01-0.593D-01 0.204D-01 0.105D+01
 Coeff:      0.260D-03-0.519D-03-0.110D-01-0.593D-01 0.204D-01 0.105D+01
 Gap=     0.522 Goal=   None    Shift=    0.000
 RMSDP=3.90D-06 MaxDP=1.40D-04 DE=-6.36D-06 OVMax= 3.74D-04

 Initial convergence to 1.0D-05 achieved.  Increase integral accuracy.
 Cycle   7  Pass 1  IDiag  1:
 E= -2902.87886313015     Delta-E=       -0.000000662307 Rises=F Damp=F
 DIIS: error= 1.76D-05 at cycle   1 NSaved=   1.
 NSaved= 1 IEnMin= 1 EnMin= -2902.87886313015     IErMin= 1 ErrMin= 1.76D-05
 ErrMax= 1.76D-05 EMaxC= 1.00D-01 BMatC= 6.36D-08 BMatP= 6.36D-08
 IDIUse=1 WtCom= 1.00D+00 WtEn= 0.00D+00
 Coeff-Com:  0.100D+01
 Coeff:      0.100D+01
 Gap=     0.522 Goal=   None    Shift=    0.000
 RMSDP=3.90D-06 MaxDP=1.40D-04 DE=-6.62D-07 OVMax= 1.45D-04

 Cycle   8  Pass 1  IDiag  1:
 RMSU=  9.47D-07    CP:  1.00D+00
 E= -2902.87886322576     Delta-E=       -0.000000095609 Rises=F Damp=F
 DIIS: error= 1.08D-05 at cycle   2 NSaved=   2.
 NSaved= 2 IEnMin= 2 EnMin= -2902.87886322576     IErMin= 2 ErrMin= 1.08D-05
 ErrMax= 1.08D-05 EMaxC= 1.00D-01 BMatC= 3.17D-08 BMatP= 6.36D-08
 IDIUse=1 WtCom= 1.00D+00 WtEn= 0.00D+00
 Coeff-Com:  0.363D+00 0.637D+00
 Coeff:      0.363D+00 0.637D+00
 Gap=     0.522 Goal=   None    Shift=    0.000
 RMSDP=5.99D-07 MaxDP=2.55D-05 DE=-9.56D-08 OVMax= 6.11D-05

 Cycle   9  Pass 1  IDiag  1:
 RMSU=  4.03D-07    CP:  1.00D+00  1.14D+00
 E= -2902.87886325910     Delta-E=       -0.000000033335 Rises=F Damp=F
 DIIS: error= 4.57D-06 at cycle   3 NSaved=   3.
 NSaved= 3 IEnMin= 3 EnMin= -2902.87886325910     IErMin= 3 ErrMin= 4.57D-06
 ErrMax= 4.57D-06 EMaxC= 1.00D-01 BMatC= 5.61D-09 BMatP= 3.17D-08
 IDIUse=1 WtCom= 1.00D+00 WtEn= 0.00D+00
 Coeff-Com: -0.509D+00-0.351D+00 0.186D+01
 Coeff:     -0.509D+00-0.351D+00 0.186D+01
 Gap=     0.522 Goal=   None    Shift=    0.000
 RMSDP=1.03D-06 MaxDP=2.10D-05 DE=-3.33D-08 OVMax= 1.39D-04

 Cycle  10  Pass 1  IDiag  1:
 RMSU=  1.24D-07    CP:  1.00D+00  1.79D+00  1.89D+00
 E= -2902.87886328375     Delta-E=       -0.000000024651 Rises=F Damp=F
 DIIS: error= 8.46D-07 at cycle   4 NSaved=   4.
 NSaved= 4 IEnMin= 4 EnMin= -2902.87886328375     IErMin= 4 ErrMin= 8.46D-07
 ErrMax= 8.46D-07 EMaxC= 1.00D-01 BMatC= 2.69D-10 BMatP= 5.61D-09
 IDIUse=1 WtCom= 1.00D+00 WtEn= 0.00D+00
 Coeff-Com:  0.980D-01 0.444D-01-0.420D+00 0.128D+01
 Coeff:      0.980D-01 0.444D-01-0.420D+00 0.128D+01
 Gap=     0.522 Goal=   None    Shift=    0.000
 RMSDP=1.60D-07 MaxDP=3.83D-06 DE=-2.47D-08 OVMax= 2.51D-05

 Cycle  11  Pass 1  IDiag  1:
 RMSU=  3.76D-08    CP:  1.00D+00  1.86D+00  2.00D+00  1.59D+00
 E= -2902.87886328476     Delta-E=       -0.000000001012 Rises=F Damp=F
 DIIS: error= 3.59D-07 at cycle   5 NSaved=   5.
 NSaved= 5 IEnMin= 5 EnMin= -2902.87886328476     IErMin= 5 ErrMin= 3.59D-07
 ErrMax= 3.59D-07 EMaxC= 1.00D-01 BMatC= 5.64D-11 BMatP= 2.69D-10
 IDIUse=1 WtCom= 1.00D+00 WtEn= 0.00D+00
 Coeff-Com:  0.122D+00 0.806D-01-0.452D+00 0.150D+00 0.110D+01
 Coeff:      0.122D+00 0.806D-01-0.452D+00 0.150D+00 0.110D+01
 Gap=     0.522 Goal=   None    Shift=    0.000
 RMSDP=7.36D-08 MaxDP=1.74D-06 DE=-1.01D-09 OVMax= 1.13D-05

 Cycle  12  Pass 1  IDiag  1:
 RMSU=  1.39D-08    CP:  1.00D+00  1.89D+00  2.03D+00  1.90D+00  1.35D+00
 E= -2902.87886328492     Delta-E=       -0.000000000160 Rises=F Damp=F
 DIIS: error= 1.18D-07 at cycle   6 NSaved=   6.
 NSaved= 6 IEnMin= 6 EnMin= -2902.87886328492     IErMin= 6 ErrMin= 1.18D-07
 ErrMax= 1.18D-07 EMaxC= 1.00D-01 BMatC= 3.88D-12 BMatP= 5.64D-11
 IDIUse=1 WtCom= 1.00D+00 WtEn= 0.00D+00
 Coeff-Com: -0.738D-02-0.294D-02 0.317D-01-0.107D+00-0.327D-01 0.112D+01
 Coeff:     -0.738D-02-0.294D-02 0.317D-01-0.107D+00-0.327D-01 0.112D+01
 Gap=     0.522 Goal=   None    Shift=    0.000
 RMSDP=1.78D-08 MaxDP=3.79D-07 DE=-1.60D-10 OVMax= 2.56D-06

 Cycle  13  Pass 1  IDiag  1:
 RMSU=  3.69D-09    CP:  1.00D+00  1.89D+00  2.03D+00  1.96D+00  1.55D+00
                    CP:  1.23D+00
 E= -2902.87886328494     Delta-E=       -0.000000000020 Rises=F Damp=F
 DIIS: error= 2.93D-08 at cycle   7 NSaved=   7.
 NSaved= 7 IEnMin= 7 EnMin= -2902.87886328494     IErMin= 7 ErrMin= 2.93D-08
 ErrMax= 2.93D-08 EMaxC= 1.00D-01 BMatC= 3.22D-13 BMatP= 3.88D-12
 IDIUse=1 WtCom= 1.00D+00 WtEn= 0.00D+00
 Coeff-Com: -0.123D-01-0.779D-02 0.458D-01-0.176D-01-0.128D+00 0.772D-01
 Coeff-Com:  0.104D+01
 Coeff:     -0.123D-01-0.779D-02 0.458D-01-0.176D-01-0.128D+00 0.772D-01
 Coeff:      0.104D+01
 Gap=     0.522 Goal=   None    Shift=    0.000
 RMSDP=4.40D-09 MaxDP=9.33D-08 DE=-1.96D-11 OVMax= 5.26D-07

 SCF Done:  E(RHF) =  -2902.87886328     A.U. after   13 cycles
             Convg  =    0.4405D-08             -V/T =  2.0001
 KE= 2.902638418311D+03 PE=-7.239536868108D+03 EE= 1.284370539115D+03
 Leave Link  502 at Sat Dec 14 15:19:41 2019, MaxMem=  268435456 cpu:     101.6
 (Enter /home/matheus/.gaussian/g09/l801.exe)
 Windowed orbitals will be sorted by symmetry type.
 ExpMin= 2.53D-02 ExpMax= 1.17D+07 ExpMxC= 1.33D+04 IAcc=3 IRadAn=         5 AccDes= 0.00D+00
 HarFok:  IExCor=  205 AccDes= 0.00D+00 IRadAn=         5 IDoV=-2
 ScaDFX=  1.000000  1.000000  1.000000  1.000000
 Largest valence mixing into a core orbital is  1.44D-04
 Largest core mixing into a valence orbital is  2.61D-05
 Range of M.O.s used for correlation:    12   197
 NBasis=   197 NAE=    27 NBE=    27 NFC=    11 NFV=     0
 NROrb=    186 NOA=    16 NOB=    16 NVA=   170 NVB=   170

 **** Warning!!: The largest alpha MO coefficient is  0.14765908D+02

 Leave Link  801 at Sat Dec 14 15:19:41 2019, MaxMem=  268435456 cpu:       0.2
 (Enter /home/matheus/.gaussian/g09/l804.exe)
 Closed-shell transformation, MDV=   268435456 ITran=4 ISComp=1.
 Semi-Direct transformation.
 ModeAB=           2 MOrb=            16 LenV=     267325694
 LASXX=     48528660 LTotXX=    48528660 LenRXX=    48528660
 LTotAB=    49298776 MaxLAS=    78372960 LenRXY=    78372960
 NonZer=    97057320 LenScr=   146313216 LnRSAI=           0
 LnScr1=           0 LExtra=           0 Total=    273214836
 MaxDsk=          -1 SrtSym=           F ITran=            4
 DoSDTr:  NPSUse=  2
 JobTyp=0 Pass  1:  I=   1 to  16.
 (rs|ai) integrals will be sorted in core.
 Complete sort for first half transformation.
 First half transformation complete.
 Begin second half transformation for I=  10.
 Begin second half transformation for I=  10.
 Complete sort for second half transformation.
 Second half transformation complete.
 SymMOI:  orbitals are not symmetric.
 Spin components of T(2) and E(2):
     alpha-alpha T2 =       0.2605790602D-01 E2=     -0.1001247651D+00
     alpha-beta  T2 =       0.1422218590D+00 E2=     -0.5571793010D+00
     beta-beta   T2 =       0.2605790602D-01 E2=     -0.1001247651D+00
 ANorm=    0.1092857571D+01
 E2 =    -0.7574288313D+00 EUMP2 =    -0.29036362921162D+04
 Leave Link  804 at Sat Dec 14 15:20:04 2019, MaxMem=  268435456 cpu:      45.6
 (Enter /home/matheus/.gaussian/g09/l913.exe)
 CIDS:  MDV=   268435456.
 Frozen-core window:  NFC=  11 NFV=   0.
 IFCWin=0 IBDFC=1 NFBD=     0     0 NFCmp=     0     0 NFFFC=     0     0
 Using DD3R+UMP44R for 1st iteration, S=T.
 Using DD4RQ for 2nd and later iterations.
 Would need an additional       431206676 words for in-memory AO integral storage.
 MP4(SDTQ)
 =========
 DD1Dir will call FoFDir   1 times, MxPair=       272
 NAB=   136 NAA=     0 NBB=     0 NumPrc=  2.
 Integrals replicated using symmetry in FoFDir.
 MinBra= 0 MaxBra= 3 Meth= 1.
 IRaf=       0 NMat= 272 IRICut=     340 DoRegI=T DoRafI=T ISym2E= 2 JSym2E=2.
 MP4(D)= -0.14974935D-01
 MP4(S)= -0.65239960D-02
 MP4(R+Q)=  0.15488860D-01
 T4(AAA)= -0.10533549D-02
 T4(AAB)= -0.14259197D-01
 Time for triples=     1337.23 seconds.
 MP4(T)=   -0.30625104D-01
 E3=       -0.11145249D-01        EUMP3=      -0.29036474374D+04
 E4(DQ)=    0.51392445D-03        UMP4(DQ)=   -0.29036469234D+04
 E4(SDQ)=  -0.60100716D-02        UMP4(SDQ)=  -0.29036534474D+04
 E4(SDTQ)= -0.36635176D-01        UMP4(SDTQ)= -0.29036840725D+04
 VARIATIONAL ENERGIES WITH THE FIRST-ORDER WAVEFUNCTION:
 E(VAR1)=  -0.29035223782D+04     E(CISD,4)=  -0.29035217393D+04
 Largest amplitude= 2.03D-02
 Leave Link  913 at Sat Dec 14 15:32:04 2019, MaxMem=  268435456 cpu:    1437.9
 (Enter /home/matheus/.gaussian/g09/l601.exe)
 Copying SCF densities to generalized density rwf, IOpCl= 0 IROHF=0.

 **********************************************************************

            Population analysis using the SCF density.

 **********************************************************************

 Orbital symmetries:
       Occupied  (A) (A) (A) (A) (A) (A) (A) (A) (A) (A) (A) (A)
                 (A) (A) (A) (A) (A) (A) (A) (A) (A) (A) (A) (A)
                 (A) (A) (A)
       Virtual   (A) (A) (A) (A) (A) (A) (A) (A) (A) (A) (A) (A)
                 (A) (A) (A) (A) (A) (A) (A) (A) (A) (A) (A) (A)
                 (A) (A) (A) (A) (A) (A) (A) (A) (A) (A) (A) (A)
                 (A) (A) (A) (A) (A) (A) (A) (A) (A) (A) (A) (A)
                 (A) (A) (A) (A) (A) (A) (A) (A) (A) (A) (A) (A)
                 (A) (A) (A) (A) (A) (A) (A) (A) (A) (A) (A) (A)
                 (A) (A) (A) (A) (A) (A) (A) (A) (A) (A) (A) (A)
                 (A) (A) (A) (A) (A) (A) (A) (A) (A) (A) (A) (A)
                 (A) (A) (A) (A) (A) (A) (A) (A) (A) (A) (A) (A)
                 (A) (A) (A) (A) (A) (A) (A) (A) (A) (A) (A) (A)
                 (A) (A) (A) (A) (A) (A) (A) (A) (A) (A) (A) (A)
                 (A) (A) (A) (A) (A) (A) (A) (A) (A) (A) (A) (A)
                 (A) (A) (A) (A) (A) (A) (A) (A) (A) (A) (A) (A)
                 (A) (A) (A) (A) (A) (A) (A) (A) (A) (A) (A) (A)
                 (A) (A)
 The electronic state is 1-A.
 Alpha  occ. eigenvalues -- -520.18234 -69.91990 -63.02648 -63.02646 -63.02642
 Alpha  occ. eigenvalues --  -20.63102 -20.62813 -10.86656  -8.34876  -8.34856
 Alpha  occ. eigenvalues --   -8.34838  -3.84257  -3.84253  -3.84230  -3.84209
 Alpha  occ. eigenvalues --   -3.84205  -1.46827  -1.21792  -1.17266  -0.74717
 Alpha  occ. eigenvalues --   -0.68206  -0.60273  -0.54835  -0.54190  -0.53620
 Alpha  occ. eigenvalues --   -0.50955  -0.48731
 Alpha virt. eigenvalues --    0.03447   0.04532   0.08768   0.09775   0.11644
 Alpha virt. eigenvalues --    0.12698   0.14420   0.15677   0.17929   0.18838
 Alpha virt. eigenvalues --    0.19087   0.21162   0.22791   0.25791   0.26773
 Alpha virt. eigenvalues --    0.27851   0.28241   0.31094   0.33541   0.34648
 Alpha virt. eigenvalues --    0.35818   0.37589   0.39430   0.41612   0.42004
 Alpha virt. eigenvalues --    0.43972   0.46614   0.51411   0.56932   0.58937
 Alpha virt. eigenvalues --    0.59758   0.65663   0.66175   0.69032   0.73376
 Alpha virt. eigenvalues --    0.76808   0.77387   0.78881   0.81330   0.82085
 Alpha virt. eigenvalues --    0.82541   0.83919   0.86203   0.87259   0.88903
 Alpha virt. eigenvalues --    0.89949   0.91651   0.93840   0.95139   0.97541
 Alpha virt. eigenvalues --    0.98386   0.99409   1.01364   1.01876   1.04710
 Alpha virt. eigenvalues --    1.05387   1.10552   1.14129   1.15516   1.16197
 Alpha virt. eigenvalues --    1.17604   1.22704   1.23609   1.30542   1.32249
 Alpha virt. eigenvalues --    1.33060   1.37234   1.45148   1.46983   1.50005
 Alpha virt. eigenvalues --    1.51959   1.57247   1.59986   1.63717   1.69377
 Alpha virt. eigenvalues --    1.79228   1.83713   1.96146   2.06794   2.09743
 Alpha virt. eigenvalues --    2.14285   2.17403   2.20117   2.26195   2.33025
 Alpha virt. eigenvalues --    2.34117   2.36739   2.38592   2.41543   2.42988
 Alpha virt. eigenvalues --    2.44512   2.46177   2.48149   2.52225   2.53025
 Alpha virt. eigenvalues --    2.55909   2.57746   2.63395   2.65274   2.67025
 Alpha virt. eigenvalues --    2.68581   2.69349   2.69744   2.74681   2.77396
 Alpha virt. eigenvalues --    2.78739   2.79497   2.82726   2.86887   2.90096
 Alpha virt. eigenvalues --    2.91902   2.93179   2.95246   3.03191   3.07775
 Alpha virt. eigenvalues --    3.13742   3.23422   3.30566   3.32046   3.83323
 Alpha virt. eigenvalues --    3.88244   4.10947   4.20275   4.26734   4.31233
 Alpha virt. eigenvalues --    4.35189   4.40870   4.42399   4.48482   4.51780
 Alpha virt. eigenvalues --    4.54121   4.76349   4.81421   4.85611   4.96151
 Alpha virt. eigenvalues --    5.17999   5.22336   5.24246   5.42430   5.43458
 Alpha virt. eigenvalues --    5.47946   5.79894   6.18343   6.37453   6.47807
 Alpha virt. eigenvalues --    6.55341   6.59465   6.65078   6.78585   6.83615
 Alpha virt. eigenvalues --    6.96319   7.16587   7.17262   7.19948   7.22374
 Alpha virt. eigenvalues --    7.25026   7.29086   7.33005   7.33832   7.38730
 Alpha virt. eigenvalues --    7.47498   7.52153   7.61346   7.84789   7.97680
 Alpha virt. eigenvalues --    8.20003   8.51001   8.53707  14.74243  15.32890
          Condensed to atoms (all electrons):
              1          2          3          4          5
     1  O    8.126719  -0.077653   0.241570  -0.008155  -0.020429
     2  O   -0.077653   8.148269   0.004378   0.239135  -0.015165
     3  H    0.241570   0.004378   0.491353  -0.000400  -0.003024
     4  H   -0.008155   0.239135  -0.000400   0.490763  -0.003877
     5  Kr  -0.020429  -0.015165  -0.003024  -0.003877  36.030134
 Mulliken atomic charges:
              1
     1  O   -0.262052
     2  O   -0.298965
     3  H    0.266123
     4  H    0.282533
     5  Kr   0.012361
 Sum of Mulliken atomic charges =   0.00000
 Mulliken charges with hydrogens summed into heavy atoms:
              1
     1  O    0.004071
     2  O   -0.016431
     5  Kr   0.012361
 Sum of Mulliken charges with hydrogens summed into heavy atoms =   0.00000
 Electronic spatial extent (au):  <R**2>=            482.6619
 Charge=              0.0000 electrons
 Dipole moment (field-independent basis, Debye):
    X=              2.1128    Y=             -0.3577    Z=              1.5225  Tot=              2.6286
 Quadrupole moment (field-independent basis, Debye-Ang):
   XX=            -36.0877   YY=            -27.8193   ZZ=            -28.8695
   XY=              1.9652   XZ=             -3.0165   YZ=             -1.9023
 Traceless Quadrupole moment (field-independent basis, Debye-Ang):
   XX=             -5.1621   YY=              3.1062   ZZ=              2.0560
   XY=              1.9652   XZ=             -3.0165   YZ=             -1.9023
 Octapole moment (field-independent basis, Debye-Ang**2):
  XXX=             37.1028  YYY=             -1.0033  ZZZ=              1.2467  XYY=              5.3024
  XXY=             -5.8430  XXZ=              5.2632  XZZ=              5.1050  YZZ=             -1.8398
  YYZ=              2.3755  XYZ=              3.7130
 Hexadecapole moment (field-independent basis, Debye-Ang**3):
 XXXX=           -455.8868 YYYY=            -62.0810 ZZZZ=            -28.8545 XXXY=             11.6959
 XXXZ=            -10.6305 YYYX=              3.7037 YYYZ=             -2.8198 ZZZX=             -2.8709
 ZZZY=             -2.0667 XXYY=            -81.5182 XXZZ=            -71.3621 YYZZ=            -15.4790
 XXYZ=             -7.3905 YYXZ=             -4.5050 ZZXY=              3.3770
 N-N= 1.496490473971D+02 E-N=-7.239536869360D+03  KE= 2.902638418311D+03
 Leave Link  601 at Sat Dec 14 15:32:04 2019, MaxMem=  268435456 cpu:       0.1
 (Enter /home/matheus/.gaussian/g09/l108.exe)
 Variable Step   Value    
 -------- ---- -----------
     1       1    5.858151
 Leave Link  108 at Sat Dec 14 15:32:04 2019, MaxMem=  268435456 cpu:       0.0
 (Enter /home/matheus/.gaussian/g09/l202.exe)
 ---------------------------------------------------------------------------------------------------
                            Z-MATRIX (ANGSTROMS AND DEGREES)
   CD    Cent   Atom    N1       Length/X        N2       Alpha/Y        N3        Beta/Z          J
 ---------------------------------------------------------------------------------------------------
      1      1  O        0   0.000000          0.000000          0.725000
      2      2  O        0   0.000000          0.000000         -0.725000
      3      3  H        0  -0.904763          0.159534          1.023510
      4      4  H        0   0.000000          0.918721         -1.023510
      5      5  Kr       0   0.000000          3.100000          0.000000
 ---------------------------------------------------------------------------------------------------
                         Z-Matrix orientation:                         
 ---------------------------------------------------------------------
 Center     Atomic      Atomic             Coordinates (Angstroms)
 Number     Number       Type             X           Y           Z
 ---------------------------------------------------------------------
      1          8           0        0.000000    0.000000    0.725000
      2          8           0        0.000000    0.000000   -0.725000
      3          1           0       -0.904763    0.159534    1.023510
      4          1           0        0.000000    0.918721   -1.023510
      5         36           0        0.000000    3.100000    0.000000
 ---------------------------------------------------------------------
                    Distance matrix (angstroms):
                    1          2          3          4          5
     1  O    0.000000
     2  O    1.450000   0.000000
     3  H    0.966000   1.975180   0.000000
     4  H    1.975180   0.966000   2.363314   0.000000
     5  Kr   3.183650   3.183650   3.242300   2.409472   0.000000
 Stoichiometry    H2KrO2
 Framework group  C1[X(H2KrO2)]
 Deg. of freedom     9
 Full point group                 C1      NOp   1
 RotChk:  IX=0 Diff= 1.12D-03
 Largest Abelian subgroup         C1      NOp   1
 Largest concise Abelian subgroup C1      NOp   1
                         Standard orientation:                         
 ---------------------------------------------------------------------
 Center     Atomic      Atomic             Coordinates (Angstroms)
 Number     Number       Type             X           Y           Z
 ---------------------------------------------------------------------
      1          8           0       -2.091715   -0.701005   -0.115197
      2          8           0       -2.080378    0.742700    0.019294
      3          1           0       -1.948815   -1.083494    0.760267
      4          1           0       -1.159466    1.031419    0.060750
      5         36           0        1.013473   -0.007819   -0.001494
 ---------------------------------------------------------------------
 Rotational constants (GHZ):     25.6202787      2.2030853      2.0410178
 Leave Link  202 at Sat Dec 14 15:32:04 2019, MaxMem=  268435456 cpu:       0.0
 (Enter /home/matheus/.gaussian/g09/l301.exe)
 Standard basis: Aug-CC-pVTZ (5D, 7F)
 Ernie: Thresh=  0.10000D-02 Tol=  0.10000D-05 Strict=F.
 Ernie:  38 primitive shells out of 205 were deleted.
 There are   197 symmetry adapted basis functions of A   symmetry.
 Integral buffers will be    131072 words long.
 Raffenetti 1 integral format.
 Two-electron integral symmetry is turned on.
   197 basis functions,   415 primitive gaussians,   229 cartesian basis functions
    27 alpha electrons       27 beta electrons
       nuclear repulsion energy       146.1552713322 Hartrees.
 IExCor=    0 DFT=F Ex=HF Corr=None ExCW=0 ScaHFX=  1.000000
 ScaDFX=  1.000000  1.000000  1.000000  1.000000 ScalE2=  1.000000  1.000000
 IRadAn=      5 IRanWt=     -1 IRanGd=            0 ICorTp=0
 NAtoms=    5 NActive=    5 NUniq=    5 SFac= 1.00D+00 NAtFMM=   60 NAOKFM=F Big=F
 Leave Link  301 at Sat Dec 14 15:32:04 2019, MaxMem=  268435456 cpu:       0.0
 (Enter /home/matheus/.gaussian/g09/l302.exe)
 NPDir=0 NMtPBC=     1 NCelOv=     1 NCel=       1 NClECP=     1 NCelD=      1
         NCelK=      1 NCelE2=     1 NClLst=     1 CellRange=     0.0.
 One-electron integrals computed using PRISM.
 NBasis=   197 RedAO= T  NBF=   197
 NBsUse=   197 1.00D-06 NBFU=   197
 Leave Link  302 at Sat Dec 14 15:32:04 2019, MaxMem=  268435456 cpu:       0.2
 (Enter /home/matheus/.gaussian/g09/l303.exe)
 DipDrv:  MaxL=1.
 Leave Link  303 at Sat Dec 14 15:32:04 2019, MaxMem=  268435456 cpu:       0.1
 (Enter /home/matheus/.gaussian/g09/l401.exe)
 Initial guess read from the read-write file.
 B after Tr=     0.000000    0.000000    0.000000
         Rot=    1.000000    0.000000    0.000000    0.000000 Ang=   0.00 deg.
 Guess basis will be translated and rotated to current coordinates.
 Initial guess orbital symmetries:
       Occupied  (A) (A) (A) (A) (A) (A) (A) (A) (A) (A) (A) (A)
                 (A) (A) (A) (A) (A) (A) (A) (A) (A) (A) (A) (A)
                 (A) (A) (A)
       Virtual   (A) (A) (A) (A) (A) (A) (A) (A) (A) (A) (A) (A)
                 (A) (A) (A) (A) (A) (A) (A) (A) (A) (A) (A) (A)
                 (A) (A) (A) (A) (A) (A) (A) (A) (A) (A) (A) (A)
                 (A) (A) (A) (A) (A) (A) (A) (A) (A) (A) (A) (A)
                 (A) (A) (A) (A) (A) (A) (A) (A) (A) (A) (A) (A)
                 (A) (A) (A) (A) (A) (A) (A) (A) (A) (A) (A) (A)
                 (A) (A) (A) (A) (A) (A) (A) (A) (A) (A) (A) (A)
                 (A) (A) (A) (A) (A) (A) (A) (A) (A) (A) (A) (A)
                 (A) (A) (A) (A) (A) (A) (A) (A) (A) (A) (A) (A)
                 (A) (A) (A) (A) (A) (A) (A) (A) (A) (A) (A) (A)
                 (A) (A) (A) (A) (A) (A) (A) (A) (A) (A) (A) (A)
                 (A) (A) (A) (A) (A) (A) (A) (A) (A) (A) (A) (A)
                 (A) (A) (A) (A) (A) (A) (A) (A) (A) (A) (A) (A)
                 (A) (A) (A) (A) (A) (A) (A) (A) (A) (A) (A) (A)
                 (A) (A)
 The electronic state of the initial guess is 1-A.
 Generating alternative initial guess.
 Harris functional with IExCor=  205 diagonalized for initial guess.
 ExpMin= 2.53D-02 ExpMax= 1.17D+07 ExpMxC= 1.33D+04 IAcc=3 IRadAn=         5 AccDes= 0.00D+00
 HarFok:  IExCor=  205 AccDes= 0.00D+00 IRadAn=         5 IDoV= 1
 ScaDFX=  1.000000  1.000000  1.000000  1.000000
 FoFCou: FMM=F IPFlag=           0 FMFlag=      100000 FMFlg1=           0
         NFxFlg=           0 DoJE=T BraDBF=F KetDBF=T FulRan=T
         Omega=  0.000000  0.000000  1.000000  0.000000  0.000000 ICntrl=     500 IOpCl=  0
         NMat0=    1 NMatS0=    1 NMatT0=    0 NMatD0=    1 NMtDS0=    0 NMtDT0=    0
         I1Cent=           4 NGrid=           0.
 Petite list used in FoFCou.
 Harris En= -2901.93337055663    
 Leave Link  401 at Sat Dec 14 15:32:05 2019, MaxMem=  268435456 cpu:       1.3
 (Enter /home/matheus/.gaussian/g09/l502.exe)
 Closed shell SCF:
 Requested convergence on RMS density matrix=1.00D-08 within 128 cycles.
 Requested convergence on MAX density matrix=1.00D-06.
 Requested convergence on             energy=1.00D-06.
 No special actions if energy rises.
 Using DIIS extrapolation, IDIIS=  1040.
 Integral symmetry usage will be decided dynamically.
 IEnd=      178489 IEndB=      178489 NGot=   268435456 MDV=   268326278
 LenX=   268326278 LenY=   268273396
 Fock matrices will be formed incrementally for  20 cycles.

 Cycle   1  Pass 0  IDiag  1:
 FoFCou: FMM=F IPFlag=           0 FMFlag=      100000 FMFlg1=           0
         NFxFlg=           0 DoJE=F BraDBF=F KetDBF=F FulRan=T
         Omega=  0.000000  0.000000  1.000000  0.000000  0.000000 ICntrl=       0 IOpCl=  0
         NMat0=    1 NMatS0=    1 NMatT0=    0 NMatD0=    1 NMtDS0=    0 NMtDT0=    0
         I1Cent=           0 NGrid=           0.
 Symmetry not used in FoFCou.
 E= -2902.88139295784    
 DIIS: error= 4.69D-04 at cycle   1 NSaved=   1.
 NSaved= 1 IEnMin= 1 EnMin= -2902.88139295784     IErMin= 1 ErrMin= 4.69D-04
 ErrMax= 4.69D-04 EMaxC= 1.00D-01 BMatC= 6.81D-05 BMatP= 6.81D-05
 IDIUse=3 WtCom= 9.95D-01 WtEn= 4.69D-03
 Coeff-Com:  0.100D+01
 Coeff-En:   0.100D+01
 Coeff:      0.100D+01
 Gap=     0.524 Goal=   None    Shift=    0.000
 RMSDP=6.73D-05 MaxDP=3.01D-03              OVMax= 2.78D-03

 Cycle   2  Pass 0  IDiag  1:
 RMSU=  4.76D-05    CP:  1.00D+00
 E= -2902.88147271715     Delta-E=       -0.000079759313 Rises=F Damp=F
 DIIS: error= 8.21D-05 at cycle   2 NSaved=   2.
 NSaved= 2 IEnMin= 2 EnMin= -2902.88147271715     IErMin= 2 ErrMin= 8.21D-05
 ErrMax= 8.21D-05 EMaxC= 1.00D-01 BMatC= 2.38D-06 BMatP= 6.81D-05
 IDIUse=1 WtCom= 1.00D+00 WtEn= 0.00D+00
 Coeff-Com: -0.728D-01 0.107D+01
 Coeff:     -0.728D-01 0.107D+01
 Gap=     0.522 Goal=   None    Shift=    0.000
 RMSDP=1.24D-05 MaxDP=4.81D-04 DE=-7.98D-05 OVMax= 6.52D-04

 Cycle   3  Pass 0  IDiag  1:
 RMSU=  5.98D-06    CP:  1.00D+00  1.13D+00
 E= -2902.88147605217     Delta-E=       -0.000003335016 Rises=F Damp=F
 DIIS: error= 3.48D-05 at cycle   3 NSaved=   3.
 NSaved= 3 IEnMin= 3 EnMin= -2902.88147605217     IErMin= 3 ErrMin= 3.48D-05
 ErrMax= 3.48D-05 EMaxC= 1.00D-01 BMatC= 3.99D-07 BMatP= 2.38D-06
 IDIUse=1 WtCom= 1.00D+00 WtEn= 0.00D+00
 Coeff-Com: -0.442D-01 0.270D+00 0.774D+00
 Coeff:     -0.442D-01 0.270D+00 0.774D+00
 Gap=     0.523 Goal=   None    Shift=    0.000
 RMSDP=2.43D-06 MaxDP=6.95D-05 DE=-3.34D-06 OVMax= 1.57D-04

 Initial convergence to 1.0D-05 achieved.  Increase integral accuracy.
 Cycle   4  Pass 1  IDiag  1:
 E= -2902.88147641364     Delta-E=       -0.000000361475 Rises=F Damp=F
 DIIS: error= 1.06D-05 at cycle   1 NSaved=   1.
 NSaved= 1 IEnMin= 1 EnMin= -2902.88147641364     IErMin= 1 ErrMin= 1.06D-05
 ErrMax= 1.06D-05 EMaxC= 1.00D-01 BMatC= 3.47D-08 BMatP= 3.47D-08
 IDIUse=1 WtCom= 1.00D+00 WtEn= 0.00D+00
 Coeff-Com:  0.100D+01
 Coeff:      0.100D+01
 Gap=     0.523 Goal=   None    Shift=    0.000
 RMSDP=2.43D-06 MaxDP=6.95D-05 DE=-3.61D-07 OVMax= 6.61D-05

 Cycle   5  Pass 1  IDiag  1:
 RMSU=  8.06D-07    CP:  1.00D+00
 E= -2902.88147646034     Delta-E=       -0.000000046694 Rises=F Damp=F
 DIIS: error= 6.61D-06 at cycle   2 NSaved=   2.
 NSaved= 2 IEnMin= 2 EnMin= -2902.88147646034     IErMin= 2 ErrMin= 6.61D-06
 ErrMax= 6.61D-06 EMaxC= 1.00D-01 BMatC= 1.28D-08 BMatP= 3.47D-08
 IDIUse=1 WtCom= 1.00D+00 WtEn= 0.00D+00
 Coeff-Com:  0.315D+00 0.685D+00
 Coeff:      0.315D+00 0.685D+00
 Gap=     0.523 Goal=   None    Shift=    0.000
 RMSDP=3.40D-07 MaxDP=1.27D-05 DE=-4.67D-08 OVMax= 3.68D-05

 Cycle   6  Pass 1  IDiag  1:
 RMSU=  2.33D-07    CP:  1.00D+00  1.07D+00
 E= -2902.88147647292     Delta-E=       -0.000000012581 Rises=F Damp=F
 DIIS: error= 2.45D-06 at cycle   3 NSaved=   3.
 NSaved= 3 IEnMin= 3 EnMin= -2902.88147647292     IErMin= 3 ErrMin= 2.45D-06
 ErrMax= 2.45D-06 EMaxC= 1.00D-01 BMatC= 2.08D-09 BMatP= 1.28D-08
 IDIUse=1 WtCom= 1.00D+00 WtEn= 0.00D+00
 Coeff-Com: -0.321D+00-0.869D-01 0.141D+01
 Coeff:     -0.321D+00-0.869D-01 0.141D+01
 Gap=     0.523 Goal=   None    Shift=    0.000
 RMSDP=4.25D-07 MaxDP=1.18D-05 DE=-1.26D-08 OVMax= 2.57D-05

 Cycle   7  Pass 1  IDiag  1:
 RMSU=  1.02D-07    CP:  1.00D+00  1.41D+00  1.38D+00
 E= -2902.88147647798     Delta-E=       -0.000000005059 Rises=F Damp=F
 DIIS: error= 4.68D-07 at cycle   4 NSaved=   4.
 NSaved= 4 IEnMin= 4 EnMin= -2902.88147647798     IErMin= 4 ErrMin= 4.68D-07
 ErrMax= 4.68D-07 EMaxC= 1.00D-01 BMatC= 9.77D-11 BMatP= 2.08D-09
 IDIUse=1 WtCom= 1.00D+00 WtEn= 0.00D+00
 Coeff-Com: -0.872D-01-0.433D-01 0.299D+00 0.832D+00
 Coeff:     -0.872D-01-0.433D-01 0.299D+00 0.832D+00
 Gap=     0.523 Goal=   None    Shift=    0.000
 RMSDP=5.82D-08 MaxDP=1.93D-06 DE=-5.06D-09 OVMax= 4.32D-06

 Cycle   8  Pass 1  IDiag  1:
 RMSU=  2.68D-08    CP:  1.00D+00  1.42D+00  1.42D+00  1.26D+00
 E= -2902.88147647814     Delta-E=       -0.000000000158 Rises=F Damp=F
 DIIS: error= 1.63D-07 at cycle   5 NSaved=   5.
 NSaved= 5 IEnMin= 5 EnMin= -2902.88147647814     IErMin= 5 ErrMin= 1.63D-07
 ErrMax= 1.63D-07 EMaxC= 1.00D-01 BMatC= 1.46D-11 BMatP= 9.77D-11
 IDIUse=1 WtCom= 1.00D+00 WtEn= 0.00D+00
 Coeff-Com:  0.634D-01 0.280D-01-0.284D+00-0.813D-01 0.127D+01
 Coeff:      0.634D-01 0.280D-01-0.284D+00-0.813D-01 0.127D+01
 Gap=     0.523 Goal=   None    Shift=    0.000
 RMSDP=3.90D-08 MaxDP=9.55D-07 DE=-1.58D-10 OVMax= 2.71D-06

 Cycle   9  Pass 1  IDiag  1:
 RMSU=  9.27D-09    CP:  1.00D+00  1.42D+00  1.42D+00  1.50D+00  1.32D+00
 E= -2902.88147647818     Delta-E=       -0.000000000044 Rises=F Damp=F
 DIIS: error= 5.28D-08 at cycle   6 NSaved=   6.
 NSaved= 6 IEnMin= 6 EnMin= -2902.88147647818     IErMin= 6 ErrMin= 5.28D-08
 ErrMax= 5.28D-08 EMaxC= 1.00D-01 BMatC= 8.80D-13 BMatP= 1.46D-11
 IDIUse=1 WtCom= 1.00D+00 WtEn= 0.00D+00
 Coeff-Com: -0.168D-02 0.183D-02 0.822D-02-0.334D-01-0.122D+00 0.115D+01
 Coeff:     -0.168D-02 0.183D-02 0.822D-02-0.334D-01-0.122D+00 0.115D+01
 Gap=     0.523 Goal=   None    Shift=    0.000
 RMSDP=7.38D-09 MaxDP=1.60D-07 DE=-4.37D-11 OVMax= 8.94D-07

 SCF Done:  E(RHF) =  -2902.88147648     A.U. after    9 cycles
             Convg  =    0.7381D-08             -V/T =  2.0001
 KE= 2.902619467083D+03 PE=-7.232544116816D+03 EE= 1.280887901923D+03
 Leave Link  502 at Sat Dec 14 15:32:42 2019, MaxMem=  268435456 cpu:      73.2
 (Enter /home/matheus/.gaussian/g09/l801.exe)
 Windowed orbitals will be sorted by symmetry type.
 ExpMin= 2.53D-02 ExpMax= 1.17D+07 ExpMxC= 1.33D+04 IAcc=3 IRadAn=         5 AccDes= 0.00D+00
 HarFok:  IExCor=  205 AccDes= 0.00D+00 IRadAn=         5 IDoV=-2
 ScaDFX=  1.000000  1.000000  1.000000  1.000000
 DSYEVD returned Info=          93 IAlg= 4 N=    46 NDim=    46 NE2=     4547561 trying DSYEV.
 Largest valence mixing into a core orbital is  1.44D-04
 Largest core mixing into a valence orbital is  2.61D-05
 Range of M.O.s used for correlation:    12   197
 NBasis=   197 NAE=    27 NBE=    27 NFC=    11 NFV=     0
 NROrb=    186 NOA=    16 NOB=    16 NVA=   170 NVB=   170

 **** Warning!!: The largest alpha MO coefficient is  0.15958968D+02

 Leave Link  801 at Sat Dec 14 15:32:42 2019, MaxMem=  268435456 cpu:       0.3
 (Enter /home/matheus/.gaussian/g09/l804.exe)
 Closed-shell transformation, MDV=   268435456 ITran=4 ISComp=1.
 Semi-Direct transformation.
 ModeAB=           2 MOrb=            16 LenV=     267326920
 LASXX=     48528660 LTotXX=    48528660 LenRXX=    48528660
 LTotAB=    49298776 MaxLAS=    78372960 LenRXY=    78372960
 NonZer=    97057320 LenScr=   146313216 LnRSAI=           0
 LnScr1=           0 LExtra=           0 Total=    273214836
 MaxDsk=          -1 SrtSym=           F ITran=            4
 DoSDTr:  NPSUse=  2
 JobTyp=0 Pass  1:  I=   1 to  16.
 (rs|ai) integrals will be sorted in core.
 Complete sort for first half transformation.
 First half transformation complete.
 Begin second half transformation for I=  10.
 Begin second half transformation for I=  10.
 Complete sort for second half transformation.
 Second half transformation complete.
 SymMOI:  orbitals are not symmetric.
 Spin components of T(2) and E(2):
     alpha-alpha T2 =       0.2598288726D-01 E2=     -0.9986156777D-01
     alpha-beta  T2 =       0.1421282292D+00 E2=     -0.5565790766D+00
     beta-beta   T2 =       0.2598288726D-01 E2=     -0.9986156777D-01
 ANorm=    0.1092746084D+01
 E2 =    -0.7563022121D+00 EUMP2 =    -0.29036377786903D+04
 Leave Link  804 at Sat Dec 14 15:33:07 2019, MaxMem=  268435456 cpu:      49.5
 (Enter /home/matheus/.gaussian/g09/l913.exe)
 CIDS:  MDV=   268435456.
 Frozen-core window:  NFC=  11 NFV=   0.
 IFCWin=0 IBDFC=1 NFBD=     0     0 NFCmp=     0     0 NFFFC=     0     0
 Using DD3R+UMP44R for 1st iteration, S=T.
 Using DD4RQ for 2nd and later iterations.
 Would need an additional       431206676 words for in-memory AO integral storage.
 MP4(SDTQ)
 =========
 DD1Dir will call FoFDir   1 times, MxPair=       272
 NAB=   136 NAA=     0 NBB=     0 NumPrc=  2.
 Integrals replicated using symmetry in FoFDir.
 MinBra= 0 MaxBra= 3 Meth= 1.
 IRaf=       0 NMat= 272 IRICut=     340 DoRegI=T DoRafI=T ISym2E= 2 JSym2E=2.
 MP4(D)= -0.14975112D-01
 MP4(S)= -0.64944991D-02
 MP4(R+Q)=  0.15413530D-01
 T4(AAA)= -0.10431328D-02
 T4(AAB)= -0.14194533D-01
 Time for triples=     1439.43 seconds.
 MP4(T)=   -0.30475332D-01
 E3=       -0.11290269D-01        EUMP3=      -0.29036490690D+04
 E4(DQ)=    0.43841791D-03        UMP4(DQ)=   -0.29036486305D+04
 E4(SDQ)=  -0.60560812D-02        UMP4(SDQ)=  -0.29036551250D+04
 E4(SDTQ)= -0.36531413D-01        UMP4(SDTQ)= -0.29036856004D+04
 VARIATIONAL ENERGIES WITH THE FIRST-ORDER WAVEFUNCTION:
 E(VAR1)=  -0.29035243006D+04     E(CISD,4)=  -0.29035237448D+04
 Largest amplitude= 2.25D-02
 Leave Link  913 at Sat Dec 14 15:45:58 2019, MaxMem=  268435456 cpu:    1539.2
 (Enter /home/matheus/.gaussian/g09/l108.exe)
 Variable Step   Value    
 -------- ---- -----------
     1       2    6.047124
 Leave Link  108 at Sat Dec 14 15:45:58 2019, MaxMem=  268435456 cpu:       0.0
 (Enter /home/matheus/.gaussian/g09/l202.exe)
 ---------------------------------------------------------------------------------------------------
                            Z-MATRIX (ANGSTROMS AND DEGREES)
   CD    Cent   Atom    N1       Length/X        N2       Alpha/Y        N3        Beta/Z          J
 ---------------------------------------------------------------------------------------------------
      1      1  O        0   0.000000          0.000000          0.725000
      2      2  O        0   0.000000          0.000000         -0.725000
      3      3  H        0  -0.904763          0.159534          1.023510
      4      4  H        0   0.000000          0.918721         -1.023510
      5      5  Kr       0   0.000000          3.200000          0.000000
 ---------------------------------------------------------------------------------------------------
                         Z-Matrix orientation:                         
 ---------------------------------------------------------------------
 Center     Atomic      Atomic             Coordinates (Angstroms)
 Number     Number       Type             X           Y           Z
 ---------------------------------------------------------------------
      1          8           0        0.000000    0.000000    0.725000
      2          8           0        0.000000    0.000000   -0.725000
      3          1           0       -0.904763    0.159534    1.023510
      4          1           0        0.000000    0.918721   -1.023510
      5         36           0        0.000000    3.200000    0.000000
 ---------------------------------------------------------------------
                    Distance matrix (angstroms):
                    1          2          3          4          5
     1  O    0.000000
     2  O    1.450000   0.000000
     3  H    0.966000   1.975180   0.000000
     4  H    1.975180   0.966000   2.363314   0.000000
     5  Kr   3.281101   3.281101   3.333257   2.500362   0.000000
 Stoichiometry    H2KrO2
 Framework group  C1[X(H2KrO2)]
 Deg. of freedom     9
 Full point group                 C1      NOp   1
 RotChk:  IX=0 Diff= 1.02D-03
 Largest Abelian subgroup         C1      NOp   1
 Largest concise Abelian subgroup C1      NOp   1
                         Standard orientation:                         
 ---------------------------------------------------------------------
 Center     Atomic      Atomic             Coordinates (Angstroms)
 Number     Number       Type             X           Y           Z
 ---------------------------------------------------------------------
      1          8           0       -2.158014   -0.701636   -0.115291
      2          8           0       -2.147457    0.742070    0.019248
      3          1           0       -2.014515   -1.084075    0.760097
      4          1           0       -1.226695    1.031322    0.060317
      5         36           0        1.046805   -0.007520   -0.001446
 ---------------------------------------------------------------------
 Rotational constants (GHZ):     25.6200954      2.0671048      1.9237734
 Leave Link  202 at Sat Dec 14 15:45:58 2019, MaxMem=  268435456 cpu:       0.0
 (Enter /home/matheus/.gaussian/g09/l301.exe)
 Standard basis: Aug-CC-pVTZ (5D, 7F)
 Ernie: Thresh=  0.10000D-02 Tol=  0.10000D-05 Strict=F.
 Ernie:  38 primitive shells out of 205 were deleted.
 There are   197 symmetry adapted basis functions of A   symmetry.
 Integral buffers will be    131072 words long.
 Raffenetti 1 integral format.
 Two-electron integral symmetry is turned on.
   197 basis functions,   415 primitive gaussians,   229 cartesian basis functions
    27 alpha electrons       27 beta electrons
       nuclear repulsion energy       142.8639406607 Hartrees.
 IExCor=    0 DFT=F Ex=HF Corr=None ExCW=0 ScaHFX=  1.000000
 ScaDFX=  1.000000  1.000000  1.000000  1.000000 ScalE2=  1.000000  1.000000
 IRadAn=      5 IRanWt=     -1 IRanGd=            0 ICorTp=0
 NAtoms=    5 NActive=    5 NUniq=    5 SFac= 1.00D+00 NAtFMM=   60 NAOKFM=F Big=F
 Leave Link  301 at Sat Dec 14 15:45:58 2019, MaxMem=  268435456 cpu:       0.0
 (Enter /home/matheus/.gaussian/g09/l302.exe)
 NPDir=0 NMtPBC=     1 NCelOv=     1 NCel=       1 NClECP=     1 NCelD=      1
         NCelK=      1 NCelE2=     1 NClLst=     1 CellRange=     0.0.
 One-electron integrals computed using PRISM.
 NBasis=   197 RedAO= T  NBF=   197
 NBsUse=   197 1.00D-06 NBFU=   197
 Leave Link  302 at Sat Dec 14 15:45:58 2019, MaxMem=  268435456 cpu:       0.2
 (Enter /home/matheus/.gaussian/g09/l303.exe)
 DipDrv:  MaxL=1.
 Leave Link  303 at Sat Dec 14 15:45:58 2019, MaxMem=  268435456 cpu:       0.1
 (Enter /home/matheus/.gaussian/g09/l401.exe)
 Initial guess read from the read-write file.
 B after Tr=     0.000000    0.000000    0.000000
         Rot=    1.000000    0.000000    0.000000    0.000000 Ang=   0.00 deg.
 Guess basis will be translated and rotated to current coordinates.
 Initial guess orbital symmetries:
       Occupied  (A) (A) (A) (A) (A) (A) (A) (A) (A) (A) (A) (A)
                 (A) (A) (A) (A) (A) (A) (A) (A) (A) (A) (A) (A)
                 (A) (A) (A)
       Virtual   (A) (A) (A) (A) (A) (A) (A) (A) (A) (A) (A) (A)
                 (A) (A) (A) (A) (A) (A) (A) (A) (A) (A) (A) (A)
                 (A) (A) (A) (A) (A) (A) (A) (A) (A) (A) (A) (A)
                 (A) (A) (A) (A) (A) (A) (A) (A) (A) (A) (A) (A)
                 (A) (A) (A) (A) (A) (A) (A) (A) (A) (A) (A) (A)
                 (A) (A) (A) (A) (A) (A) (A) (A) (A) (A) (A) (A)
                 (A) (A) (A) (A) (A) (A) (A) (A) (A) (A) (A) (A)
                 (A) (A) (A) (A) (A) (A) (A) (A) (A) (A) (A) (A)
                 (A) (A) (A) (A) (A) (A) (A) (A) (A) (A) (A) (A)
                 (A) (A) (A) (A) (A) (A) (A) (A) (A) (A) (A) (A)
                 (A) (A) (A) (A) (A) (A) (A) (A) (A) (A) (A) (A)
                 (A) (A) (A) (A) (A) (A) (A) (A) (A) (A) (A) (A)
                 (A) (A) (A) (A) (A) (A) (A) (A) (A) (A) (A) (A)
                 (A) (A) (A) (A) (A) (A) (A) (A) (A) (A) (A) (A)
                 (A) (A)
 The electronic state of the initial guess is 1-A.
 Generating alternative initial guess.
 Harris functional with IExCor=  205 diagonalized for initial guess.
 ExpMin= 2.53D-02 ExpMax= 1.17D+07 ExpMxC= 1.33D+04 IAcc=3 IRadAn=         5 AccDes= 0.00D+00
 HarFok:  IExCor=  205 AccDes= 0.00D+00 IRadAn=         5 IDoV= 1
 ScaDFX=  1.000000  1.000000  1.000000  1.000000
 FoFCou: FMM=F IPFlag=           0 FMFlag=      100000 FMFlg1=           0
         NFxFlg=           0 DoJE=T BraDBF=F KetDBF=T FulRan=T
         Omega=  0.000000  0.000000  1.000000  0.000000  0.000000 ICntrl=     500 IOpCl=  0
         NMat0=    1 NMatS0=    1 NMatT0=    0 NMatD0=    1 NMtDS0=    0 NMtDT0=    0
         I1Cent=           4 NGrid=           0.
 Petite list used in FoFCou.
 Harris En= -2901.93408610608    
 Leave Link  401 at Sat Dec 14 15:45:59 2019, MaxMem=  268435456 cpu:       1.3
 (Enter /home/matheus/.gaussian/g09/l502.exe)
 Closed shell SCF:
 Requested convergence on RMS density matrix=1.00D-08 within 128 cycles.
 Requested convergence on MAX density matrix=1.00D-06.
 Requested convergence on             energy=1.00D-06.
 No special actions if energy rises.
 Using DIIS extrapolation, IDIIS=  1040.
 Integral symmetry usage will be decided dynamically.
 IEnd=      178489 IEndB=      178489 NGot=   268435456 MDV=   268326278
 LenX=   268326278 LenY=   268273396
 Fock matrices will be formed incrementally for  20 cycles.

 Cycle   1  Pass 0  IDiag  1:
 FoFCou: FMM=F IPFlag=           0 FMFlag=      100000 FMFlg1=           0
         NFxFlg=           0 DoJE=F BraDBF=F KetDBF=F FulRan=T
         Omega=  0.000000  0.000000  1.000000  0.000000  0.000000 ICntrl=       0 IOpCl=  0
         NMat0=    1 NMatS0=    1 NMatT0=    0 NMatD0=    1 NMtDS0=    0 NMtDT0=    0
         I1Cent=           0 NGrid=           0.
 Symmetry not used in FoFCou.
 E= -2902.88327492978    
 DIIS: error= 3.87D-04 at cycle   1 NSaved=   1.
 NSaved= 1 IEnMin= 1 EnMin= -2902.88327492978     IErMin= 1 ErrMin= 3.87D-04
 ErrMax= 3.87D-04 EMaxC= 1.00D-01 BMatC= 5.08D-05 BMatP= 5.08D-05
 IDIUse=3 WtCom= 9.96D-01 WtEn= 3.87D-03
 Coeff-Com:  0.100D+01
 Coeff-En:   0.100D+01
 Coeff:      0.100D+01
 Gap=     0.524 Goal=   None    Shift=    0.000
 RMSDP=5.77D-05 MaxDP=2.09D-03              OVMax= 2.52D-03

 Cycle   2  Pass 0  IDiag  1:
 RMSU=  4.08D-05    CP:  1.00D+00
 E= -2902.88333472500     Delta-E=       -0.000059795224 Rises=F Damp=F
 DIIS: error= 6.99D-05 at cycle   2 NSaved=   2.
 NSaved= 2 IEnMin= 2 EnMin= -2902.88333472500     IErMin= 2 ErrMin= 6.99D-05
 ErrMax= 6.99D-05 EMaxC= 1.00D-01 BMatC= 1.61D-06 BMatP= 5.08D-05
 IDIUse=1 WtCom= 1.00D+00 WtEn= 0.00D+00
 Coeff-Com: -0.797D-01 0.108D+01
 Coeff:     -0.797D-01 0.108D+01
 Gap=     0.523 Goal=   None    Shift=    0.000
 RMSDP=1.06D-05 MaxDP=3.99D-04 DE=-5.98D-05 OVMax= 5.47D-04

 Cycle   3  Pass 0  IDiag  1:
 RMSU=  4.97D-06    CP:  1.00D+00  1.14D+00
 E= -2902.88333712540     Delta-E=       -0.000002400401 Rises=F Damp=F
 DIIS: error= 2.77D-05 at cycle   3 NSaved=   3.
 NSaved= 3 IEnMin= 3 EnMin= -2902.88333712540     IErMin= 3 ErrMin= 2.77D-05
 ErrMax= 2.77D-05 EMaxC= 1.00D-01 BMatC= 2.42D-07 BMatP= 1.61D-06
 IDIUse=1 WtCom= 1.00D+00 WtEn= 0.00D+00
 Coeff-Com: -0.409D-01 0.255D+00 0.786D+00
 Coeff:     -0.409D-01 0.255D+00 0.786D+00
 Gap=     0.523 Goal=   None    Shift=    0.000
 RMSDP=2.04D-06 MaxDP=6.51D-05 DE=-2.40D-06 OVMax= 1.32D-04

 Initial convergence to 1.0D-05 achieved.  Increase integral accuracy.
 Cycle   4  Pass 1  IDiag  1:
 E= -2902.88333735611     Delta-E=       -0.000000230705 Rises=F Damp=F
 DIIS: error= 8.60D-06 at cycle   1 NSaved=   1.
 NSaved= 1 IEnMin= 1 EnMin= -2902.88333735611     IErMin= 1 ErrMin= 8.60D-06
 ErrMax= 8.60D-06 EMaxC= 1.00D-01 BMatC= 2.44D-08 BMatP= 2.44D-08
 IDIUse=1 WtCom= 1.00D+00 WtEn= 0.00D+00
 Coeff-Com:  0.100D+01
 Coeff:      0.100D+01
 Gap=     0.523 Goal=   None    Shift=    0.000
 RMSDP=2.04D-06 MaxDP=6.51D-05 DE=-2.31D-07 OVMax= 5.29D-05

 Cycle   5  Pass 1  IDiag  1:
 RMSU=  7.00D-07    CP:  1.00D+00
 E= -2902.88333738892     Delta-E=       -0.000000032815 Rises=F Damp=F
 DIIS: error= 6.28D-06 at cycle   2 NSaved=   2.
 NSaved= 2 IEnMin= 2 EnMin= -2902.88333738892     IErMin= 2 ErrMin= 6.28D-06
 ErrMax= 6.28D-06 EMaxC= 1.00D-01 BMatC= 9.05D-09 BMatP= 2.44D-08
 IDIUse=1 WtCom= 1.00D+00 WtEn= 0.00D+00
 Coeff-Com:  0.317D+00 0.683D+00
 Coeff:      0.317D+00 0.683D+00
 Gap=     0.523 Goal=   None    Shift=    0.000
 RMSDP=2.87D-07 MaxDP=1.05D-05 DE=-3.28D-08 OVMax= 3.02D-05

 Cycle   6  Pass 1  IDiag  1:
 RMSU=  1.95D-07    CP:  1.00D+00  1.08D+00
 E= -2902.88333739775     Delta-E=       -0.000000008824 Rises=F Damp=F
 DIIS: error= 2.12D-06 at cycle   3 NSaved=   3.
 NSaved= 3 IEnMin= 3 EnMin= -2902.88333739775     IErMin= 3 ErrMin= 2.12D-06
 ErrMax= 2.12D-06 EMaxC= 1.00D-01 BMatC= 1.43D-09 BMatP= 9.05D-09
 IDIUse=1 WtCom= 1.00D+00 WtEn= 0.00D+00
 Coeff-Com: -0.318D+00-0.933D-01 0.141D+01
 Coeff:     -0.318D+00-0.933D-01 0.141D+01
 Gap=     0.523 Goal=   None    Shift=    0.000
 RMSDP=3.58D-07 MaxDP=1.10D-05 DE=-8.82D-09 OVMax= 2.15D-05

 Cycle   7  Pass 1  IDiag  1:
 RMSU=  8.72D-08    CP:  1.00D+00  1.40D+00  1.37D+00
 E= -2902.88333740129     Delta-E=       -0.000000003539 Rises=F Damp=F
 DIIS: error= 4.69D-07 at cycle   4 NSaved=   4.
 NSaved= 4 IEnMin= 4 EnMin= -2902.88333740129     IErMin= 4 ErrMin= 4.69D-07
 ErrMax= 4.69D-07 EMaxC= 1.00D-01 BMatC= 7.32D-11 BMatP= 1.43D-09
 IDIUse=1 WtCom= 1.00D+00 WtEn= 0.00D+00
 Coeff-Com: -0.921D-01-0.479D-01 0.323D+00 0.817D+00
 Coeff:     -0.921D-01-0.479D-01 0.323D+00 0.817D+00
 Gap=     0.523 Goal=   None    Shift=    0.000
 RMSDP=4.88D-08 MaxDP=1.67D-06 DE=-3.54D-09 OVMax= 3.53D-06

 Cycle   8  Pass 1  IDiag  1:
 RMSU=  2.31D-08    CP:  1.00D+00  1.42D+00  1.40D+00  1.25D+00
 E= -2902.88333740138     Delta-E=       -0.000000000088 Rises=F Damp=F
 DIIS: error= 1.59D-07 at cycle   5 NSaved=   5.
 NSaved= 5 IEnMin= 5 EnMin= -2902.88333740138     IErMin= 5 ErrMin= 1.59D-07
 ErrMax= 1.59D-07 EMaxC= 1.00D-01 BMatC= 1.05D-11 BMatP= 7.32D-11
 IDIUse=1 WtCom= 1.00D+00 WtEn= 0.00D+00
 Coeff-Com:  0.679D-01 0.319D-01-0.303D+00-0.106D+00 0.131D+01
 Coeff:      0.679D-01 0.319D-01-0.303D+00-0.106D+00 0.131D+01
 Gap=     0.523 Goal=   None    Shift=    0.000
 RMSDP=3.46D-08 MaxDP=9.14D-07 DE=-8.78D-11 OVMax= 2.57D-06

 Cycle   9  Pass 1  IDiag  1:
 RMSU=  7.95D-09    CP:  1.00D+00  1.41D+00  1.40D+00  1.50D+00  1.34D+00
 E= -2902.88333740142     Delta-E=       -0.000000000044 Rises=F Damp=F
 DIIS: error= 4.71D-08 at cycle   6 NSaved=   6.
 NSaved= 6 IEnMin= 6 EnMin= -2902.88333740142     IErMin= 6 ErrMin= 4.71D-08
 ErrMax= 4.71D-08 EMaxC= 1.00D-01 BMatC= 6.16D-13 BMatP= 1.05D-11
 IDIUse=1 WtCom= 1.00D+00 WtEn= 0.00D+00
 Coeff-Com: -0.117D-01-0.280D-02 0.521D-01-0.102D-01-0.310D+00 0.128D+01
 Coeff:     -0.117D-01-0.280D-02 0.521D-01-0.102D-01-0.310D+00 0.128D+01
 Gap=     0.523 Goal=   None    Shift=    0.000
 RMSDP=7.08D-09 MaxDP=1.35D-07 DE=-4.37D-11 OVMax= 9.24D-07

 SCF Done:  E(RHF) =  -2902.88333740     A.U. after    9 cycles
             Convg  =    0.7076D-08             -V/T =  2.0001
 KE= 2.902605452013D+03 PE=-7.225962499040D+03 EE= 1.277609768965D+03
 Leave Link  502 at Sat Dec 14 15:46:33 2019, MaxMem=  268435456 cpu:      68.6
 (Enter /home/matheus/.gaussian/g09/l801.exe)
 Windowed orbitals will be sorted by symmetry type.
 ExpMin= 2.53D-02 ExpMax= 1.17D+07 ExpMxC= 1.33D+04 IAcc=3 IRadAn=         5 AccDes= 0.00D+00
 HarFok:  IExCor=  205 AccDes= 0.00D+00 IRadAn=         5 IDoV=-2
 ScaDFX=  1.000000  1.000000  1.000000  1.000000
 DSYEVD returned Info=          93 IAlg= 4 N=    46 NDim=    46 NE2=     4547561 trying DSYEV.
 DSYEVD returned Info=          89 IAlg= 4 N=    59 NDim=    59 NE2=     4547561 trying DSYEV.
 Largest valence mixing into a core orbital is  1.45D-04
 Largest core mixing into a valence orbital is  2.62D-05
 Range of M.O.s used for correlation:    12   197
 NBasis=   197 NAE=    27 NBE=    27 NFC=    11 NFV=     0
 NROrb=    186 NOA=    16 NOB=    16 NVA=   170 NVB=   170

 **** Warning!!: The largest alpha MO coefficient is  0.16073242D+02

 Leave Link  801 at Sat Dec 14 15:46:33 2019, MaxMem=  268435456 cpu:       0.2
 (Enter /home/matheus/.gaussian/g09/l804.exe)
 Closed-shell transformation, MDV=   268435456 ITran=4 ISComp=1.
 Semi-Direct transformation.
 ModeAB=           2 MOrb=            16 LenV=     267327930
 LASXX=     48528660 LTotXX=    48528660 LenRXX=    48528660
 LTotAB=    49298776 MaxLAS=    78372960 LenRXY=    78372960
 NonZer=    97057320 LenScr=   146313216 LnRSAI=           0
 LnScr1=           0 LExtra=           0 Total=    273214836
 MaxDsk=          -1 SrtSym=           F ITran=            4
 DoSDTr:  NPSUse=  2
 JobTyp=0 Pass  1:  I=   1 to  16.
 (rs|ai) integrals will be sorted in core.
 Complete sort for first half transformation.
 First half transformation complete.
 Begin second half transformation for I=  10.
 Begin second half transformation for I=  10.
 Complete sort for second half transformation.
 Second half transformation complete.
 SymMOI:  orbitals are not symmetric.
 Spin components of T(2) and E(2):
     alpha-alpha T2 =       0.2591854301D-01 E2=     -0.9963936954D-01
     alpha-beta  T2 =       0.1420436048D+00 E2=     -0.5560653002D+00
     beta-beta   T2 =       0.2591854301D-01 E2=     -0.9963936954D-01
 ANorm=    0.1092648475D+01
 E2 =    -0.7553440393D+00 EUMP2 =    -0.29036386814407D+04
 Leave Link  804 at Sat Dec 14 15:46:58 2019, MaxMem=  268435456 cpu:      48.5
 (Enter /home/matheus/.gaussian/g09/l913.exe)
 CIDS:  MDV=   268435456.
 Frozen-core window:  NFC=  11 NFV=   0.
 IFCWin=0 IBDFC=1 NFBD=     0     0 NFCmp=     0     0 NFFFC=     0     0
 Using DD3R+UMP44R for 1st iteration, S=T.
 Using DD4RQ for 2nd and later iterations.
 Would need an additional       431206676 words for in-memory AO integral storage.
 MP4(SDTQ)
 =========
 DD1Dir will call FoFDir   1 times, MxPair=       272
 NAB=   136 NAA=     0 NBB=     0 NumPrc=  2.
 Integrals replicated using symmetry in FoFDir.
 MinBra= 0 MaxBra= 3 Meth= 1.
 IRaf=       0 NMat= 272 IRICut=     340 DoRegI=T DoRafI=T ISym2E= 2 JSym2E=2.
 MP4(D)= -0.14975723D-01
 MP4(S)= -0.64689945D-02
 MP4(R+Q)=  0.15348801D-01
 T4(AAA)= -0.10344397D-02
 T4(AAB)= -0.14139249D-01
 Time for triples=     1270.79 seconds.
 MP4(T)=   -0.30347378D-01
 E3=       -0.11404795D-01        EUMP3=      -0.29036500862D+04
 E4(DQ)=    0.37307831D-03        UMP4(DQ)=   -0.29036497132D+04
 E4(SDQ)=  -0.60959161D-02        UMP4(SDQ)=  -0.29036561822D+04
 E4(SDTQ)= -0.36443294D-01        UMP4(SDTQ)= -0.29036865295D+04
 VARIATIONAL ENERGIES WITH THE FIRST-ORDER WAVEFUNCTION:
 E(VAR1)=  -0.29035255698D+04     E(CISD,4)=  -0.29035250843D+04
 Largest amplitude= 2.54D-02
 Leave Link  913 at Sat Dec 14 15:58:24 2019, MaxMem=  268435456 cpu:    1366.5
 (Enter /home/matheus/.gaussian/g09/l108.exe)
 Variable Step   Value    
 -------- ---- -----------
     1       3    6.236096
 Leave Link  108 at Sat Dec 14 15:58:24 2019, MaxMem=  268435456 cpu:       0.0
 (Enter /home/matheus/.gaussian/g09/l202.exe)
 ---------------------------------------------------------------------------------------------------
                            Z-MATRIX (ANGSTROMS AND DEGREES)
   CD    Cent   Atom    N1       Length/X        N2       Alpha/Y        N3        Beta/Z          J
 ---------------------------------------------------------------------------------------------------
      1      1  O        0   0.000000          0.000000          0.725000
      2      2  O        0   0.000000          0.000000         -0.725000
      3      3  H        0  -0.904763          0.159534          1.023510
      4      4  H        0   0.000000          0.918721         -1.023510
      5      5  Kr       0   0.000000          3.300000          0.000000
 ---------------------------------------------------------------------------------------------------
                         Z-Matrix orientation:                         
 ---------------------------------------------------------------------
 Center     Atomic      Atomic             Coordinates (Angstroms)
 Number     Number       Type             X           Y           Z
 ---------------------------------------------------------------------
      1          8           0        0.000000    0.000000    0.725000
      2          8           0        0.000000    0.000000   -0.725000
      3          1           0       -0.904763    0.159534    1.023510
      4          1           0        0.000000    0.918721   -1.023510
      5         36           0        0.000000    3.300000    0.000000
 ---------------------------------------------------------------------
                    Distance matrix (angstroms):
                    1          2          3          4          5
     1  O    0.000000
     2  O    1.450000   0.000000
     3  H    0.966000   1.975180   0.000000
     4  H    1.975180   0.966000   2.363314   0.000000
     5  Kr   3.378702   3.378702   3.424718   2.591923   0.000000
 Stoichiometry    H2KrO2
 Framework group  C1[X(H2KrO2)]
 Deg. of freedom     9
 Full point group                 C1      NOp   1
 RotChk:  IX=0 Diff= 9.39D-04
 Largest Abelian subgroup         C1      NOp   1
 Largest concise Abelian subgroup C1      NOp   1
                         Standard orientation:                         
 ---------------------------------------------------------------------
 Center     Atomic      Atomic             Coordinates (Angstroms)
 Number     Number       Type             X           Y           Z
 ---------------------------------------------------------------------
      1          8           0       -2.224352   -0.702218   -0.115379
      2          8           0       -2.214495    0.741489    0.019205
      3          1           0       -2.080296   -1.084611    0.759938
      4          1           0       -1.293867    1.031221    0.059909
      5         36           0        1.080137   -0.007244   -0.001402
 ---------------------------------------------------------------------
 Rotational constants (GHZ):     25.6199337      1.9433112      1.8161032
 Leave Link  202 at Sat Dec 14 15:58:24 2019, MaxMem=  268435456 cpu:       0.0
 (Enter /home/matheus/.gaussian/g09/l301.exe)
 Standard basis: Aug-CC-pVTZ (5D, 7F)
 Ernie: Thresh=  0.10000D-02 Tol=  0.10000D-05 Strict=F.
 Ernie:  38 primitive shells out of 205 were deleted.
 There are   197 symmetry adapted basis functions of A   symmetry.
 Integral buffers will be    131072 words long.
 Raffenetti 1 integral format.
 Two-electron integral symmetry is turned on.
   197 basis functions,   415 primitive gaussians,   229 cartesian basis functions
    27 alpha electrons       27 beta electrons
       nuclear repulsion energy       139.7586326220 Hartrees.
 IExCor=    0 DFT=F Ex=HF Corr=None ExCW=0 ScaHFX=  1.000000
 ScaDFX=  1.000000  1.000000  1.000000  1.000000 ScalE2=  1.000000  1.000000
 IRadAn=      5 IRanWt=     -1 IRanGd=            0 ICorTp=0
 NAtoms=    5 NActive=    5 NUniq=    5 SFac= 1.00D+00 NAtFMM=   60 NAOKFM=F Big=F
 Leave Link  301 at Sat Dec 14 15:58:24 2019, MaxMem=  268435456 cpu:       0.0
 (Enter /home/matheus/.gaussian/g09/l302.exe)
 NPDir=0 NMtPBC=     1 NCelOv=     1 NCel=       1 NClECP=     1 NCelD=      1
         NCelK=      1 NCelE2=     1 NClLst=     1 CellRange=     0.0.
 One-electron integrals computed using PRISM.
 NBasis=   197 RedAO= T  NBF=   197
 NBsUse=   197 1.00D-06 NBFU=   197
 Leave Link  302 at Sat Dec 14 15:58:25 2019, MaxMem=  268435456 cpu:       0.2
 (Enter /home/matheus/.gaussian/g09/l303.exe)
 DipDrv:  MaxL=1.
 Leave Link  303 at Sat Dec 14 15:58:25 2019, MaxMem=  268435456 cpu:       0.1
 (Enter /home/matheus/.gaussian/g09/l401.exe)
 Initial guess read from the read-write file.
 B after Tr=     0.000000    0.000000    0.000000
         Rot=    1.000000    0.000000    0.000000    0.000000 Ang=   0.00 deg.
 Guess basis will be translated and rotated to current coordinates.
 Initial guess orbital symmetries:
       Occupied  (A) (A) (A) (A) (A) (A) (A) (A) (A) (A) (A) (A)
                 (A) (A) (A) (A) (A) (A) (A) (A) (A) (A) (A) (A)
                 (A) (A) (A)
       Virtual   (A) (A) (A) (A) (A) (A) (A) (A) (A) (A) (A) (A)
                 (A) (A) (A) (A) (A) (A) (A) (A) (A) (A) (A) (A)
                 (A) (A) (A) (A) (A) (A) (A) (A) (A) (A) (A) (A)
                 (A) (A) (A) (A) (A) (A) (A) (A) (A) (A) (A) (A)
                 (A) (A) (A) (A) (A) (A) (A) (A) (A) (A) (A) (A)
                 (A) (A) (A) (A) (A) (A) (A) (A) (A) (A) (A) (A)
                 (A) (A) (A) (A) (A) (A) (A) (A) (A) (A) (A) (A)
                 (A) (A) (A) (A) (A) (A) (A) (A) (A) (A) (A) (A)
                 (A) (A) (A) (A) (A) (A) (A) (A) (A) (A) (A) (A)
                 (A) (A) (A) (A) (A) (A) (A) (A) (A) (A) (A) (A)
                 (A) (A) (A) (A) (A) (A) (A) (A) (A) (A) (A) (A)
                 (A) (A) (A) (A) (A) (A) (A) (A) (A) (A) (A) (A)
                 (A) (A) (A) (A) (A) (A) (A) (A) (A) (A) (A) (A)
                 (A) (A) (A) (A) (A) (A) (A) (A) (A) (A) (A) (A)
                 (A) (A)
 The electronic state of the initial guess is 1-A.
 Generating alternative initial guess.
 Harris functional with IExCor=  205 diagonalized for initial guess.
 ExpMin= 2.53D-02 ExpMax= 1.17D+07 ExpMxC= 1.33D+04 IAcc=3 IRadAn=         5 AccDes= 0.00D+00
 HarFok:  IExCor=  205 AccDes= 0.00D+00 IRadAn=         5 IDoV= 1
 ScaDFX=  1.000000  1.000000  1.000000  1.000000
 FoFCou: FMM=F IPFlag=           0 FMFlag=      100000 FMFlg1=           0
         NFxFlg=           0 DoJE=T BraDBF=F KetDBF=T FulRan=T
         Omega=  0.000000  0.000000  1.000000  0.000000  0.000000 ICntrl=     500 IOpCl=  0
         NMat0=    1 NMatS0=    1 NMatT0=    0 NMatD0=    1 NMtDS0=    0 NMtDT0=    0
         I1Cent=           4 NGrid=           0.
 Petite list used in FoFCou.
 Harris En= -2901.93450242119    
 Leave Link  401 at Sat Dec 14 15:58:25 2019, MaxMem=  268435456 cpu:       1.2
 (Enter /home/matheus/.gaussian/g09/l502.exe)
 Closed shell SCF:
 Requested convergence on RMS density matrix=1.00D-08 within 128 cycles.
 Requested convergence on MAX density matrix=1.00D-06.
 Requested convergence on             energy=1.00D-06.
 No special actions if energy rises.
 Using DIIS extrapolation, IDIIS=  1040.
 Integral symmetry usage will be decided dynamically.
 IEnd=      178489 IEndB=      178489 NGot=   268435456 MDV=   268326278
 LenX=   268326278 LenY=   268273396
 Fock matrices will be formed incrementally for  20 cycles.

 Cycle   1  Pass 0  IDiag  1:
 FoFCou: FMM=F IPFlag=           0 FMFlag=      100000 FMFlg1=           0
         NFxFlg=           0 DoJE=F BraDBF=F KetDBF=F FulRan=T
         Omega=  0.000000  0.000000  1.000000  0.000000  0.000000 ICntrl=       0 IOpCl=  0
         NMat0=    1 NMatS0=    1 NMatT0=    0 NMatD0=    1 NMtDS0=    0 NMtDT0=    0
         I1Cent=           0 NGrid=           0.
 Symmetry not used in FoFCou.
 E= -2902.88460884000    
 DIIS: error= 3.32D-04 at cycle   1 NSaved=   1.
 NSaved= 1 IEnMin= 1 EnMin= -2902.88460884000     IErMin= 1 ErrMin= 3.32D-04
 ErrMax= 3.32D-04 EMaxC= 1.00D-01 BMatC= 3.81D-05 BMatP= 3.81D-05
 IDIUse=3 WtCom= 9.97D-01 WtEn= 3.32D-03
 Coeff-Com:  0.100D+01
 Coeff-En:   0.100D+01
 Coeff:      0.100D+01
 Gap=     0.525 Goal=   None    Shift=    0.000
 RMSDP=5.15D-05 MaxDP=1.58D-03              OVMax= 2.31D-03

 Cycle   2  Pass 0  IDiag  1:
 RMSU=  3.64D-05    CP:  1.00D+00
 E= -2902.88465385096     Delta-E=       -0.000045010965 Rises=F Damp=F
 DIIS: error= 5.91D-05 at cycle   2 NSaved=   2.
 NSaved= 2 IEnMin= 2 EnMin= -2902.88465385096     IErMin= 2 ErrMin= 5.91D-05
 ErrMax= 5.91D-05 EMaxC= 1.00D-01 BMatC= 1.10D-06 BMatP= 3.81D-05
 IDIUse=1 WtCom= 1.00D+00 WtEn= 0.00D+00
 Coeff-Com: -0.849D-01 0.108D+01
 Coeff:     -0.849D-01 0.108D+01
 Gap=     0.523 Goal=   None    Shift=    0.000
 RMSDP=9.28D-06 MaxDP=3.27D-04 DE=-4.50D-05 OVMax= 5.04D-04

 Initial convergence to 1.0D-05 achieved.  Increase integral accuracy.
 Cycle   3  Pass 1  IDiag  1:
 E= -2902.88465559437     Delta-E=       -0.000001743408 Rises=F Damp=F
 DIIS: error= 2.15D-05 at cycle   1 NSaved=   1.
 NSaved= 1 IEnMin= 1 EnMin= -2902.88465559437     IErMin= 1 ErrMin= 2.15D-05
 ErrMax= 2.15D-05 EMaxC= 1.00D-01 BMatC= 1.45D-07 BMatP= 1.45D-07
 IDIUse=1 WtCom= 1.00D+00 WtEn= 0.00D+00
 Coeff-Com:  0.100D+01
 Coeff:      0.100D+01
 Gap=     0.524 Goal=   None    Shift=    0.000
 RMSDP=9.28D-06 MaxDP=3.27D-04 DE=-1.74D-06 OVMax= 1.38D-04

 Cycle   4  Pass 1  IDiag  1:
 RMSU=  1.47D-06    CP:  1.00D+00
 E= -2902.88465572865     Delta-E=       -0.000000134278 Rises=F Damp=F
 DIIS: error= 9.67D-06 at cycle   2 NSaved=   2.
 NSaved= 2 IEnMin= 2 EnMin= -2902.88465572865     IErMin= 2 ErrMin= 9.67D-06
 ErrMax= 9.67D-06 EMaxC= 1.00D-01 BMatC= 4.98D-08 BMatP= 1.45D-07
 IDIUse=1 WtCom= 1.00D+00 WtEn= 0.00D+00
 Coeff-Com:  0.342D+00 0.658D+00
 Coeff:      0.342D+00 0.658D+00
 Gap=     0.524 Goal=   None    Shift=    0.000
 RMSDP=7.01D-07 MaxDP=3.66D-05 DE=-1.34D-07 OVMax= 3.96D-05

 Cycle   5  Pass 1  IDiag  1:
 RMSU=  4.95D-07    CP:  1.00D+00  9.86D-01
 E= -2902.88465576573     Delta-E=       -0.000000037084 Rises=F Damp=F
 DIIS: error= 3.40D-06 at cycle   3 NSaved=   3.
 NSaved= 3 IEnMin= 3 EnMin= -2902.88465576573     IErMin= 3 ErrMin= 3.40D-06
 ErrMax= 3.40D-06 EMaxC= 1.00D-01 BMatC= 3.20D-09 BMatP= 4.98D-08
 IDIUse=1 WtCom= 1.00D+00 WtEn= 0.00D+00
 Coeff-Com: -0.103D+00-0.380D-01 0.114D+01
 Coeff:     -0.103D+00-0.380D-01 0.114D+01
 Gap=     0.524 Goal=   None    Shift=    0.000
 RMSDP=4.32D-07 MaxDP=1.60D-05 DE=-3.71D-08 OVMax= 2.81D-05

 Cycle   6  Pass 1  IDiag  1:
 RMSU=  1.44D-07    CP:  1.00D+00  1.13D+00  1.35D+00
 E= -2902.88465577306     Delta-E=       -0.000000007328 Rises=F Damp=F
 DIIS: error= 1.43D-06 at cycle   4 NSaved=   4.
 NSaved= 4 IEnMin= 4 EnMin= -2902.88465577306     IErMin= 4 ErrMin= 1.43D-06
 ErrMax= 1.43D-06 EMaxC= 1.00D-01 BMatC= 7.72D-10 BMatP= 3.20D-09
 IDIUse=1 WtCom= 1.00D+00 WtEn= 0.00D+00
 Coeff-Com: -0.903D-01-0.137D+00 0.324D+00 0.902D+00
 Coeff:     -0.903D-01-0.137D+00 0.324D+00 0.902D+00
 Gap=     0.524 Goal=   None    Shift=    0.000
 RMSDP=1.80D-07 MaxDP=5.12D-06 DE=-7.33D-09 OVMax= 1.16D-05

 Cycle   7  Pass 1  IDiag  1:
 RMSU=  6.37D-08    CP:  1.00D+00  1.16D+00  1.53D+00  1.16D+00
 E= -2902.88465577431     Delta-E=       -0.000000001246 Rises=F Damp=F
 DIIS: error= 3.93D-07 at cycle   5 NSaved=   5.
 NSaved= 5 IEnMin= 5 EnMin= -2902.88465577431     IErMin= 5 ErrMin= 3.93D-07
 ErrMax= 3.93D-07 EMaxC= 1.00D-01 BMatC= 3.95D-11 BMatP= 7.72D-10
 IDIUse=1 WtCom= 1.00D+00 WtEn= 0.00D+00
 Coeff-Com:  0.854D-02 0.143D-02-0.769D-01-0.339D-01 0.110D+01
 Coeff:      0.854D-02 0.143D-02-0.769D-01-0.339D-01 0.110D+01
 Gap=     0.524 Goal=   None    Shift=    0.000
 RMSDP=5.40D-08 MaxDP=1.62D-06 DE=-1.25D-09 OVMax= 3.82D-06

 Cycle   8  Pass 1  IDiag  1:
 RMSU=  1.75D-08    CP:  1.00D+00  1.16D+00  1.55D+00  1.31D+00  1.36D+00
 E= -2902.88465577441     Delta-E=       -0.000000000103 Rises=F Damp=F
 DIIS: error= 1.31D-07 at cycle   6 NSaved=   6.
 NSaved= 6 IEnMin= 6 EnMin= -2902.88465577441     IErMin= 6 ErrMin= 1.31D-07
 ErrMax= 1.31D-07 EMaxC= 1.00D-01 BMatC= 6.60D-12 BMatP= 3.95D-11
 IDIUse=1 WtCom= 1.00D+00 WtEn= 0.00D+00
 Coeff-Com:  0.140D-01 0.190D-01-0.494D-01-0.151D+00 0.116D+00 0.105D+01
 Coeff:      0.140D-01 0.190D-01-0.494D-01-0.151D+00 0.116D+00 0.105D+01
 Gap=     0.524 Goal=   None    Shift=    0.000
 RMSDP=2.26D-08 MaxDP=5.32D-07 DE=-1.03D-10 OVMax= 1.92D-06

 Cycle   9  Pass 1  IDiag  1:
 RMSU=  6.35D-09    CP:  1.00D+00  1.15D+00  1.55D+00  1.36D+00  1.53D+00
                    CP:  1.27D+00
 E= -2902.88465577442     Delta-E=       -0.000000000011 Rises=F Damp=F
 DIIS: error= 4.18D-08 at cycle   7 NSaved=   7.
 NSaved= 7 IEnMin= 7 EnMin= -2902.88465577442     IErMin= 7 ErrMin= 4.18D-08
 ErrMax= 4.18D-08 EMaxC= 1.00D-01 BMatC= 5.51D-13 BMatP= 6.60D-12
 IDIUse=1 WtCom= 1.00D+00 WtEn= 0.00D+00
 Coeff-Com: -0.808D-02-0.111D-01 0.347D-01 0.759D-01-0.128D+00-0.555D+00
 Coeff-Com:  0.159D+01
 Coeff:     -0.808D-02-0.111D-01 0.347D-01 0.759D-01-0.128D+00-0.555D+00
 Coeff:      0.159D+01
 Gap=     0.524 Goal=   None    Shift=    0.000
 RMSDP=8.09D-09 MaxDP=1.45D-07 DE=-1.09D-11 OVMax= 1.09D-06

[...]
      3          1           0       -0.904763    0.159534    1.023510
      4          1           0        0.000000    0.918721   -1.023510
      5         36           0        0.000000    5.000000    0.000000
 ---------------------------------------------------------------------
                    Distance matrix (angstroms):
                    1          2          3          4          5
     1  O    0.000000
     2  O    1.450000   0.000000
     3  H    0.966000   1.975180   0.000000
     4  H    1.975180   0.966000   2.363314   0.000000
     5  Kr   5.052289   5.052289   5.029541   4.207661   0.000000
 Stoichiometry    H2KrO2
 Framework group  C1[X(H2KrO2)]
 Deg. of freedom     9
 Full point group                 C1      NOp   1
 RotChk:  IX=0 Diff= 3.29D-04
 Largest Abelian subgroup         C1      NOp   1
 Largest concise Abelian subgroup C1      NOp   1
                         Standard orientation:                         
 ---------------------------------------------------------------------
 Center     Atomic      Atomic             Coordinates (Angstroms)
 Number     Number       Type             X           Y           Z
 ---------------------------------------------------------------------
      1          8           0       -3.354972   -0.707931   -0.116326
      2          8           0       -3.350947    0.735757    0.018764
      3          1           0       -3.205209   -1.089993    0.758176
      4          1           0       -2.431446    1.029584    0.055369
      5         36           0        1.646778   -0.004506   -0.000918
 ---------------------------------------------------------------------
 Rotational constants (GHZ):     25.6187626      0.8438806      0.8189668
 Leave Link  202 at Sat Dec 14 19:23:07 2019, MaxMem=  268435456 cpu:       0.0
 (Enter /home/matheus/.gaussian/g09/l301.exe)
 Standard basis: Aug-CC-pVTZ (5D, 7F)
 Ernie: Thresh=  0.10000D-02 Tol=  0.10000D-05 Strict=F.
 Ernie:  38 primitive shells out of 205 were deleted.
 There are   197 symmetry adapted basis functions of A   symmetry.
 Integral buffers will be    131072 words long.
 Raffenetti 1 integral format.
 Two-electron integral symmetry is turned on.
   197 basis functions,   415 primitive gaussians,   229 cartesian basis functions
    27 alpha electrons       27 beta electrons
       nuclear repulsion energy       105.2776892707 Hartrees.
 IExCor=    0 DFT=F Ex=HF Corr=None ExCW=0 ScaHFX=  1.000000
 ScaDFX=  1.000000  1.000000  1.000000  1.000000 ScalE2=  1.000000  1.000000
 IRadAn=      5 IRanWt=     -1 IRanGd=            0 ICorTp=0
 NAtoms=    5 NActive=    5 NUniq=    5 SFac= 1.00D+00 NAtFMM=   60 NAOKFM=F Big=F
 Leave Link  301 at Sat Dec 14 19:23:07 2019, MaxMem=  268435456 cpu:       0.0
 (Enter /home/matheus/.gaussian/g09/l302.exe)
 NPDir=0 NMtPBC=     1 NCelOv=     1 NCel=       1 NClECP=     1 NCelD=      1
         NCelK=      1 NCelE2=     1 NClLst=     1 CellRange=     0.0.
 One-electron integrals computed using PRISM.
 NBasis=   197 RedAO= T  NBF=   197
 NBsUse=   197 1.00D-06 NBFU=   197
 Leave Link  302 at Sat Dec 14 19:23:08 2019, MaxMem=  268435456 cpu:       0.2
 (Enter /home/matheus/.gaussian/g09/l303.exe)
 DipDrv:  MaxL=1.
 Leave Link  303 at Sat Dec 14 19:23:08 2019, MaxMem=  268435456 cpu:       0.0
 (Enter /home/matheus/.gaussian/g09/l401.exe)
 Initial guess read from the read-write file.
 B after Tr=     0.000000    0.000000    0.000000
         Rot=    1.000000    0.000000    0.000000    0.000000 Ang=   0.00 deg.
 Guess basis will be translated and rotated to current coordinates.
 Initial guess orbital symmetries:
       Occupied  (A) (A) (A) (A) (A) (A) (A) (A) (A) (A) (A) (A)
                 (A) (A) (A) (A) (A) (A) (A) (A) (A) (A) (A) (A)
                 (A) (A) (A)
       Virtual   (A) (A) (A) (A) (A) (A) (A) (A) (A) (A) (A) (A)
                 (A) (A) (A) (A) (A) (A) (A) (A) (A) (A) (A) (A)
                 (A) (A) (A) (A) (A) (A) (A) (A) (A) (A) (A) (A)
                 (A) (A) (A) (A) (A) (A) (A) (A) (A) (A) (A) (A)
                 (A) (A) (A) (A) (A) (A) (A) (A) (A) (A) (A) (A)
                 (A) (A) (A) (A) (A) (A) (A) (A) (A) (A) (A) (A)
                 (A) (A) (A) (A) (A) (A) (A) (A) (A) (A) (A) (A)
                 (A) (A) (A) (A) (A) (A) (A) (A) (A) (A) (A) (A)
                 (A) (A) (A) (A) (A) (A) (A) (A) (A) (A) (A) (A)
                 (A) (A) (A) (A) (A) (A) (A) (A) (A) (A) (A) (A)
                 (A) (A) (A) (A) (A) (A) (A) (A) (A) (A) (A) (A)
                 (A) (A) (A) (A) (A) (A) (A) (A) (A) (A) (A) (A)
                 (A) (A) (A) (A) (A) (A) (A) (A) (A) (A) (A) (A)
                 (A) (A) (A) (A) (A) (A) (A) (A) (A) (A) (A) (A)
                 (A) (A)
 The electronic state of the initial guess is 1-A.
 Generating alternative initial guess.
 Harris functional with IExCor=  205 diagonalized for initial guess.
 ExpMin= 2.53D-02 ExpMax= 1.17D+07 ExpMxC= 1.33D+04 IAcc=3 IRadAn=         5 AccDes= 0.00D+00
 HarFok:  IExCor=  205 AccDes= 0.00D+00 IRadAn=         5 IDoV= 1
 ScaDFX=  1.000000  1.000000  1.000000  1.000000
 FoFCou: FMM=F IPFlag=           0 FMFlag=      100000 FMFlg1=           0
         NFxFlg=           0 DoJE=T BraDBF=F KetDBF=T FulRan=T
         Omega=  0.000000  0.000000  1.000000  0.000000  0.000000 ICntrl=     500 IOpCl=  0
         NMat0=    1 NMatS0=    1 NMatT0=    0 NMatD0=    1 NMtDS0=    0 NMtDT0=    0
         I1Cent=           4 NGrid=           0.
 Petite list used in FoFCou.
 Harris En= -2901.93435012816    
 Leave Link  401 at Sat Dec 14 19:23:08 2019, MaxMem=  268435456 cpu:       1.1
 (Enter /home/matheus/.gaussian/g09/l502.exe)
 Closed shell SCF:
 Requested convergence on RMS density matrix=1.00D-08 within 128 cycles.
 Requested convergence on MAX density matrix=1.00D-06.
 Requested convergence on             energy=1.00D-06.
 No special actions if energy rises.
 Using DIIS extrapolation, IDIIS=  1040.
 Integral symmetry usage will be decided dynamically.
 IEnd=      178489 IEndB=      178489 NGot=   268435456 MDV=   268326278
 LenX=   268326278 LenY=   268273396
 Fock matrices will be formed incrementally for  20 cycles.

 Cycle   1  Pass 0  IDiag  1:
 FoFCou: FMM=F IPFlag=           0 FMFlag=      100000 FMFlg1=           0
         NFxFlg=           0 DoJE=F BraDBF=F KetDBF=F FulRan=T
         Omega=  0.000000  0.000000  1.000000  0.000000  0.000000 ICntrl=       0 IOpCl=  0
         NMat0=    1 NMatS0=    1 NMatT0=    0 NMatD0=    1 NMtDS0=    0 NMtDT0=    0
         I1Cent=           0 NGrid=           0.
 Symmetry not used in FoFCou.
 E= -2902.88759013392    
 DIIS: error= 3.52D-05 at cycle   1 NSaved=   1.
 NSaved= 1 IEnMin= 1 EnMin= -2902.88759013392     IErMin= 1 ErrMin= 3.52D-05
 ErrMax= 3.52D-05 EMaxC= 1.00D-01 BMatC= 5.72D-07 BMatP= 5.72D-07
 IDIUse=1 WtCom= 1.00D+00 WtEn= 0.00D+00
 Coeff-Com:  0.100D+01
 Coeff:      0.100D+01
 Gap=     0.524 Goal=   None    Shift=    0.000
 RMSDP=1.54D-05 MaxDP=6.54D-04              OVMax= 3.21D-04

 Cycle   2  Pass 0  IDiag  1:
 RMSU=  1.09D-05    CP:  1.00D+00
 E= -2902.88759075656     Delta-E=       -0.000000622639 Rises=F Damp=F
 DIIS: error= 1.03D-05 at cycle   2 NSaved=   2.
 NSaved= 2 IEnMin= 2 EnMin= -2902.88759075656     IErMin= 2 ErrMin= 1.03D-05
 ErrMax= 1.03D-05 EMaxC= 1.00D-01 BMatC= 1.40D-08 BMatP= 5.72D-07
 IDIUse=1 WtCom= 1.00D+00 WtEn= 0.00D+00
 Coeff-Com: -0.355D-01 0.104D+01
 Coeff:     -0.355D-01 0.104D+01
 Gap=     0.524 Goal=   None    Shift=    0.000
 RMSDP=1.96D-06 MaxDP=7.70D-05 DE=-6.23D-07 OVMax= 5.31D-05

 Initial convergence to 1.0D-05 achieved.  Increase integral accuracy.
 Cycle   3  Pass 1  IDiag  1:
 E= -2902.88759077584     Delta-E=       -0.000000019279 Rises=F Damp=F
 DIIS: error= 2.99D-06 at cycle   1 NSaved=   1.
 NSaved= 1 IEnMin= 1 EnMin= -2902.88759077584     IErMin= 1 ErrMin= 2.99D-06
 ErrMax= 2.99D-06 EMaxC= 1.00D-01 BMatC= 1.13D-09 BMatP= 1.13D-09
 IDIUse=1 WtCom= 1.00D+00 WtEn= 0.00D+00
 Coeff-Com:  0.100D+01
 Coeff:      0.100D+01
 Gap=     0.524 Goal=   None    Shift=    0.000
 RMSDP=1.96D-06 MaxDP=7.70D-05 DE=-1.93D-08 OVMax= 2.09D-05

 Cycle   4  Pass 1  IDiag  1:
 RMSU=  1.86D-07    CP:  1.00D+00
 E= -2902.88759077752     Delta-E=       -0.000000001675 Rises=F Damp=F
 DIIS: error= 8.75D-07 at cycle   2 NSaved=   2.
 NSaved= 2 IEnMin= 2 EnMin= -2902.88759077752     IErMin= 2 ErrMin= 8.75D-07
 ErrMax= 8.75D-07 EMaxC= 1.00D-01 BMatC= 1.96D-10 BMatP= 1.13D-09
 IDIUse=1 WtCom= 1.00D+00 WtEn= 0.00D+00
 Coeff-Com:  0.188D+00 0.812D+00
 Coeff:      0.188D+00 0.812D+00
 Gap=     0.524 Goal=   None    Shift=    0.000
 RMSDP=6.61D-08 MaxDP=1.77D-06 DE=-1.68D-09 OVMax= 4.00D-06

 Cycle   5  Pass 1  IDiag  1:
 RMSU=  3.92D-08    CP:  1.00D+00  1.14D+00
 E= -2902.88759077778     Delta-E=       -0.000000000265 Rises=F Damp=F
 DIIS: error= 4.42D-07 at cycle   3 NSaved=   3.
 NSaved= 3 IEnMin= 3 EnMin= -2902.88759077778     IErMin= 3 ErrMin= 4.42D-07
 ErrMax= 4.42D-07 EMaxC= 1.00D-01 BMatC= 3.95D-11 BMatP= 1.96D-10
 IDIUse=1 WtCom= 1.00D+00 WtEn= 0.00D+00
 Coeff-Com: -0.104D+00 0.679D-01 0.104D+01
 Coeff:     -0.104D+00 0.679D-01 0.104D+01
 Gap=     0.524 Goal=   None    Shift=    0.000
 RMSDP=4.11D-08 MaxDP=1.05D-06 DE=-2.65D-10 OVMax= 3.17D-06

 Cycle   6  Pass 1  IDiag  1:
 RMSU=  1.66D-08    CP:  1.00D+00  1.26D+00  1.23D+00
 E= -2902.88759077786     Delta-E=       -0.000000000077 Rises=F Damp=F
 DIIS: error= 1.96D-07 at cycle   4 NSaved=   4.
 NSaved= 4 IEnMin= 4 EnMin= -2902.88759077786     IErMin= 4 ErrMin= 1.96D-07
 ErrMax= 1.96D-07 EMaxC= 1.00D-01 BMatC= 8.29D-12 BMatP= 3.95D-11
 IDIUse=1 WtCom= 1.00D+00 WtEn= 0.00D+00
 Coeff-Com: -0.702D-01-0.145D+00 0.301D+00 0.914D+00
 Coeff:     -0.702D-01-0.145D+00 0.301D+00 0.914D+00
 Gap=     0.524 Goal=   None    Shift=    0.000
 RMSDP=1.80D-08 MaxDP=4.66D-07 DE=-7.69D-11 OVMax= 1.53D-06

 Cycle   7  Pass 1  IDiag  1:
 RMSU=  6.74D-09    CP:  1.00D+00  1.29D+00  1.42D+00  1.25D+00
 E= -2902.88759077788     Delta-E=       -0.000000000023 Rises=F Damp=F
 DIIS: error= 6.55D-08 at cycle   5 NSaved=   5.
 NSaved= 5 IEnMin= 5 EnMin= -2902.88759077788     IErMin= 5 ErrMin= 6.55D-08
 ErrMax= 6.55D-08 EMaxC= 1.00D-01 BMatC= 5.40D-13 BMatP= 8.29D-12
 IDIUse=1 WtCom= 1.00D+00 WtEn= 0.00D+00
 Coeff-Com:  0.427D-01 0.710D-01-0.238D+00-0.457D+00 0.158D+01
 Coeff:      0.427D-01 0.710D-01-0.238D+00-0.457D+00 0.158D+01
 Gap=     0.524 Goal=   None    Shift=    0.000
 RMSDP=8.66D-09 MaxDP=2.80D-07 DE=-2.27D-11 OVMax= 8.66D-07

 SCF Done:  E(RHF) =  -2902.88759078     A.U. after    7 cycles
             Convg  =    0.8663D-08             -V/T =  2.0001
 KE= 2.902572585005D+03 PE=-7.151032321513D+03 EE= 1.240294456459D+03
 Leave Link  502 at Sat Dec 14 19:23:27 2019, MaxMem=  268435456 cpu:      36.7
 (Enter /home/matheus/.gaussian/g09/l801.exe)
 Windowed orbitals will be sorted by symmetry type.
 ExpMin= 2.53D-02 ExpMax= 1.17D+07 ExpMxC= 1.33D+04 IAcc=3 IRadAn=         5 AccDes= 0.00D+00
 HarFok:  IExCor=  205 AccDes= 0.00D+00 IRadAn=         5 IDoV=-2
 ScaDFX=  1.000000  1.000000  1.000000  1.000000
 DSYEVD returned Info=          93 IAlg= 4 N=    46 NDim=    46 NE2=     4547561 trying DSYEV.
 Largest valence mixing into a core orbital is  1.48D-04
 Largest core mixing into a valence orbital is  2.63D-05
 Range of M.O.s used for correlation:    12   197
 NBasis=   197 NAE=    27 NBE=    27 NFC=    11 NFV=     0
 NROrb=    186 NOA=    16 NOB=    16 NVA=   170 NVB=   170

 **** Warning!!: The largest alpha MO coefficient is  0.14538812D+02

 Leave Link  801 at Sat Dec 14 19:23:27 2019, MaxMem=  268435456 cpu:       0.2
 (Enter /home/matheus/.gaussian/g09/l804.exe)
 Closed-shell transformation, MDV=   268435456 ITran=4 ISComp=1.
 Semi-Direct transformation.
 ModeAB=           4 MOrb=            16 LenV=     267349392
 LASXX=     48528660 LTotXX=    48528660 LenRXX=    97827436
 LTotAB=    49298776 MaxLAS=    72322752 LenRXY=           0
 NonZer=   146356096 LenScr=   220395520 LnRSAI=    72322752
 LnScr1=   109242880 LExtra=           0 Total=    499788588
 MaxDsk=          -1 SrtSym=           T ITran=            4
 DoSDTr:  NPSUse=  2
 JobTyp=0 Pass  1:  I=   1 to  16.
 (rs|ai) integrals will be sorted in core.
 Complete sort for first half transformation.
 First half transformation complete.
 Begin second half transformation for I=  10.
 Complete sort for second half transformation.
 Second half transformation complete.
 SymMOI:  orbitals are not symmetric.
 Spin components of T(2) and E(2):
     alpha-alpha T2 =       0.2555273741D-01 E2=     -0.9847737299D-01
     alpha-beta  T2 =       0.1414127886D+00 E2=     -0.5531460719D+00
     beta-beta   T2 =       0.2555273741D-01 E2=     -0.9847737299D-01
 ANorm=    0.1092024846D+01
 E2 =    -0.7501008179D+00 EUMP2 =    -0.29036376915958D+04
 Leave Link  804 at Sat Dec 14 19:23:46 2019, MaxMem=  268435456 cpu:      39.1
 (Enter /home/matheus/.gaussian/g09/l913.exe)
 CIDS:  MDV=   268435456.
 Frozen-core window:  NFC=  11 NFV=   0.
 IFCWin=0 IBDFC=1 NFBD=     0     0 NFCmp=     0     0 NFFFC=     0     0
 Using DD3R+UMP44R for 1st iteration, S=T.
 Using DD4RQ for 2nd and later iterations.
 Would need an additional       431206676 words for in-memory AO integral storage.
 MP4(SDTQ)
 =========
 DD1Dir will call FoFDir   1 times, MxPair=       272
 NAB=   136 NAA=     0 NBB=     0 NumPrc=  2.
 Integrals replicated using symmetry in FoFDir.
 MinBra= 0 MaxBra= 3 Meth= 1.
 IRaf=       0 NMat= 272 IRICut=     340 DoRegI=T DoRafI=T ISym2E= 2 JSym2E=2.
 MP4(D)= -0.14969954D-01
 MP4(S)= -0.63116577D-02
 MP4(R+Q)=  0.15009934D-01
 T4(AAA)= -0.98818657D-03
 T4(AAB)= -0.13834170D-01
 Time for triples=     1310.80 seconds.
 MP4(T)=   -0.29644714D-01
 E3=       -0.11916992D-01        EUMP3=      -0.29036496086D+04
 E4(DQ)=    0.39979878D-04        UMP4(DQ)=   -0.29036495686D+04
 E4(SDQ)=  -0.62716778D-02        UMP4(SDQ)=  -0.29036558803D+04
 E4(SDTQ)= -0.35916392D-01        UMP4(SDTQ)= -0.29036855250D+04
 VARIATIONAL ENERGIES WITH THE FIRST-ORDER WAVEFUNCTION:
 E(VAR1)=  -0.29035265896D+04     E(CISD,4)=  -0.29035264821D+04
 Largest amplitude= 3.25D-02
 Leave Link  913 at Sat Dec 14 19:35:29 2019, MaxMem=  268435456 cpu:    1395.4
 (Enter /home/matheus/.gaussian/g09/l108.exe)
 Scan completed.

 Summary of the potential surface scan:
   N      R1          SCF          MP2          MP3         MP4DQ       MP4SDQ       MP4SDTQ  
 ----  ---------  -----------  -----------  -----------  -----------  -----------  -----------
    1     3.0000  -2902.87886  -2903.63629  -2903.64744  -2903.64692  -2903.65345  -2903.68407
    2     3.1000  -2902.88148  -2903.63778  -2903.64907  -2903.64863  -2903.65513  -2903.68560
    3     3.2000  -2902.88334  -2903.63868  -2903.65009  -2903.64971  -2903.65618  -2903.68653
    4     3.3000  -2902.88466  -2903.63918  -2903.65068  -2903.65036  -2903.65681  -2903.68705
    5     3.4000  -2902.88558  -2903.63941  -2903.65098  -2903.65071  -2903.65714  -2903.68728
    6     3.5000  -2902.88624  -2903.63946  -2903.65109  -2903.65086  -2903.65727  -2903.68733
    7     3.6000  -2902.88669  -2903.63940  -2903.65108  -2903.65088  -2903.65728  -2903.68727
    8     3.7000  -2902.88700  -2903.63927  -2903.65099  -2903.65082  -2903.65720  -2903.68714
    9     3.8000  -2902.88721  -2903.63911  -2903.65086  -2903.65072  -2903.65709  -2903.68698
   10     3.9000  -2902.88736  -2903.63894  -2903.65072  -2903.65059  -2903.65695  -2903.68680
   11     4.0000  -2902.88745  -2903.63876  -2903.65057  -2903.65046  -2903.65681  -2903.68662
   12     4.1000  -2902.88751  -2903.63860  -2903.65043  -2903.65033  -2903.65668  -2903.68645
   13     4.2000  -2902.88755  -2903.63845  -2903.65029  -2903.65021  -2903.65655  -2903.68630
   14     4.3000  -2902.88757  -2903.63831  -2903.65017  -2903.65010  -2903.65643  -2903.68616
   15     4.4000  -2902.88759  -2903.63819  -2903.65006  -2903.64999  -2903.65632  -2903.68603
   16     4.5000  -2902.88760  -2903.63808  -2903.64996  -2903.64990  -2903.65623  -2903.68592
   17     4.6000  -2902.88760  -2903.63798  -2903.64987  -2903.64982  -2903.65614  -2903.68582
   18     4.7000  -2902.88760  -2903.63790  -2903.64979  -2903.64975  -2903.65606  -2903.68573
   19     4.8000  -2902.88760  -2903.63782  -2903.64973  -2903.64968  -2903.65600  -2903.68566
   20     4.9000  -2902.88759  -2903.63775  -2903.64966  -2903.64962  -2903.65593  -2903.68559
   21     5.0000  -2902.88759  -2903.63769  -2903.64961  -2903.64957  -2903.65588  -2903.68552
 ----  ---------  -----------  -----------  -----------  -----------  -----------  -----------
  
 Leave Link  108 at Sat Dec 14 19:35:29 2019, MaxMem=  268435456 cpu:       0.0
 (Enter /home/matheus/.gaussian/g09/l9999.exe)
 1\1\GINC-REDGIANT\Scan\RMP4SDTQ-FC\Aug-CC-pVTZ\H2Kr1O2\ROOT\14-Dec-201
 9\1\\#p mp4/aug-cc-PVTz int=ultrafine Scan\\PTCC\\0,1\O,0,0.,0.,0.725\
 O,0,0.,0.,-0.725\H,0,-0.9047631646,0.1595341571,1.0235104166\H,0,0.,0.
 9187205947,-1.0235104166\Kr,0,0.,R1,0.\\R1=3.,s,20,0.1\\Version=EM64L-
 G09RevC.01\State=1-A\HF=-2902.8788633,-2902.8814765,-2902.8833374,-290
 2.8846558,-2902.8855847,-2902.8862353,-2902.8866877,-2902.8869996,-290
 2.8872121,-2902.8873551,-2902.8874498,-2902.8875112,-2902.8875502,-290
 2.8875741,-2902.8875879,-2902.8875952,-2902.8875981,-2902.8875982,-290
 2.8875965,-2902.8875939,-2902.8875908\MP2=-2903.6362921,-2903.6377787,
 -2903.6386814,-2903.6391817,-2903.6394101,-2903.6394602,-2903.6393984,
 -2903.6392712,-2903.6391105,-2903.6389373,-2903.6387648,-2903.6386011,
 -2903.63845,-2903.6383131,-2903.6381903,-2903.6380809,-2903.6379835,-2
 903.6378969,-2903.6378201,-2903.6377519,-2903.6376916\MP3=-2903.647437
 4,-2903.649069,-2903.6500862,-2903.6506776,-2903.6509791,-2903.6510884
 ,-2903.6510753,-2903.6509884,-2903.6508615,-2903.6507167,-2903.6505684
 ,-2903.6504251,-2903.6502915,-2903.6501694,-2903.6500594,-2903.6499609
 ,-2903.649873,-2903.6497947,-2903.6497251,-2903.6496633,-2903.6496086\
 MP4D=-2903.6624123,-2903.6640441,-2903.665062,-2903.6656539,-2903.6659
 557,-2903.666065,-2903.6660515,-2903.6659643,-2903.6658368,-2903.66569
 15,-2903.6655427,-2903.6653989,-2903.6652647,-2903.6651422,-2903.66503
 17,-2903.6649328,-2903.6648445,-2903.6647658,-2903.6646958,-2903.66463
 36,-2903.6645785\MP4DQ=-2903.6469234,-2903.6486305,-2903.6497132,-2903
 .6503605,-2903.6507096,-2903.6508592,-2903.6508799,-2903.6508215,-2903
 .6507183,-2903.6505933,-2903.6504615,-2903.6503318,-2903.6502094,-2903
 .6500968,-2903.6499945,-2903.6499023,-2903.6498197,-2903.6497457,-2903
 .6496797,-2903.6496209,-2903.6495686\MP4SDQ=-2903.6534474,-2903.655125
 ,-2903.6561822,-2903.6568073,-2903.657137,-2903.6572696,-2903.6572754,
 -2903.657204,-2903.6570895,-2903.6569547,-2903.6568143,-2903.6566773,-
 2903.6565485,-2903.6564304,-2903.6563234,-2903.6562272,-2903.656141,-2
 903.6560641,-2903.6559955,-2903.6559344,-2903.6558803\MP4SDTQ=-2903.68
 40725,-2903.6856004,-2903.6865295,-2903.6870452,-2903.687281,-2903.687
 3332,-2903.6872701,-2903.6871399,-2903.6869753,-2903.6867979,-2903.686
 6214,-2903.6864538,-2903.6862992,-2903.6861591,-2903.6860336,-2903.685
 9217,-2903.6858222,-2903.6857339,-2903.6856556,-2903.6855863,-2903.685
 525\RMSD=4.405e-09,7.381e-09,7.076e-09,8.093e-09,7.327e-09,6.640e-09,5
 .988e-09,7.600e-09,4.830e-09,4.165e-09,5.340e-09,5.092e-09,4.394e-09,4
 .073e-09,3.931e-09,3.690e-09,3.163e-09,2.598e-09,9.879e-09,9.336e-09,8
 .663e-09\PG=C01 [X(H2Kr1O2)]\\@


 OUR LITTLE SYSTEMS HAVE THEIR DAY,    
   THEY HAVE THEIR DAY AND CEASE TO BE.
   THEY ARE BUT BROKEN LIGHTS OF THEE, 
 AND THOU, OH LORD, ART MORE THAN THEY.
          -------------------          
 LET KNOWLEDGE GROW FROM MORE TO MORE, 
   BUT MORE OF REVERENCE IN US DWELL.  
   THAT MIND AND SOUL, ACCORDING WELL, 
 MAY MAKE ONE MUSIC AS BEFORE.....     
          -------------------          
                    LORD TENNYSON      
 Job cpu time:  0 days  8 hours 31 minutes 50.3 seconds.
 File lengths (MBytes):  RWF=   3954 Int=      0 D2E=      0 Chk=      4 Scr=      1
 Normal termination of Gaussian 09 at Sat Dec 14 19:35:30 2019.
