 Entering Gaussian System, Link 0=g09
 Input=/home/matheus/.ptcc/Inputs/H2O2-Kr_18.com
 Output=/home/matheus/.ptcc/Logs-MP4/H2O2-Kr_18.log
 Initial command:
 /home/matheus/.gaussian/g09/l1.exe /home/matheus/.gaussian/g09/scratch/Gau-26689.inp -scrdir=/home/matheus/.gaussian/g09/scratch/
 Entering Link 1 = /home/matheus/.gaussian/g09/l1.exe PID=     26691.
  
 Copyright (c) 1988,1990,1992,1993,1995,1998,2003,2009,2011,
            Gaussian, Inc.  All Rights Reserved.
  
 This is part of the Gaussian(R) 09 program.  It is based on
 the Gaussian(R) 03 system (copyright 2003, Gaussian, Inc.),
 the Gaussian(R) 98 system (copyright 1998, Gaussian, Inc.),
 the Gaussian(R) 94 system (copyright 1995, Gaussian, Inc.),
 the Gaussian 92(TM) system (copyright 1992, Gaussian, Inc.),
 the Gaussian 90(TM) system (copyright 1990, Gaussian, Inc.),
 the Gaussian 88(TM) system (copyright 1988, Gaussian, Inc.),
 the Gaussian 86(TM) system (copyright 1986, Carnegie Mellon
 University), and the Gaussian 82(TM) system (copyright 1983,
 Carnegie Mellon University). Gaussian is a federally registered
 trademark of Gaussian, Inc.
  
 This software contains proprietary and confidential information,
 including trade secrets, belonging to Gaussian, Inc.
  
 This software is provided under written license and may be
 used, copied, transmitted, or stored only in accord with that
 written license.
  
 The following legend is applicable only to US Government
 contracts under FAR:
  
                    RESTRICTED RIGHTS LEGEND
  
 Use, reproduction and disclosure by the US Government is
 subject to restrictions as set forth in subparagraphs (a)
 and (c) of the Commercial Computer Software - Restricted
 Rights clause in FAR 52.227-19.
  
 Gaussian, Inc.
 340 Quinnipiac St., Bldg. 40, Wallingford CT 06492
  
  
 ---------------------------------------------------------------
 Warning -- This program may not be used in any manner that
 competes with the business of Gaussian, Inc. or will provide
 assistance to any competitor of Gaussian, Inc.  The licensee
 of this program is prohibited from giving any competitor of
 Gaussian, Inc. access to this program.  By using this program,
 the user acknowledges that Gaussian, Inc. is engaged in the
 business of creating and licensing software in the field of
 computational chemistry and represents and warrants to the
 licensee that it is not a competitor of Gaussian, Inc. and that
 it will not use this program in any manner prohibited above.
 ---------------------------------------------------------------
  

 Cite this work as:
 Gaussian 09, Revision C.01,
 M. J. Frisch, G. W. Trucks, H. B. Schlegel, G. E. Scuseria, 
 M. A. Robb, J. R. Cheeseman, G. Scalmani, V. Barone, B. Mennucci, 
 G. A. Petersson, H. Nakatsuji, M. Caricato, X. Li, H. P. Hratchian, 
 A. F. Izmaylov, J. Bloino, G. Zheng, J. L. Sonnenberg, M. Hada, 
 M. Ehara, K. Toyota, R. Fukuda, J. Hasegawa, M. Ishida, T. Nakajima, 
 Y. Honda, O. Kitao, H. Nakai, T. Vreven, J. A. Montgomery, Jr., 
 J. E. Peralta, F. Ogliaro, M. Bearpark, J. J. Heyd, E. Brothers, 
 K. N. Kudin, V. N. Staroverov, T. Keith, R. Kobayashi, J. Normand, 
 K. Raghavachari, A. Rendell, J. C. Burant, S. S. Iyengar, J. Tomasi, 
 M. Cossi, N. Rega, J. M. Millam, M. Klene, J. E. Knox, J. B. Cross, 
 V. Bakken, C. Adamo, J. Jaramillo, R. Gomperts, R. E. Stratmann, 
 O. Yazyev, A. J. Austin, R. Cammi, C. Pomelli, J. W. Ochterski, 
 R. L. Martin, K. Morokuma, V. G. Zakrzewski, G. A. Voth, 
 P. Salvador, J. J. Dannenberg, S. Dapprich, A. D. Daniels, 
 O. Farkas, J. B. Foresman, J. V. Ortiz, J. Cioslowski, 
 and D. J. Fox, Gaussian, Inc., Wallingford CT, 2010.
 
 ******************************************
 Gaussian 09:  EM64L-G09RevC.01 23-Sep-2011
                 8-Dec-2019 
 ******************************************
 %mem=2GB
 %nproc=2
 Will use up to    2 processors via shared memory.
 -------------------------------------
 #p mp4/aug-cc-PVTz int=ultrafine Scan
 -------------------------------------
 1/38=1,60=1/1,8;
 2/12=2,17=6,18=5,29=3,40=1/2;
 3/5=16,6=1,7=10,11=9,16=1,25=1,30=1,75=-5/1,2,3;
 4//1;
 5/5=2,38=5/2;
 8/6=4,9=120000,10=1/1,4;
 9/5=5/13;
 6/7=2,8=2,9=2,10=2,18=1/1;
 1/60=1/8(1);
 99/9=1/99;
 2/29=3/2;
 3/5=16,6=1,7=10,11=9,16=1,25=1,30=1,75=-5/1,2,3;
 4/5=5,16=3/1;
 5/5=2,38=5/2;
 8/6=4,9=120000,10=1/1,4;
 9/5=5/13;
 1/60=1/8(-6);
 99/9=1/99;
 Leave Link    1 at Sun Dec  8 22:49:40 2019, MaxMem=  268435456 cpu:       0.0
 (Enter /home/matheus/.gaussian/g09/l101.exe)
 ----
 PTCC
 ----
 Charge =  0 Multiplicity = 1
 Symbolic Z-Matrix:
 O                     0.        0.        0.725 
 O                     0.        0.       -0.725 
 H                     0.       -0.91872   1.02351 
 H                     0.        0.91872  -1.02351 
 Kr                    0.       R1        0. 
       Variables:
  R1                    3.     Scan 20    0.1    
 
 NAtoms=      5 NQM=        0 NQMF=       0 NMMI=      5 NMMIF=      0
                NMic=       0 NMicF=      0.
                    Isotopes and Nuclear Properties:
 (Nuclear quadrupole moments (NQMom) in fm**2, nuclear magnetic moments (NMagM)
  in nuclear magnetons)

  Atom         1           2           3           4           5
 IAtWgt=          16          16           1           1          84
 AtmWgt=  15.9949146  15.9949146   1.0078250   1.0078250  83.9115064
 NucSpn=           0           0           1           1           0
 AtZEff=   0.0000000   0.0000000   0.0000000   0.0000000   0.0000000
 NQMom=    0.0000000   0.0000000   0.0000000   0.0000000   0.0000000
 NMagM=    0.0000000   0.0000000   2.7928460   2.7928460   0.0000000
 Leave Link  101 at Sun Dec  8 22:49:40 2019, MaxMem=  268435456 cpu:       0.1
 (Enter /home/matheus/.gaussian/g09/l108.exe)
 Scan the potential surface.
 Variable   Value     No. Steps Step-Size
 -------- ----------- --------- ---------
     1       3.000000      20      0.1000
 A total of     21 points will be computed.
 Leave Link  108 at Sun Dec  8 22:49:40 2019, MaxMem=  268435456 cpu:       0.0
 (Enter /home/matheus/.gaussian/g09/l202.exe)
 ---------------------------------------------------------------------------------------------------
                            Z-MATRIX (ANGSTROMS AND DEGREES)
   CD    Cent   Atom    N1       Length/X        N2       Alpha/Y        N3        Beta/Z          J
 ---------------------------------------------------------------------------------------------------
      1      1  O        0   0.000000          0.000000          0.725000
      2      2  O        0   0.000000          0.000000         -0.725000
      3      3  H        0   0.000000         -0.918721          1.023510
      4      4  H        0   0.000000          0.918721         -1.023510
      5      5  Kr       0   0.000000          3.000000          0.000000
 ---------------------------------------------------------------------------------------------------
                         Z-Matrix orientation:                         
 ---------------------------------------------------------------------
 Center     Atomic      Atomic             Coordinates (Angstroms)
 Number     Number       Type             X           Y           Z
 ---------------------------------------------------------------------
      1          8           0        0.000000    0.000000    0.725000
      2          8           0        0.000000    0.000000   -0.725000
      3          1           0        0.000000   -0.918721    1.023510
      4          1           0        0.000000    0.918721   -1.023510
      5         36           0        0.000000    3.000000    0.000000
 ---------------------------------------------------------------------
                    Distance matrix (angstroms):
                    1          2          3          4          5
     1  O    0.000000
     2  O    1.450000   0.000000
     3  H    0.966000   1.975180   0.000000
     4  H    1.975180   0.966000   2.750724   0.000000
     5  Kr   3.086361   3.086361   4.050178   2.319331   0.000000
 Stoichiometry    H2KrO2
 Framework group  CS[SG(H2KrO2)]
 Deg. of freedom     7
 Full point group                 CS      NOp   2
 Largest Abelian subgroup         CS      NOp   2
 Largest concise Abelian subgroup C1      NOp   1
                         Standard orientation:                         
 ---------------------------------------------------------------------
 Center     Atomic      Atomic             Coordinates (Angstroms)
 Number     Number       Type             X           Y           Z
 ---------------------------------------------------------------------
      1          8           0        0.725000   -2.000000    0.000000
      2          8           0       -0.725000   -2.000000    0.000000
      3          1           0        1.023510   -2.918721    0.000000
      4          1           0       -1.023510   -1.081279    0.000000
      5         36           0        0.000000    1.000000    0.000000
 ---------------------------------------------------------------------
 Rotational constants (GHZ):     26.7279120      2.3023206      2.1197289
 Leave Link  202 at Sun Dec  8 22:49:40 2019, MaxMem=  268435456 cpu:       0.0
 (Enter /home/matheus/.gaussian/g09/l301.exe)
 Standard basis: Aug-CC-pVTZ (5D, 7F)
 Ernie: Thresh=  0.10000D-02 Tol=  0.10000D-05 Strict=F.
 Ernie:  38 primitive shells out of 205 were deleted.
 There are   131 symmetry adapted basis functions of A'  symmetry.
 There are    66 symmetry adapted basis functions of A"  symmetry.
 Integral buffers will be    131072 words long.
 Raffenetti 1 integral format.
 Two-electron integral symmetry is turned on.
   197 basis functions,   415 primitive gaussians,   229 cartesian basis functions
    27 alpha electrons       27 beta electrons
       nuclear repulsion energy       148.2769905491 Hartrees.
 IExCor=    0 DFT=F Ex=HF Corr=None ExCW=0 ScaHFX=  1.000000
 ScaDFX=  1.000000  1.000000  1.000000  1.000000 ScalE2=  1.000000  1.000000
 IRadAn=      5 IRanWt=     -1 IRanGd=            0 ICorTp=0
 NAtoms=    5 NActive=    5 NUniq=    5 SFac= 1.00D+00 NAtFMM=   60 NAOKFM=F Big=F
 Leave Link  301 at Sun Dec  8 22:49:40 2019, MaxMem=  268435456 cpu:       0.0
 (Enter /home/matheus/.gaussian/g09/l302.exe)
 NPDir=0 NMtPBC=     1 NCelOv=     1 NCel=       1 NClECP=     1 NCelD=      1
         NCelK=      1 NCelE2=     1 NClLst=     1 CellRange=     0.0.
 One-electron integrals computed using PRISM.
 NBasis=   197 RedAO= T  NBF=   131    66
 NBsUse=   197 1.00D-06 NBFU=   131    66
 Leave Link  302 at Sun Dec  8 22:49:40 2019, MaxMem=  268435456 cpu:       0.2
 (Enter /home/matheus/.gaussian/g09/l303.exe)
 DipDrv:  MaxL=1.
 Leave Link  303 at Sun Dec  8 22:49:40 2019, MaxMem=  268435456 cpu:       0.1
 (Enter /home/matheus/.gaussian/g09/l401.exe)
 Harris functional with IExCor=  205 diagonalized for initial guess.
 ExpMin= 2.53D-02 ExpMax= 1.17D+07 ExpMxC= 1.33D+04 IAcc=3 IRadAn=         5 AccDes= 0.00D+00
 HarFok:  IExCor=  205 AccDes= 0.00D+00 IRadAn=         5 IDoV= 1
 ScaDFX=  1.000000  1.000000  1.000000  1.000000
 FoFCou: FMM=F IPFlag=           0 FMFlag=      100000 FMFlg1=           0
         NFxFlg=           0 DoJE=T BraDBF=F KetDBF=T FulRan=T
         Omega=  0.000000  0.000000  1.000000  0.000000  0.000000 ICntrl=     500 IOpCl=  0
         NMat0=    1 NMatS0=    1 NMatT0=    0 NMatD0=    1 NMtDS0=    0 NMtDT0=    0
         I1Cent=           4 NGrid=           0.
 Petite list used in FoFCou.
 Harris En= -2901.92938457840    
 Initial guess orbital symmetries:
       Occupied  (A') (A') (A') (A') (A") (A') (A') (A') (A') (A')
                 (A") (A') (A') (A") (A') (A") (A') (A') (A') (A')
                 (A') (A") (A') (A") (A') (A') (A")
       Virtual   (A') (A') (A') (A') (A") (A') (A') (A") (A') (A')
                 (A") (A') (A') (A') (A") (A') (A") (A') (A') (A')
                 (A") (A') (A') (A") (A') (A') (A') (A') (A") (A')
                 (A') (A') (A") (A') (A") (A") (A') (A') (A') (A")
                 (A") (A') (A') (A') (A") (A') (A') (A") (A") (A')
                 (A') (A") (A') (A") (A') (A") (A') (A') (A') (A')
                 (A") (A') (A") (A') (A") (A') (A') (A') (A") (A')
                 (A') (A") (A") (A') (A') (A') (A") (A') (A') (A')
                 (A") (A') (A') (A") (A") (A") (A') (A') (A') (A")
                 (A') (A') (A") (A') (A') (A") (A') (A') (A") (A")
                 (A') (A") (A') (A') (A") (A') (A") (A') (A') (A")
                 (A') (A') (A") (A') (A') (A') (A') (A") (A') (A')
                 (A") (A') (A") (A') (A") (A") (A') (A") (A') (A")
                 (A') (A') (A') (A') (A') (A') (A') (A') (A") (A")
                 (A') (A') (A') (A") (A') (A') (A") (A') (A") (A')
                 (A") (A') (A") (A") (A") (A") (A") (A') (A') (A')
                 (A') (A") (A') (A') (A') (A') (A') (A') (A') (A')
 The electronic state of the initial guess is 1-A'.
 Leave Link  401 at Sun Dec  8 22:49:41 2019, MaxMem=  268435456 cpu:       0.7
 (Enter /home/matheus/.gaussian/g09/l502.exe)
 Closed shell SCF:
 Requested convergence on RMS density matrix=1.00D-08 within 128 cycles.
 Requested convergence on MAX density matrix=1.00D-06.
 Requested convergence on             energy=1.00D-06.
 No special actions if energy rises.
 Using DIIS extrapolation, IDIIS=  1040.
 Integral symmetry usage will be decided dynamically.
 IEnd=      178554 IEndB=      178554 NGot=   268435456 MDV=   268326213
 LenX=   268326213 LenY=   268273331
 Fock matrices will be formed incrementally for  20 cycles.

 Cycle   1  Pass 0  IDiag  1:
 FoFCou: FMM=F IPFlag=           0 FMFlag=      100000 FMFlg1=           0
         NFxFlg=           0 DoJE=F BraDBF=F KetDBF=F FulRan=T
         Omega=  0.000000  0.000000  1.000000  0.000000  0.000000 ICntrl=       0 IOpCl=  0
         NMat0=    1 NMatS0=    1 NMatT0=    0 NMatD0=    1 NMtDS0=    0 NMtDT0=    0
         I1Cent=           0 NGrid=           0.
 Petite list used in FoFCou.
 E= -2902.75764226419    
 DIIS: error= 3.81D-02 at cycle   1 NSaved=   1.
 NSaved= 1 IEnMin= 1 EnMin= -2902.75764226419     IErMin= 1 ErrMin= 3.81D-02
 ErrMax= 3.81D-02 EMaxC= 1.00D-01 BMatC= 6.92D-01 BMatP= 6.92D-01
 IDIUse=3 WtCom= 6.19D-01 WtEn= 3.81D-01
 Coeff-Com:  0.100D+01
 Coeff-En:   0.100D+01
 Coeff:      0.100D+01
 Gap=     0.527 Goal=   None    Shift=    0.000
 GapD=    0.527 DampG=2.000 DampE=0.500 DampFc=1.0000 IDamp=-1.
 RMSDP=2.31D-03 MaxDP=1.50D-01              OVMax= 5.89D-02

 Cycle   2  Pass 0  IDiag  1:
 RMSU=  1.61D-03    CP:  1.01D+00
 E= -2902.86233294666     Delta-E=       -0.104690682472 Rises=F Damp=F
 DIIS: error= 9.77D-03 at cycle   2 NSaved=   2.
 NSaved= 2 IEnMin= 2 EnMin= -2902.86233294666     IErMin= 2 ErrMin= 9.77D-03
 ErrMax= 9.77D-03 EMaxC= 1.00D-01 BMatC= 4.01D-02 BMatP= 6.92D-01
 IDIUse=3 WtCom= 9.02D-01 WtEn= 9.77D-02
 Coeff-Com:  0.151D+00 0.849D+00
 Coeff-En:   0.000D+00 0.100D+01
 Coeff:      0.136D+00 0.864D+00
 Gap=     0.510 Goal=   None    Shift=    0.000
 RMSDP=8.04D-04 MaxDP=4.24D-02 DE=-1.05D-01 OVMax= 2.27D-02

 Cycle   3  Pass 0  IDiag  1:
 RMSU=  4.35D-04    CP:  1.01D+00  7.82D-01
 E= -2902.87578870790     Delta-E=       -0.013455761244 Rises=F Damp=F
 DIIS: error= 2.24D-03 at cycle   3 NSaved=   3.
 NSaved= 3 IEnMin= 3 EnMin= -2902.87578870790     IErMin= 3 ErrMin= 2.24D-03
 ErrMax= 2.24D-03 EMaxC= 1.00D-01 BMatC= 2.30D-03 BMatP= 4.01D-02
 IDIUse=3 WtCom= 9.78D-01 WtEn= 2.24D-02
 Coeff-Com: -0.657D-02 0.170D+00 0.836D+00
 Coeff-En:   0.000D+00 0.000D+00 0.100D+01
 Coeff:     -0.642D-02 0.166D+00 0.840D+00
 Gap=     0.487 Goal=   None    Shift=    0.000
 RMSDP=1.22D-04 MaxDP=5.19D-03 DE=-1.35D-02 OVMax= 7.65D-03

 Cycle   4  Pass 0  IDiag  1:
 RMSU=  4.70D-05    CP:  1.01D+00  8.16D-01  8.94D-01
 E= -2902.87687644640     Delta-E=       -0.001087738494 Rises=F Damp=F
 DIIS: error= 4.25D-04 at cycle   4 NSaved=   4.
 NSaved= 4 IEnMin= 4 EnMin= -2902.87687644640     IErMin= 4 ErrMin= 4.25D-04
 ErrMax= 4.25D-04 EMaxC= 1.00D-01 BMatC= 4.26D-05 BMatP= 2.30D-03
 IDIUse=3 WtCom= 9.96D-01 WtEn= 4.25D-03
 Coeff-Com: -0.414D-02 0.100D-01 0.146D+00 0.848D+00
 Coeff-En:   0.000D+00 0.000D+00 0.000D+00 0.100D+01
 Coeff:     -0.413D-02 0.999D-02 0.145D+00 0.849D+00
 Gap=     0.491 Goal=   None    Shift=    0.000
 RMSDP=2.02D-05 MaxDP=6.62D-04 DE=-1.09D-03 OVMax= 1.59D-03

 Cycle   5  Pass 0  IDiag  1:
 RMSU=  1.25D-05    CP:  1.01D+00  8.17D-01  9.09D-01  9.81D-01
 E= -2902.87691144928     Delta-E=       -0.000035002879 Rises=F Damp=F
 DIIS: error= 1.50D-04 at cycle   5 NSaved=   5.
 NSaved= 5 IEnMin= 5 EnMin= -2902.87691144928     IErMin= 5 ErrMin= 1.50D-04
 ErrMax= 1.50D-04 EMaxC= 1.00D-01 BMatC= 3.12D-06 BMatP= 4.26D-05
 IDIUse=3 WtCom= 9.98D-01 WtEn= 1.50D-03
 Coeff-Com:  0.775D-03-0.146D-01-0.685D-01 0.184D-01 0.106D+01
 Coeff-En:   0.000D+00 0.000D+00 0.000D+00 0.000D+00 0.100D+01
 Coeff:      0.774D-03-0.146D-01-0.684D-01 0.183D-01 0.106D+01
 Gap=     0.491 Goal=   None    Shift=    0.000
 RMSDP=9.11D-06 MaxDP=3.07D-04 DE=-3.50D-05 OVMax= 8.33D-04

 Initial convergence to 1.0D-05 achieved.  Increase integral accuracy.
 Cycle   6  Pass 1  IDiag  1:
 E= -2902.87691583147     Delta-E=       -0.000004382196 Rises=F Damp=F
 DIIS: error= 3.34D-05 at cycle   1 NSaved=   1.
 NSaved= 1 IEnMin= 1 EnMin= -2902.87691583147     IErMin= 1 ErrMin= 3.34D-05
 ErrMax= 3.34D-05 EMaxC= 1.00D-01 BMatC= 1.87D-07 BMatP= 1.87D-07
 IDIUse=1 WtCom= 1.00D+00 WtEn= 0.00D+00
 Coeff-Com:  0.100D+01
 Coeff:      0.100D+01
 Gap=     0.491 Goal=   None    Shift=    0.000
 RMSDP=9.11D-06 MaxDP=3.07D-04 DE=-4.38D-06 OVMax= 1.62D-04

 Cycle   7  Pass 1  IDiag  1:
 RMSU=  1.41D-06    CP:  1.00D+00
 E= -2902.87691613709     Delta-E=       -0.000000305620 Rises=F Damp=F
 DIIS: error= 1.29D-05 at cycle   2 NSaved=   2.
 NSaved= 2 IEnMin= 2 EnMin= -2902.87691613709     IErMin= 2 ErrMin= 1.29D-05
 ErrMax= 1.29D-05 EMaxC= 1.00D-01 BMatC= 3.92D-08 BMatP= 1.87D-07
 IDIUse=1 WtCom= 1.00D+00 WtEn= 0.00D+00
 Coeff-Com:  0.592D-01 0.941D+00
 Coeff:      0.592D-01 0.941D+00
 Gap=     0.491 Goal=   None    Shift=    0.000
 RMSDP=9.13D-07 MaxDP=3.96D-05 DE=-3.06D-07 OVMax= 8.11D-05

 Cycle   8  Pass 1  IDiag  1:
 RMSU=  5.33D-07    CP:  1.00D+00  1.26D+00
 E= -2902.87691619905     Delta-E=       -0.000000061958 Rises=F Damp=F
 DIIS: error= 7.52D-06 at cycle   3 NSaved=   3.
 NSaved= 3 IEnMin= 3 EnMin= -2902.87691619905     IErMin= 3 ErrMin= 7.52D-06
 ErrMax= 7.52D-06 EMaxC= 1.00D-01 BMatC= 1.19D-08 BMatP= 3.92D-08
 IDIUse=1 WtCom= 1.00D+00 WtEn= 0.00D+00
 Coeff-Com: -0.250D+00 0.160D+00 0.109D+01
 Coeff:     -0.250D+00 0.160D+00 0.109D+01
 Gap=     0.491 Goal=   None    Shift=    0.000
 RMSDP=6.53D-07 MaxDP=2.34D-05 DE=-6.20D-08 OVMax= 5.58D-05

 Cycle   9  Pass 1  IDiag  1:
 RMSU=  1.54D-07    CP:  1.00D+00  1.56D+00  1.18D+00
 E= -2902.87691621983     Delta-E=       -0.000000020784 Rises=F Damp=F
 DIIS: error= 2.19D-06 at cycle   4 NSaved=   4.
 NSaved= 4 IEnMin= 4 EnMin= -2902.87691621983     IErMin= 4 ErrMin= 2.19D-06
 ErrMax= 2.19D-06 EMaxC= 1.00D-01 BMatC= 8.47D-10 BMatP= 1.19D-08
 IDIUse=1 WtCom= 1.00D+00 WtEn= 0.00D+00
 Coeff-Com: -0.849D-01-0.123D-01 0.334D+00 0.763D+00
 Coeff:     -0.849D-01-0.123D-01 0.334D+00 0.763D+00
 Gap=     0.491 Goal=   None    Shift=    0.000
 RMSDP=1.26D-07 MaxDP=4.19D-06 DE=-2.08D-08 OVMax= 1.23D-05

 Cycle  10  Pass 1  IDiag  1:
 RMSU=  6.24D-08    CP:  1.00D+00  1.59D+00  1.25D+00  8.96D-01
 E= -2902.87691622085     Delta-E=       -0.000000001018 Rises=F Damp=F
 DIIS: error= 5.14D-07 at cycle   5 NSaved=   5.
 NSaved= 5 IEnMin= 5 EnMin= -2902.87691622085     IErMin= 5 ErrMin= 5.14D-07
 ErrMax= 5.14D-07 EMaxC= 1.00D-01 BMatC= 6.96D-11 BMatP= 8.47D-10
 IDIUse=1 WtCom= 1.00D+00 WtEn= 0.00D+00
 Coeff-Com:  0.354D-01-0.461D-02-0.167D+00-0.901D-01 0.123D+01
 Coeff:      0.354D-01-0.461D-02-0.167D+00-0.901D-01 0.123D+01
 Gap=     0.491 Goal=   None    Shift=    0.000
 RMSDP=5.87D-08 MaxDP=1.49D-06 DE=-1.02D-09 OVMax= 6.11D-06

 Cycle  11  Pass 1  IDiag  1:
 RMSU=  1.56D-08    CP:  1.00D+00  1.60D+00  1.27D+00  1.03D+00  1.48D+00
 E= -2902.87691622100     Delta-E=       -0.000000000151 Rises=F Damp=F
 DIIS: error= 2.50D-07 at cycle   6 NSaved=   6.
 NSaved= 6 IEnMin= 6 EnMin= -2902.87691622100     IErMin= 6 ErrMin= 2.50D-07
 ErrMax= 2.50D-07 EMaxC= 1.00D-01 BMatC= 9.11D-12 BMatP= 6.96D-11
 IDIUse=1 WtCom= 1.00D+00 WtEn= 0.00D+00
 Coeff-Com:  0.139D-01 0.300D-02-0.588D-01-0.940D-01-0.395D-01 0.118D+01
 Coeff:      0.139D-01 0.300D-02-0.588D-01-0.940D-01-0.395D-01 0.118D+01
 Gap=     0.491 Goal=   None    Shift=    0.000
 RMSDP=2.78D-08 MaxDP=9.49D-07 DE=-1.51D-10 OVMax= 3.09D-06

 Cycle  12  Pass 1  IDiag  1:
 RMSU=  6.18D-09    CP:  1.00D+00  1.60D+00  1.27D+00  1.08D+00  1.73D+00
                    CP:  1.46D+00
 E= -2902.87691622104     Delta-E=       -0.000000000038 Rises=F Damp=F
 DIIS: error= 9.18D-08 at cycle   7 NSaved=   7.
 NSaved= 7 IEnMin= 7 EnMin= -2902.87691622104     IErMin= 7 ErrMin= 9.18D-08
 ErrMax= 9.18D-08 EMaxC= 1.00D-01 BMatC= 1.13D-12 BMatP= 9.11D-12
 IDIUse=1 WtCom= 1.00D+00 WtEn= 0.00D+00
 Coeff-Com: -0.324D-02 0.108D-02 0.144D-01 0.965D-02-0.160D+00 0.129D+00
 Coeff-Com:  0.101D+01
 Coeff:     -0.324D-02 0.108D-02 0.144D-01 0.965D-02-0.160D+00 0.129D+00
 Coeff:      0.101D+01
 Gap=     0.491 Goal=   None    Shift=    0.000
 RMSDP=7.80D-09 MaxDP=2.31D-07 DE=-3.77D-11 OVMax= 9.07D-07

 SCF Done:  E(RHF) =  -2902.87691622     A.U. after   12 cycles
             Convg  =    0.7803D-08             -V/T =  2.0001
 KE= 2.902624426470D+03 PE=-7.237174845949D+03 EE= 1.283396512708D+03
 Leave Link  502 at Sun Dec  8 22:50:27 2019, MaxMem=  268435456 cpu:      91.8
 (Enter /home/matheus/.gaussian/g09/l801.exe)
 Windowed orbitals will be sorted by symmetry type.
 ExpMin= 2.53D-02 ExpMax= 1.17D+07 ExpMxC= 1.33D+04 IAcc=3 IRadAn=         5 AccDes= 0.00D+00
 HarFok:  IExCor=  205 AccDes= 0.00D+00 IRadAn=         5 IDoV=-2
 ScaDFX=  1.000000  1.000000  1.000000  1.000000
 DSYEVD returned Info=          93 IAlg= 4 N=    46 NDim=    46 NE2=     4547561 trying DSYEV.
 DSYEVD returned Info=          89 IAlg= 4 N=    59 NDim=    59 NE2=     4547561 trying DSYEV.
 Largest valence mixing into a core orbital is  1.44D-04
 Largest core mixing into a valence orbital is  2.58D-05
 Range of M.O.s used for correlation:    12   197
 NBasis=   197 NAE=    27 NBE=    27 NFC=    11 NFV=     0
 NROrb=    186 NOA=    16 NOB=    16 NVA=   170 NVB=   170

 **** Warning!!: The largest alpha MO coefficient is  0.12991324D+02

 Leave Link  801 at Sun Dec  8 22:50:27 2019, MaxMem=  268435456 cpu:       0.3
 (Enter /home/matheus/.gaussian/g09/l804.exe)
 Closed-shell transformation, MDV=   268435456 ITran=4 ISComp=2.
 Semi-Direct transformation.
 ModeAB=           2 MOrb=            16 LenV=     267324348
 LASXX=     24518604 LTotXX=    24518604 LenRXX=    24518604
 LTotAB=    24945307 MaxLAS=    78372960 LenRXY=    78372960
 NonZer=    78932448 LenScr=   119149056 LnRSAI=           0
 LnScr1=           0 LExtra=           0 Total=    222040620
 MaxDsk=          -1 SrtSym=           F ITran=            4
 DoSDTr:  NPSUse=  2
 JobTyp=0 Pass  1:  I=   1 to  16.
 (rs|ai) integrals will be sorted in core.
 Complete sort for first half transformation.
 First half transformation complete.
 Begin second half transformation for I=  10.
 Begin second half transformation for I=  10.
 Complete sort for second half transformation.
 Second half transformation complete.
 Spin components of T(2) and E(2):
     alpha-alpha T2 =       0.2590278068D-01 E2=     -0.9985929353D-01
     alpha-beta  T2 =       0.1417237910D+00 E2=     -0.5561905165D+00
     beta-beta   T2 =       0.2590278068D-01 E2=     -0.9985929353D-01
 ANorm=    0.1092487690D+01
 E2 =    -0.7559091035D+00 EUMP2 =    -0.29036328253246D+04
 Leave Link  804 at Sun Dec  8 22:50:50 2019, MaxMem=  268435456 cpu:      44.9
 (Enter /home/matheus/.gaussian/g09/l913.exe)
 CIDS:  MDV=   268435456.
 Frozen-core window:  NFC=  11 NFV=   0.
 IFCWin=0 IBDFC=1 NFBD=     0     0 NFCmp=     0     0 NFFFC=     0     0
 Using DD3R+UMP44R for 1st iteration, S=T.
 Using DD4RQ for 2nd and later iterations.
 Would need an additional       431206676 words for in-memory AO integral storage.
 MP4(SDTQ)
 =========
 DD1Dir will call FoFDir   1 times, MxPair=       272
 NAB=   136 NAA=     0 NBB=     0 NumPrc=  2.
 Petite list used in FoFDir.
 MinBra= 0 MaxBra= 3 Meth= 1.
 IRaf=       0 NMat= 272 IRICut=     340 DoRegI=T DoRafI=T ISym2E=-1 JSym2E=1.
 MP4(D)= -0.14941151D-01
 MP4(S)= -0.63862986D-02
 MP4(R+Q)=  0.15340477D-01
 IPart=  1 IA=   10   10.34% done.
 IPart=  2 IA=   19   20.11% done.
 IPart=  2 IA=   29   30.31% done.
 IPart=  2 IA=   40   40.72% done.
 IPart=  1 IA=   51   50.30% done.
 IPart=  2 IA=   64   60.52% done.
 IPart=  2 IA=   78   70.22% done.
 IPart=  1 IA=   95   80.16% done.
 IPart=  2 IA=  117   90.04% done.
 Time for triples=     1425.33 seconds.
 MP4(T)=   -0.30321414D-01
 E3=       -0.11347984D-01        EUMP3=      -0.29036441733D+04
 E4(DQ)=    0.39932579D-03        UMP4(DQ)=   -0.29036437740D+04
 E4(SDQ)=  -0.59869728D-02        UMP4(SDQ)=  -0.29036501603D+04
 E4(SDTQ)= -0.36308387D-01        UMP4(SDTQ)= -0.29036804817D+04
 VARIATIONAL ENERGIES WITH THE FIRST-ORDER WAVEFUNCTION:
 E(VAR1)=  -0.29035197635D+04     E(CISD,4)=  -0.29035192102D+04
 Largest amplitude= 3.06D-02
 Leave Link  913 at Sun Dec  8 23:03:10 2019, MaxMem=  268435456 cpu:    1479.0
 (Enter /home/matheus/.gaussian/g09/l601.exe)
 Copying SCF densities to generalized density rwf, IOpCl= 0 IROHF=0.

 **********************************************************************

            Population analysis using the SCF density.

 **********************************************************************

 Orbital symmetries:
       Occupied  (A') (A') (A') (A") (A') (A') (A') (A') (A') (A")
                 (A') (A') (A") (A') (A") (A') (A') (A') (A') (A')
                 (A') (A") (A') (A") (A') (A') (A")
       Virtual   (A') (A') (A') (A") (A') (A') (A') (A') (A") (A')
                 (A") (A') (A') (A") (A') (A') (A") (A') (A') (A')
                 (A") (A') (A') (A") (A') (A') (A') (A') (A") (A')
                 (A') (A') (A") (A') (A") (A') (A") (A') (A") (A')
                 (A") (A') (A') (A') (A") (A') (A') (A") (A") (A')
                 (A') (A') (A") (A') (A") (A') (A') (A") (A') (A')
                 (A') (A") (A") (A") (A') (A') (A') (A') (A") (A')
                 (A') (A") (A") (A') (A') (A') (A') (A") (A') (A')
                 (A") (A') (A') (A") (A") (A') (A') (A") (A') (A")
                 (A') (A') (A") (A') (A') (A') (A") (A') (A") (A')
                 (A") (A') (A") (A") (A') (A') (A") (A') (A") (A')
                 (A') (A") (A') (A') (A') (A') (A') (A") (A') (A')
                 (A') (A") (A") (A") (A') (A") (A') (A") (A') (A")
                 (A') (A') (A') (A') (A') (A') (A') (A') (A") (A")
                 (A') (A') (A') (A") (A') (A') (A") (A') (A") (A')
                 (A") (A') (A") (A") (A") (A") (A') (A") (A') (A')
                 (A') (A") (A') (A') (A') (A') (A') (A') (A') (A')
 The electronic state is 1-A'.
 Alpha  occ. eigenvalues -- -520.17278 -69.91033 -63.01691 -63.01689 -63.01685
 Alpha  occ. eigenvalues --  -20.62648 -20.62303 -10.85696  -8.33920  -8.33893
 Alpha  occ. eigenvalues --   -8.33878  -3.83299  -3.83294  -3.83274  -3.83246
 Alpha  occ. eigenvalues --   -3.83243  -1.46406  -1.21664  -1.16278  -0.71589
 Alpha  occ. eigenvalues --   -0.69800  -0.62408  -0.54397  -0.53173  -0.52804
 Alpha  occ. eigenvalues --   -0.51759  -0.45521
 Alpha virt. eigenvalues --    0.03596   0.04508   0.08876   0.10612   0.11421
 Alpha virt. eigenvalues --    0.12474   0.15263   0.16483   0.17579   0.17589
 Alpha virt. eigenvalues --    0.19713   0.21228   0.25213   0.26126   0.26666
 Alpha virt. eigenvalues --    0.28304   0.29297   0.30905   0.33628   0.35891
 Alpha virt. eigenvalues --    0.36734   0.37606   0.39210   0.41707   0.43107
 Alpha virt. eigenvalues --    0.44652   0.46123   0.52449   0.56759   0.59245
 Alpha virt. eigenvalues --    0.61491   0.65325   0.69590   0.70883   0.74423
 Alpha virt. eigenvalues --    0.76099   0.77723   0.79016   0.79569   0.82491
 Alpha virt. eigenvalues --    0.83845   0.84554   0.85111   0.86270   0.87759
 Alpha virt. eigenvalues --    0.89333   0.91589   0.93356   0.94000   0.96603
 Alpha virt. eigenvalues --    0.98670   1.00542   1.02149   1.03456   1.07816
 Alpha virt. eigenvalues --    1.09533   1.12326   1.13101   1.13719   1.17056
 Alpha virt. eigenvalues --    1.20660   1.21257   1.23560   1.25112   1.27395
 Alpha virt. eigenvalues --    1.35035   1.40014   1.46373   1.50216   1.50684
 Alpha virt. eigenvalues --    1.59189   1.60480   1.62915   1.64715   1.68728
 Alpha virt. eigenvalues --    1.71482   1.91020   1.94491   1.99466   2.08675
 Alpha virt. eigenvalues --    2.13549   2.13678   2.20879   2.28112   2.30466
 Alpha virt. eigenvalues --    2.32199   2.33158   2.37061   2.41325   2.43369
 Alpha virt. eigenvalues --    2.45008   2.48377   2.53260   2.53667   2.55422
 Alpha virt. eigenvalues --    2.56318   2.58242   2.62296   2.63351   2.66052
 Alpha virt. eigenvalues --    2.68602   2.69938   2.71457   2.75283   2.75619
 Alpha virt. eigenvalues --    2.78244   2.80842   2.82987   2.86021   2.88646
 Alpha virt. eigenvalues --    2.90711   2.92547   2.94670   2.99976   3.09791
 Alpha virt. eigenvalues --    3.14614   3.27881   3.28893   3.35600   3.73851
 Alpha virt. eigenvalues --    3.96915   4.08571   4.14822   4.30194   4.33433
 Alpha virt. eigenvalues --    4.34206   4.37216   4.40547   4.44471   4.51737
 Alpha virt. eigenvalues --    4.58287   4.65049   4.79307   4.83434   5.05093
 Alpha virt. eigenvalues --    5.15036   5.28889   5.29771   5.33741   5.35099
 Alpha virt. eigenvalues --    5.64396   5.81328   6.15983   6.30484   6.43336
 Alpha virt. eigenvalues --    6.47448   6.63844   6.71006   6.79929   6.80946
 Alpha virt. eigenvalues --    7.09870   7.09870   7.11066   7.19511   7.21147
 Alpha virt. eigenvalues --    7.26146   7.31460   7.32988   7.34148   7.35322
 Alpha virt. eigenvalues --    7.39655   7.61957   7.62644   7.76826   8.02318
 Alpha virt. eigenvalues --    8.23959   8.53218   8.55926  14.80088  15.24332
          Condensed to atoms (all electrons):
              1          2          3          4          5
     1  O    8.119970  -0.056461   0.223766  -0.015531  -0.030560
     2  O   -0.056461   8.122276  -0.006716   0.265193  -0.011093
     3  H    0.223766  -0.006716   0.526361   0.004972   0.002498
     4  H   -0.015531   0.265193   0.004972   0.458032  -0.004681
     5  Kr  -0.030560  -0.011093   0.002498  -0.004681  36.030586
 Mulliken atomic charges:
              1
     1  O   -0.241184
     2  O   -0.313199
     3  H    0.249119
     4  H    0.292015
     5  Kr   0.013250
 Sum of Mulliken atomic charges =   0.00000
 Mulliken charges with hydrogens summed into heavy atoms:
              1
     1  O    0.007934
     2  O   -0.021184
     5  Kr   0.013250
 Sum of Mulliken charges with hydrogens summed into heavy atoms =   0.00000
 Electronic spatial extent (au):  <R**2>=            492.3348
 Charge=              0.0000 electrons
 Dipole moment (field-independent basis, Debye):
    X=              0.2591    Y=              0.1423    Z=              0.0000  Tot=              0.2956
 Quadrupole moment (field-independent basis, Debye-Ang):
   XX=            -28.1789   YY=            -26.1855   ZZ=            -30.5300
   XY=             -4.0487   XZ=              0.0000   YZ=              0.0000
 Traceless Quadrupole moment (field-independent basis, Debye-Ang):
   XX=              0.1192   YY=              2.1126   ZZ=             -2.2318
   XY=             -4.0487   XZ=              0.0000   YZ=              0.0000
 Octapole moment (field-independent basis, Debye-Ang**2):
  XXX=              0.3375  YYY=             -2.1108  ZZZ=              0.0000  XYY=             17.3086
  XXY=              3.4094  XXZ=              0.0000  XZZ=              0.1199  YZZ=              8.1751
  YYZ=              0.0000  XYZ=              0.0000
 Hexadecapole moment (field-independent basis, Debye-Ang**3):
 XXXX=            -62.9010 YYYY=           -335.3728 ZZZZ=            -28.6828 XXXY=             -2.7182
 XXXZ=              0.0000 YYYX=            -52.4878 YYYZ=              0.0000 ZZZX=              0.0000
 ZZZY=              0.0000 XXYY=            -72.6731 XXZZ=            -17.1720 YYZZ=            -79.3946
 XXYZ=              0.0000 YYXZ=              0.0000 ZZXY=              0.8087
 N-N= 1.482769905491D+02 E-N=-7.237174844456D+03  KE= 2.902624426470D+03
 Symmetry A'   KE= 2.486372157056D+03
 Symmetry A"   KE= 4.162522694143D+02
 Leave Link  601 at Sun Dec  8 23:03:11 2019, MaxMem=  268435456 cpu:       0.2
 (Enter /home/matheus/.gaussian/g09/l108.exe)
 Variable Step   Value    
 -------- ---- -----------
     1       1    5.858151
 Leave Link  108 at Sun Dec  8 23:03:11 2019, MaxMem=  268435456 cpu:       0.0
 (Enter /home/matheus/.gaussian/g09/l202.exe)
 ---------------------------------------------------------------------------------------------------
                            Z-MATRIX (ANGSTROMS AND DEGREES)
   CD    Cent   Atom    N1       Length/X        N2       Alpha/Y        N3        Beta/Z          J
 ---------------------------------------------------------------------------------------------------
      1      1  O        0   0.000000          0.000000          0.725000
      2      2  O        0   0.000000          0.000000         -0.725000
      3      3  H        0   0.000000         -0.918721          1.023510
      4      4  H        0   0.000000          0.918721         -1.023510
      5      5  Kr       0   0.000000          3.100000          0.000000
 ---------------------------------------------------------------------------------------------------
                         Z-Matrix orientation:                         
 ---------------------------------------------------------------------
 Center     Atomic      Atomic             Coordinates (Angstroms)
 Number     Number       Type             X           Y           Z
 ---------------------------------------------------------------------
      1          8           0        0.000000    0.000000    0.725000
      2          8           0        0.000000    0.000000   -0.725000
      3          1           0        0.000000   -0.918721    1.023510
      4          1           0        0.000000    0.918721   -1.023510
      5         36           0        0.000000    3.100000    0.000000
 ---------------------------------------------------------------------
                    Distance matrix (angstroms):
                    1          2          3          4          5
     1  O    0.000000
     2  O    1.450000   0.000000
     3  H    0.966000   1.975180   0.000000
     4  H    1.975180   0.966000   2.750724   0.000000
     5  Kr   3.183650   3.183650   4.147010   2.409472   0.000000
 Stoichiometry    H2KrO2
 Framework group  CS[SG(H2KrO2)]
 Deg. of freedom     7
 Full point group                 CS      NOp   2
 RotChk:  IX=0 Diff= 1.57D-16
 Largest Abelian subgroup         CS      NOp   2
 Largest concise Abelian subgroup C1      NOp   1
                         Standard orientation:                         
 ---------------------------------------------------------------------
 Center     Atomic      Atomic             Coordinates (Angstroms)
 Number     Number       Type             X           Y           Z
 ---------------------------------------------------------------------
      1          8           0        0.725000   -2.066667    0.000000
      2          8           0       -0.725000   -2.066667    0.000000
      3          1           0        1.023510   -2.985387    0.000000
      4          1           0       -1.023510   -1.147946    0.000000
      5         36           0        0.000000    1.033333    0.000000
 ---------------------------------------------------------------------
 Rotational constants (GHZ):     26.7261769      2.1572633      1.9961404
 Leave Link  202 at Sun Dec  8 23:03:11 2019, MaxMem=  268435456 cpu:       0.0
 (Enter /home/matheus/.gaussian/g09/l301.exe)
 Standard basis: Aug-CC-pVTZ (5D, 7F)
 Ernie: Thresh=  0.10000D-02 Tol=  0.10000D-05 Strict=F.
 Ernie:  38 primitive shells out of 205 were deleted.
 There are   131 symmetry adapted basis functions of A'  symmetry.
 There are    66 symmetry adapted basis functions of A"  symmetry.
 Integral buffers will be    131072 words long.
 Raffenetti 1 integral format.
 Two-electron integral symmetry is turned on.
   197 basis functions,   415 primitive gaussians,   229 cartesian basis functions
    27 alpha electrons       27 beta electrons
       nuclear repulsion energy       144.8419227859 Hartrees.
 IExCor=    0 DFT=F Ex=HF Corr=None ExCW=0 ScaHFX=  1.000000
 ScaDFX=  1.000000  1.000000  1.000000  1.000000 ScalE2=  1.000000  1.000000
 IRadAn=      5 IRanWt=     -1 IRanGd=            0 ICorTp=0
 NAtoms=    5 NActive=    5 NUniq=    5 SFac= 1.00D+00 NAtFMM=   60 NAOKFM=F Big=F
 Leave Link  301 at Sun Dec  8 23:03:11 2019, MaxMem=  268435456 cpu:       0.0
 (Enter /home/matheus/.gaussian/g09/l302.exe)
 NPDir=0 NMtPBC=     1 NCelOv=     1 NCel=       1 NClECP=     1 NCelD=      1
         NCelK=      1 NCelE2=     1 NClLst=     1 CellRange=     0.0.
 One-electron integrals computed using PRISM.
 NBasis=   197 RedAO= T  NBF=   131    66
 NBsUse=   197 1.00D-06 NBFU=   131    66
 Leave Link  302 at Sun Dec  8 23:03:11 2019, MaxMem=  268435456 cpu:       0.2
 (Enter /home/matheus/.gaussian/g09/l303.exe)
 DipDrv:  MaxL=1.
 Leave Link  303 at Sun Dec  8 23:03:11 2019, MaxMem=  268435456 cpu:       0.0
 (Enter /home/matheus/.gaussian/g09/l401.exe)
 Initial guess read from the read-write file.
 B after Tr=     0.000000    0.000000    0.000000
         Rot=    1.000000    0.000000    0.000000    0.000000 Ang=   0.00 deg.
 Guess basis will be translated and rotated to current coordinates.
 Initial guess orbital symmetries:
       Occupied  (A') (A') (A') (A") (A') (A') (A') (A') (A') (A")
                 (A') (A') (A") (A') (A") (A') (A') (A') (A') (A')
                 (A') (A") (A') (A") (A') (A') (A")
       Virtual   (A') (A') (A') (A") (A') (A') (A') (A') (A") (A')
                 (A") (A') (A') (A") (A') (A') (A") (A') (A') (A')
                 (A") (A') (A') (A") (A') (A') (A') (A') (A") (A')
                 (A') (A') (A") (A') (A") (A') (A") (A') (A") (A')
                 (A") (A') (A') (A') (A") (A') (A') (A") (A") (A')
                 (A') (A') (A") (A') (A") (A') (A') (A") (A') (A')
                 (A') (A") (A") (A") (A') (A') (A') (A') (A") (A')
                 (A') (A") (A") (A') (A') (A') (A') (A") (A') (A')
                 (A") (A') (A') (A") (A") (A') (A') (A") (A') (A")
                 (A') (A') (A") (A') (A') (A') (A") (A') (A") (A')
                 (A") (A') (A") (A") (A') (A') (A") (A') (A") (A')
                 (A') (A") (A') (A') (A') (A') (A') (A") (A') (A')
                 (A') (A") (A") (A") (A') (A") (A') (A") (A') (A")
                 (A') (A') (A') (A') (A') (A') (A') (A') (A") (A")
                 (A') (A') (A') (A") (A') (A') (A") (A') (A") (A')
                 (A") (A') (A") (A") (A") (A") (A') (A") (A') (A')
                 (A') (A") (A') (A') (A') (A') (A') (A') (A') (A')
 The electronic state of the initial guess is 1-A'.
 Generating alternative initial guess.
 Harris functional with IExCor=  205 diagonalized for initial guess.
 ExpMin= 2.53D-02 ExpMax= 1.17D+07 ExpMxC= 1.33D+04 IAcc=3 IRadAn=         5 AccDes= 0.00D+00
 HarFok:  IExCor=  205 AccDes= 0.00D+00 IRadAn=         5 IDoV= 1
 ScaDFX=  1.000000  1.000000  1.000000  1.000000
 FoFCou: FMM=F IPFlag=           0 FMFlag=      100000 FMFlg1=           0
         NFxFlg=           0 DoJE=T BraDBF=F KetDBF=T FulRan=T
         Omega=  0.000000  0.000000  1.000000  0.000000  0.000000 ICntrl=     500 IOpCl=  0
         NMat0=    1 NMatS0=    1 NMatT0=    0 NMatD0=    1 NMtDS0=    0 NMtDT0=    0
         I1Cent=           4 NGrid=           0.
 Petite list used in FoFCou.
 Harris En= -2901.93046473481    
 Leave Link  401 at Sun Dec  8 23:03:11 2019, MaxMem=  268435456 cpu:       0.8
 (Enter /home/matheus/.gaussian/g09/l502.exe)
 Closed shell SCF:
 Requested convergence on RMS density matrix=1.00D-08 within 128 cycles.
 Requested convergence on MAX density matrix=1.00D-06.
 Requested convergence on             energy=1.00D-06.
 No special actions if energy rises.
 Using DIIS extrapolation, IDIIS=  1040.
 Integral symmetry usage will be decided dynamically.
 IEnd=      178554 IEndB=      178554 NGot=   268435456 MDV=   268326213
 LenX=   268326213 LenY=   268273331
 Fock matrices will be formed incrementally for  20 cycles.

 Cycle   1  Pass 0  IDiag  1:
 FoFCou: FMM=F IPFlag=           0 FMFlag=      100000 FMFlg1=           0
         NFxFlg=           0 DoJE=F BraDBF=F KetDBF=F FulRan=T
         Omega=  0.000000  0.000000  1.000000  0.000000  0.000000 ICntrl=       0 IOpCl=  0
         NMat0=    1 NMatS0=    1 NMatT0=    0 NMatD0=    1 NMtDS0=    0 NMtDT0=    0
         I1Cent=           0 NGrid=           0.
 Petite list used in FoFCou.
 E= -2902.87921732601    
 DIIS: error= 6.25D-04 at cycle   1 NSaved=   1.
 NSaved= 1 IEnMin= 1 EnMin= -2902.87921732601     IErMin= 1 ErrMin= 6.25D-04
 ErrMax= 6.25D-04 EMaxC= 1.00D-01 BMatC= 6.84D-05 BMatP= 6.84D-05
 IDIUse=3 WtCom= 9.94D-01 WtEn= 6.25D-03
 Coeff-Com:  0.100D+01
 Coeff-En:   0.100D+01
 Coeff:      0.100D+01
 Gap=     0.493 Goal=   None    Shift=    0.000
 RMSDP=7.51D-05 MaxDP=3.18D-03              OVMax= 2.95D-03

 Cycle   2  Pass 0  IDiag  1:
 RMSU=  5.31D-05    CP:  1.00D+00
 E= -2902.87929820860     Delta-E=       -0.000080882588 Rises=F Damp=F
 DIIS: error= 1.24D-04 at cycle   2 NSaved=   2.
 NSaved= 2 IEnMin= 2 EnMin= -2902.87929820860     IErMin= 2 ErrMin= 1.24D-04
 ErrMax= 1.24D-04 EMaxC= 1.00D-01 BMatC= 2.36D-06 BMatP= 6.84D-05
 IDIUse=3 WtCom= 9.99D-01 WtEn= 1.24D-03
 Coeff-Com: -0.764D-01 0.108D+01
 Coeff-En:   0.000D+00 0.100D+01
 Coeff:     -0.763D-01 0.108D+01
 Gap=     0.491 Goal=   None    Shift=    0.000
 RMSDP=1.40D-05 MaxDP=4.79D-04 DE=-8.09D-05 OVMax= 7.37D-04

 Cycle   3  Pass 0  IDiag  1:
 RMSU=  6.31D-06    CP:  1.00D+00  1.14D+00
 E= -2902.87930166868     Delta-E=       -0.000003460084 Rises=F Damp=F
 DIIS: error= 3.89D-05 at cycle   3 NSaved=   3.
 NSaved= 3 IEnMin= 3 EnMin= -2902.87930166868     IErMin= 3 ErrMin= 3.89D-05
 ErrMax= 3.89D-05 EMaxC= 1.00D-01 BMatC= 3.91D-07 BMatP= 2.36D-06
 IDIUse=1 WtCom= 1.00D+00 WtEn= 0.00D+00
 Coeff-Com: -0.434D-01 0.262D+00 0.781D+00
 Coeff:     -0.434D-01 0.262D+00 0.781D+00
 Gap=     0.492 Goal=   None    Shift=    0.000
 RMSDP=2.68D-06 MaxDP=7.49D-05 DE=-3.46D-06 OVMax= 1.71D-04

 Initial convergence to 1.0D-05 achieved.  Increase integral accuracy.
 Cycle   4  Pass 1  IDiag  1:
 E= -2902.87930203843     Delta-E=       -0.000000369751 Rises=F Damp=F
 DIIS: error= 1.83D-05 at cycle   1 NSaved=   1.
 NSaved= 1 IEnMin= 1 EnMin= -2902.87930203843     IErMin= 1 ErrMin= 1.83D-05
 ErrMax= 1.83D-05 EMaxC= 1.00D-01 BMatC= 4.54D-08 BMatP= 4.54D-08
 IDIUse=1 WtCom= 1.00D+00 WtEn= 0.00D+00
 Coeff-Com:  0.100D+01
 Coeff:      0.100D+01
 Gap=     0.492 Goal=   None    Shift=    0.000
 RMSDP=2.68D-06 MaxDP=7.49D-05 DE=-3.70D-07 OVMax= 1.12D-04

 Cycle   5  Pass 1  IDiag  1:
 RMSU=  9.51D-07    CP:  1.00D+00
 E= -2902.87930209409     Delta-E=       -0.000000055652 Rises=F Damp=F
 DIIS: error= 8.60D-06 at cycle   2 NSaved=   2.
 NSaved= 2 IEnMin= 2 EnMin= -2902.87930209409     IErMin= 2 ErrMin= 8.60D-06
 ErrMax= 8.60D-06 EMaxC= 1.00D-01 BMatC= 1.79D-08 BMatP= 4.54D-08
 IDIUse=1 WtCom= 1.00D+00 WtEn= 0.00D+00
 Coeff-Com:  0.336D+00 0.664D+00
 Coeff:      0.336D+00 0.664D+00
 Gap=     0.492 Goal=   None    Shift=    0.000
 RMSDP=4.14D-07 MaxDP=1.80D-05 DE=-5.57D-08 OVMax= 3.96D-05

 Cycle   6  Pass 1  IDiag  1:
 RMSU=  2.83D-07    CP:  1.00D+00  1.08D+00
 E= -2902.87930211089     Delta-E=       -0.000000016799 Rises=F Damp=F
 DIIS: error= 4.68D-06 at cycle   3 NSaved=   3.
 NSaved= 3 IEnMin= 3 EnMin= -2902.87930211089     IErMin= 3 ErrMin= 4.68D-06
 ErrMax= 4.68D-06 EMaxC= 1.00D-01 BMatC= 2.59D-09 BMatP= 1.79D-08
 IDIUse=1 WtCom= 1.00D+00 WtEn= 0.00D+00
 Coeff-Com: -0.350D+00-0.134D+00 0.148D+01
 Coeff:     -0.350D+00-0.134D+00 0.148D+01
 Gap=     0.492 Goal=   None    Shift=    0.000
 RMSDP=5.24D-07 MaxDP=1.47D-05 DE=-1.68D-08 OVMax= 4.95D-05

 Cycle   7  Pass 1  IDiag  1:
 RMSU=  1.04D-07    CP:  1.00D+00  1.43D+00  1.44D+00
 E= -2902.87930211729     Delta-E=       -0.000000006406 Rises=F Damp=F
 DIIS: error= 4.81D-07 at cycle   4 NSaved=   4.
 NSaved= 4 IEnMin= 4 EnMin= -2902.87930211729     IErMin= 4 ErrMin= 4.81D-07
 ErrMax= 4.81D-07 EMaxC= 1.00D-01 BMatC= 8.48D-11 BMatP= 2.59D-09
 IDIUse=1 WtCom= 1.00D+00 WtEn= 0.00D+00
 Coeff-Com: -0.684D-01-0.316D-01 0.224D+00 0.876D+00
 Coeff:     -0.684D-01-0.316D-01 0.224D+00 0.876D+00
 Gap=     0.492 Goal=   None    Shift=    0.000
 RMSDP=5.33D-08 MaxDP=1.63D-06 DE=-6.41D-09 OVMax= 4.64D-06

 Cycle   8  Pass 1  IDiag  1:
 RMSU=  2.43D-08    CP:  1.00D+00  1.43D+00  1.47D+00  1.26D+00
 E= -2902.87930211745     Delta-E=       -0.000000000160 Rises=F Damp=F
 DIIS: error= 3.69D-07 at cycle   5 NSaved=   5.
 NSaved= 5 IEnMin= 5 EnMin= -2902.87930211745     IErMin= 5 ErrMin= 3.69D-07
 ErrMax= 3.69D-07 EMaxC= 1.00D-01 BMatC= 1.74D-11 BMatP= 8.48D-11
 IDIUse=1 WtCom= 1.00D+00 WtEn= 0.00D+00
 Coeff-Com:  0.698D-01 0.363D-01-0.310D+00-0.539D-01 0.126D+01
 Coeff:      0.698D-01 0.363D-01-0.310D+00-0.539D-01 0.126D+01
 Gap=     0.492 Goal=   None    Shift=    0.000
 RMSDP=3.85D-08 MaxDP=9.69D-07 DE=-1.60D-10 OVMax= 3.22D-06

 Cycle   9  Pass 1  IDiag  1:
 RMSU=  1.05D-08    CP:  1.00D+00  1.43D+00  1.47D+00  1.47D+00  1.40D+00
 E= -2902.87930211748     Delta-E=       -0.000000000033 Rises=F Damp=F
 DIIS: error= 9.98D-08 at cycle   6 NSaved=   6.
 NSaved= 6 IEnMin= 6 EnMin= -2902.87930211748     IErMin= 6 ErrMin= 9.98D-08
 ErrMax= 9.98D-08 EMaxC= 1.00D-01 BMatC= 1.20D-12 BMatP= 1.74D-11
 IDIUse=1 WtCom= 1.00D+00 WtEn= 0.00D+00
 Coeff-Com: -0.828D-02-0.183D-02 0.380D-01-0.543D-01-0.214D+00 0.124D+01
 Coeff:     -0.828D-02-0.183D-02 0.380D-01-0.543D-01-0.214D+00 0.124D+01
 Gap=     0.492 Goal=   None    Shift=    0.000
 RMSDP=9.58D-09 MaxDP=2.37D-07 DE=-3.27D-11 OVMax= 1.13D-06

 SCF Done:  E(RHF) =  -2902.87930212     A.U. after    9 cycles
             Convg  =    0.9575D-08             -V/T =  2.0001
 KE= 2.902606684532D+03 PE=-7.230291810856D+03 EE= 1.279963901421D+03
 Leave Link  502 at Sun Dec  8 23:03:43 2019, MaxMem=  268435456 cpu:      63.9
 (Enter /home/matheus/.gaussian/g09/l801.exe)
 Windowed orbitals will be sorted by symmetry type.
 ExpMin= 2.53D-02 ExpMax= 1.17D+07 ExpMxC= 1.33D+04 IAcc=3 IRadAn=         5 AccDes= 0.00D+00
 HarFok:  IExCor=  205 AccDes= 0.00D+00 IRadAn=         5 IDoV=-2
 ScaDFX=  1.000000  1.000000  1.000000  1.000000
 DSYEVD returned Info=          93 IAlg= 4 N=    46 NDim=    46 NE2=     4547561 trying DSYEV.
 DSYEVD returned Info=          93 IAlg= 4 N=    46 NDim=    46 NE2=     4547561 trying DSYEV.
 DSYEVD returned Info=          89 IAlg= 4 N=    59 NDim=    59 NE2=     4547561 trying DSYEV.
 Largest valence mixing into a core orbital is  1.44D-04
 Largest core mixing into a valence orbital is  2.59D-05
 Range of M.O.s used for correlation:    12   197
 NBasis=   197 NAE=    27 NBE=    27 NFC=    11 NFV=     0
 NROrb=    186 NOA=    16 NOB=    16 NVA=   170 NVB=   170

 **** Warning!!: The largest alpha MO coefficient is  0.13143257D+02

 Leave Link  801 at Sun Dec  8 23:03:43 2019, MaxMem=  268435456 cpu:       0.2
 (Enter /home/matheus/.gaussian/g09/l804.exe)
 Closed-shell transformation, MDV=   268435456 ITran=4 ISComp=2.
 Semi-Direct transformation.
 ModeAB=           2 MOrb=            16 LenV=     267325410
 LASXX=     24518604 LTotXX=    24518604 LenRXX=    24518604
 LTotAB=    24945307 MaxLAS=    78372960 LenRXY=    78372960
 NonZer=    78551520 LenScr=   118603776 LnRSAI=           0
 LnScr1=           0 LExtra=           0 Total=    221495340
 MaxDsk=          -1 SrtSym=           F ITran=            4
 DoSDTr:  NPSUse=  2
 JobTyp=0 Pass  1:  I=   1 to  16.
 (rs|ai) integrals will be sorted in core.
 Complete sort for first half transformation.
 First half transformation complete.
 Begin second half transformation for I=  10.
 Begin second half transformation for I=  10.
 Complete sort for second half transformation.
 Second half transformation complete.
 Spin components of T(2) and E(2):
     alpha-alpha T2 =       0.2582860162D-01 E2=     -0.9960448951D-01
     alpha-beta  T2 =       0.1416238395D+00 E2=     -0.5556093441D+00
     beta-beta   T2 =       0.2582860162D-01 E2=     -0.9960448951D-01
 ANorm=    0.1092374040D+01
 E2 =    -0.7548183231D+00 EUMP2 =    -0.29036341204406D+04
 Leave Link  804 at Sun Dec  8 23:04:05 2019, MaxMem=  268435456 cpu:      43.1
 (Enter /home/matheus/.gaussian/g09/l913.exe)
 CIDS:  MDV=   268435456.
 Frozen-core window:  NFC=  11 NFV=   0.
 IFCWin=0 IBDFC=1 NFBD=     0     0 NFCmp=     0     0 NFFFC=     0     0
 Using DD3R+UMP44R for 1st iteration, S=T.
 Using DD4RQ for 2nd and later iterations.
 Would need an additional       431206676 words for in-memory AO integral storage.
 MP4(SDTQ)
 =========
 DD1Dir will call FoFDir   1 times, MxPair=       272
 NAB=   136 NAA=     0 NBB=     0 NumPrc=  2.
 Petite list used in FoFDir.
 MinBra= 0 MaxBra= 3 Meth= 1.
 IRaf=       0 NMat= 272 IRICut=     340 DoRegI=T DoRafI=T ISym2E=-1 JSym2E=1.
 MP4(D)= -0.14937885D-01
 MP4(S)= -0.63597407D-02
 MP4(R+Q)=  0.15273408D-01
 IPart=  1 IA=   10   10.34% done.
 IPart=  1 IA=   19   20.11% done.
 IPart=  2 IA=   29   30.31% done.
 IPart=  2 IA=   40   40.72% done.
 IPart=  1 IA=   51   50.30% done.
 IPart=  1 IA=   64   60.52% done.
 IPart=  2 IA=   78   70.22% done.
 IPart=  2 IA=   95   80.16% done.
 IPart=  2 IA=  117   90.04% done.
 Time for triples=     1342.92 seconds.
 MP4(T)=   -0.30178241D-01
 E3=       -0.11509939D-01        EUMP3=      -0.29036456304D+04
 E4(DQ)=    0.33552328D-03        UMP4(DQ)=   -0.29036452949D+04
 E4(SDQ)=  -0.60242175D-02        UMP4(SDQ)=  -0.29036516546D+04
 E4(SDTQ)= -0.36202459D-01        UMP4(SDTQ)= -0.29036818328D+04
 VARIATIONAL ENERGIES WITH THE FIRST-ORDER WAVEFUNCTION:
 E(VAR1)=  -0.29035215048D+04     E(CISD,4)=  -0.29035210359D+04
 Largest amplitude= 3.07D-02
 Leave Link  913 at Sun Dec  8 23:15:42 2019, MaxMem=  268435456 cpu:    1393.3
 (Enter /home/matheus/.gaussian/g09/l108.exe)
 Variable Step   Value    
 -------- ---- -----------
     1       2    6.047124
 Leave Link  108 at Sun Dec  8 23:15:42 2019, MaxMem=  268435456 cpu:       0.0
 (Enter /home/matheus/.gaussian/g09/l202.exe)
 ---------------------------------------------------------------------------------------------------
                            Z-MATRIX (ANGSTROMS AND DEGREES)
   CD    Cent   Atom    N1       Length/X        N2       Alpha/Y        N3        Beta/Z          J
 ---------------------------------------------------------------------------------------------------
      1      1  O        0   0.000000          0.000000          0.725000
      2      2  O        0   0.000000          0.000000         -0.725000
      3      3  H        0   0.000000         -0.918721          1.023510
      4      4  H        0   0.000000          0.918721         -1.023510
      5      5  Kr       0   0.000000          3.200000          0.000000
 ---------------------------------------------------------------------------------------------------
                         Z-Matrix orientation:                         
 ---------------------------------------------------------------------
 Center     Atomic      Atomic             Coordinates (Angstroms)
 Number     Number       Type             X           Y           Z
 ---------------------------------------------------------------------
      1          8           0        0.000000    0.000000    0.725000
      2          8           0        0.000000    0.000000   -0.725000
      3          1           0        0.000000   -0.918721    1.023510
      4          1           0        0.000000    0.918721   -1.023510
      5         36           0        0.000000    3.200000    0.000000
 ---------------------------------------------------------------------
                    Distance matrix (angstroms):
                    1          2          3          4          5
     1  O    0.000000
     2  O    1.450000   0.000000
     3  H    0.966000   1.975180   0.000000
     4  H    1.975180   0.966000   2.750724   0.000000
     5  Kr   3.281101   3.281101   4.243988   2.500362   0.000000
 Stoichiometry    H2KrO2
 Framework group  CS[SG(H2KrO2)]
 Deg. of freedom     7
 Full point group                 CS      NOp   2
 RotChk:  IX=0 Diff= 4.63D-49
 Largest Abelian subgroup         CS      NOp   2
 Largest concise Abelian subgroup C1      NOp   1
                         Standard orientation:                         
 ---------------------------------------------------------------------
 Center     Atomic      Atomic             Coordinates (Angstroms)
 Number     Number       Type             X           Y           Z
 ---------------------------------------------------------------------
      1          8           0        0.725000   -2.133333    0.000000
      2          8           0       -0.725000   -2.133333    0.000000
      3          1           0        1.023510   -3.052054    0.000000
      4          1           0       -1.023510   -1.214613    0.000000
      5         36           0        0.000000    1.066667    0.000000
 ---------------------------------------------------------------------
 Rotational constants (GHZ):     26.7246182      2.0254639      1.8827685
 Leave Link  202 at Sun Dec  8 23:15:42 2019, MaxMem=  268435456 cpu:       0.0
 (Enter /home/matheus/.gaussian/g09/l301.exe)
 Standard basis: Aug-CC-pVTZ (5D, 7F)
 Ernie: Thresh=  0.10000D-02 Tol=  0.10000D-05 Strict=F.
 Ernie:  38 primitive shells out of 205 were deleted.
 There are   131 symmetry adapted basis functions of A'  symmetry.
 There are    66 symmetry adapted basis functions of A"  symmetry.
 Integral buffers will be    131072 words long.
 Raffenetti 1 integral format.
 Two-electron integral symmetry is turned on.
   197 basis functions,   415 primitive gaussians,   229 cartesian basis functions
    27 alpha electrons       27 beta electrons
       nuclear repulsion energy       141.6059524159 Hartrees.
 IExCor=    0 DFT=F Ex=HF Corr=None ExCW=0 ScaHFX=  1.000000
 ScaDFX=  1.000000  1.000000  1.000000  1.000000 ScalE2=  1.000000  1.000000
 IRadAn=      5 IRanWt=     -1 IRanGd=            0 ICorTp=0
 NAtoms=    5 NActive=    5 NUniq=    5 SFac= 1.00D+00 NAtFMM=   60 NAOKFM=F Big=F
 Leave Link  301 at Sun Dec  8 23:15:42 2019, MaxMem=  268435456 cpu:       0.0
 (Enter /home/matheus/.gaussian/g09/l302.exe)
 NPDir=0 NMtPBC=     1 NCelOv=     1 NCel=       1 NClECP=     1 NCelD=      1
         NCelK=      1 NCelE2=     1 NClLst=     1 CellRange=     0.0.
 One-electron integrals computed using PRISM.
 NBasis=   197 RedAO= T  NBF=   131    66
 NBsUse=   197 1.00D-06 NBFU=   131    66
 Leave Link  302 at Sun Dec  8 23:15:42 2019, MaxMem=  268435456 cpu:       0.2
 (Enter /home/matheus/.gaussian/g09/l303.exe)
 DipDrv:  MaxL=1.
 Leave Link  303 at Sun Dec  8 23:15:42 2019, MaxMem=  268435456 cpu:       0.0
 (Enter /home/matheus/.gaussian/g09/l401.exe)
 Initial guess read from the read-write file.
 B after Tr=     0.000000    0.000000    0.000000
         Rot=    1.000000    0.000000    0.000000    0.000000 Ang=   0.00 deg.
 Guess basis will be translated and rotated to current coordinates.
 Initial guess orbital symmetries:
       Occupied  (A') (A') (A') (A") (A') (A') (A') (A') (A') (A")
                 (A') (A') (A") (A') (A") (A') (A') (A') (A') (A')
                 (A') (A") (A') (A") (A') (A') (A")
       Virtual   (A') (A') (A') (A") (A') (A') (A') (A') (A") (A')
                 (A") (A') (A') (A") (A') (A') (A") (A') (A') (A')
                 (A") (A') (A') (A") (A') (A') (A') (A') (A") (A')
                 (A') (A') (A") (A') (A") (A') (A") (A') (A") (A')
                 (A") (A') (A') (A') (A") (A') (A') (A") (A") (A')
                 (A') (A') (A") (A') (A") (A') (A') (A') (A") (A')
                 (A") (A') (A") (A") (A') (A') (A') (A') (A") (A')
                 (A') (A") (A") (A') (A') (A') (A') (A") (A') (A')
                 (A") (A') (A') (A") (A") (A') (A') (A") (A') (A")
                 (A') (A') (A") (A') (A') (A') (A") (A') (A") (A')
                 (A") (A') (A") (A') (A") (A') (A") (A') (A") (A')
                 (A') (A") (A') (A') (A') (A') (A') (A") (A') (A')
                 (A') (A") (A") (A") (A') (A") (A') (A") (A') (A")
                 (A') (A') (A') (A') (A') (A') (A') (A') (A") (A")
                 (A') (A') (A') (A") (A') (A') (A") (A') (A") (A')
                 (A') (A") (A") (A") (A") (A") (A') (A") (A') (A')
                 (A') (A") (A') (A') (A') (A') (A') (A') (A') (A')
 The electronic state of the initial guess is 1-A'.
 Generating alternative initial guess.
 Harris functional with IExCor=  205 diagonalized for initial guess.
 ExpMin= 2.53D-02 ExpMax= 1.17D+07 ExpMxC= 1.33D+04 IAcc=3 IRadAn=         5 AccDes= 0.00D+00
 HarFok:  IExCor=  205 AccDes= 0.00D+00 IRadAn=         5 IDoV= 1
 ScaDFX=  1.000000  1.000000  1.000000  1.000000
 FoFCou: FMM=F IPFlag=           0 FMFlag=      100000 FMFlg1=           0
         NFxFlg=           0 DoJE=T BraDBF=F KetDBF=T FulRan=T
         Omega=  0.000000  0.000000  1.000000  0.000000  0.000000 ICntrl=     500 IOpCl=  0
         NMat0=    1 NMatS0=    1 NMatT0=    0 NMatD0=    1 NMtDS0=    0 NMtDT0=    0
         I1Cent=           4 NGrid=           0.
 Petite list used in FoFCou.
 Harris En= -2901.93112173978    
 Leave Link  401 at Sun Dec  8 23:15:42 2019, MaxMem=  268435456 cpu:       0.8
 (Enter /home/matheus/.gaussian/g09/l502.exe)
 Closed shell SCF:
 Requested convergence on RMS density matrix=1.00D-08 within 128 cycles.
 Requested convergence on MAX density matrix=1.00D-06.
 Requested convergence on             energy=1.00D-06.
 No special actions if energy rises.
 Using DIIS extrapolation, IDIIS=  1040.
 Integral symmetry usage will be decided dynamically.
 IEnd=      178554 IEndB=      178554 NGot=   268435456 MDV=   268326213
 LenX=   268326213 LenY=   268273331
 Fock matrices will be formed incrementally for  20 cycles.

 Cycle   1  Pass 0  IDiag  1:
 FoFCou: FMM=F IPFlag=           0 FMFlag=      100000 FMFlg1=           0
         NFxFlg=           0 DoJE=F BraDBF=F KetDBF=F FulRan=T
         Omega=  0.000000  0.000000  1.000000  0.000000  0.000000 ICntrl=       0 IOpCl=  0
         NMat0=    1 NMatS0=    1 NMatT0=    0 NMatD0=    1 NMtDS0=    0 NMtDT0=    0
         I1Cent=           0 NGrid=           0.
 Petite list used in FoFCou.
 E= -2902.88093088795    
 DIIS: error= 5.36D-04 at cycle   1 NSaved=   1.
 NSaved= 1 IEnMin= 1 EnMin= -2902.88093088795     IErMin= 1 ErrMin= 5.36D-04
 ErrMax= 5.36D-04 EMaxC= 1.00D-01 BMatC= 5.14D-05 BMatP= 5.14D-05
 IDIUse=3 WtCom= 9.95D-01 WtEn= 5.36D-03
 Coeff-Com:  0.100D+01
 Coeff-En:   0.100D+01
 Coeff:      0.100D+01
 Gap=     0.493 Goal=   None    Shift=    0.000
 RMSDP=7.00D-05 MaxDP=2.35D-03              OVMax= 2.66D-03

 Cycle   2  Pass 0  IDiag  1:
 RMSU=  4.95D-05    CP:  1.00D+00
 E= -2902.88099185110     Delta-E=       -0.000060963155 Rises=F Damp=F
 DIIS: error= 1.01D-04 at cycle   2 NSaved=   2.
 NSaved= 2 IEnMin= 2 EnMin= -2902.88099185110     IErMin= 2 ErrMin= 1.01D-04
 ErrMax= 1.01D-04 EMaxC= 1.00D-01 BMatC= 1.62D-06 BMatP= 5.14D-05
 IDIUse=3 WtCom= 9.99D-01 WtEn= 1.01D-03
 Coeff-Com: -0.813D-01 0.108D+01
 Coeff-En:   0.000D+00 0.100D+01
 Coeff:     -0.812D-01 0.108D+01
 Gap=     0.492 Goal=   None    Shift=    0.000
 RMSDP=1.23D-05 MaxDP=3.95D-04 DE=-6.10D-05 OVMax= 6.34D-04

 Cycle   3  Pass 0  IDiag  1:
 RMSU=  5.37D-06    CP:  1.00D+00  1.14D+00
 E= -2902.88099437721     Delta-E=       -0.000002526112 Rises=F Damp=F
 DIIS: error= 3.37D-05 at cycle   3 NSaved=   3.
 NSaved= 3 IEnMin= 3 EnMin= -2902.88099437721     IErMin= 3 ErrMin= 3.37D-05
 ErrMax= 3.37D-05 EMaxC= 1.00D-01 BMatC= 2.39D-07 BMatP= 1.62D-06
 IDIUse=1 WtCom= 1.00D+00 WtEn= 0.00D+00
 Coeff-Com: -0.398D-01 0.242D+00 0.798D+00
 Coeff:     -0.398D-01 0.242D+00 0.798D+00
 Gap=     0.492 Goal=   None    Shift=    0.000
 RMSDP=2.29D-06 MaxDP=7.11D-05 DE=-2.53D-06 OVMax= 1.45D-04

 Initial convergence to 1.0D-05 achieved.  Increase integral accuracy.
 Cycle   4  Pass 1  IDiag  1:
 E= -2902.88099461880     Delta-E=       -0.000000241589 Rises=F Damp=F
 DIIS: error= 1.51D-05 at cycle   1 NSaved=   1.
 NSaved= 1 IEnMin= 1 EnMin= -2902.88099461880     IErMin= 1 ErrMin= 1.51D-05
 ErrMax= 1.51D-05 EMaxC= 1.00D-01 BMatC= 3.14D-08 BMatP= 3.14D-08
 IDIUse=1 WtCom= 1.00D+00 WtEn= 0.00D+00
 Coeff-Com:  0.100D+01
 Coeff:      0.100D+01
 Gap=     0.492 Goal=   None    Shift=    0.000
 RMSDP=2.29D-06 MaxDP=7.11D-05 DE=-2.42D-07 OVMax= 9.52D-05

 Cycle   5  Pass 1  IDiag  1:
 RMSU=  8.18D-07    CP:  1.00D+00
 E= -2902.88099465817     Delta-E=       -0.000000039372 Rises=F Damp=F
 DIIS: error= 7.12D-06 at cycle   2 NSaved=   2.
 NSaved= 2 IEnMin= 2 EnMin= -2902.88099465817     IErMin= 2 ErrMin= 7.12D-06
 ErrMax= 7.12D-06 EMaxC= 1.00D-01 BMatC= 1.23D-08 BMatP= 3.14D-08
 IDIUse=1 WtCom= 1.00D+00 WtEn= 0.00D+00
 Coeff-Com:  0.334D+00 0.666D+00
 Coeff:      0.334D+00 0.666D+00
 Gap=     0.492 Goal=   None    Shift=    0.000
 RMSDP=3.47D-07 MaxDP=1.47D-05 DE=-3.94D-08 OVMax= 3.29D-05

 Cycle   6  Pass 1  IDiag  1:
 RMSU=  2.35D-07    CP:  1.00D+00  1.09D+00
 E= -2902.88099466983     Delta-E=       -0.000000011655 Rises=F Damp=F
 DIIS: error= 3.84D-06 at cycle   3 NSaved=   3.
 NSaved= 3 IEnMin= 3 EnMin= -2902.88099466983     IErMin= 3 ErrMin= 3.84D-06
 ErrMax= 3.84D-06 EMaxC= 1.00D-01 BMatC= 1.81D-09 BMatP= 1.23D-08
 IDIUse=1 WtCom= 1.00D+00 WtEn= 0.00D+00
 Coeff-Com: -0.349D+00-0.132D+00 0.148D+01
 Coeff:     -0.349D+00-0.132D+00 0.148D+01
 Gap=     0.492 Goal=   None    Shift=    0.000
 RMSDP=4.45D-07 MaxDP=1.34D-05 DE=-1.17D-08 OVMax= 4.24D-05

 Cycle   7  Pass 1  IDiag  1:
 RMSU=  9.09D-08    CP:  1.00D+00  1.43D+00  1.43D+00
 E= -2902.88099467433     Delta-E=       -0.000000004500 Rises=F Damp=F
 DIIS: error= 4.02D-07 at cycle   4 NSaved=   4.
 NSaved= 4 IEnMin= 4 EnMin= -2902.88099467433     IErMin= 4 ErrMin= 4.02D-07
 ErrMax= 4.02D-07 EMaxC= 1.00D-01 BMatC= 6.41D-11 BMatP= 1.81D-09
 IDIUse=1 WtCom= 1.00D+00 WtEn= 0.00D+00
 Coeff-Com: -0.777D-01-0.361D-01 0.264D+00 0.850D+00
 Coeff:     -0.777D-01-0.361D-01 0.264D+00 0.850D+00
 Gap=     0.492 Goal=   None    Shift=    0.000
 RMSDP=4.49D-08 MaxDP=1.47D-06 DE=-4.50D-09 OVMax= 3.92D-06

 Cycle   8  Pass 1  IDiag  1:
 RMSU=  2.10D-08    CP:  1.00D+00  1.44D+00  1.46D+00  1.24D+00
 E= -2902.88099467444     Delta-E=       -0.000000000112 Rises=F Damp=F
 DIIS: error= 2.89D-07 at cycle   5 NSaved=   5.
 NSaved= 5 IEnMin= 5 EnMin= -2902.88099467444     IErMin= 5 ErrMin= 2.89D-07
 ErrMax= 2.89D-07 EMaxC= 1.00D-01 BMatC= 1.25D-11 BMatP= 6.41D-11
 IDIUse=1 WtCom= 1.00D+00 WtEn= 0.00D+00
 Coeff-Com:  0.750D-01 0.391D-01-0.330D+00-0.815D-01 0.130D+01
 Coeff:      0.750D-01 0.391D-01-0.330D+00-0.815D-01 0.130D+01
 Gap=     0.492 Goal=   None    Shift=    0.000
 RMSDP=3.45D-08 MaxDP=1.05D-06 DE=-1.12D-10 OVMax= 2.81D-06

 Cycle   9  Pass 1  IDiag  1:
 RMSU=  8.91D-09    CP:  1.00D+00  1.43D+00  1.47D+00  1.47D+00  1.41D+00
 E= -2902.88099467448     Delta-E=       -0.000000000035 Rises=F Damp=F
 DIIS: error= 7.85D-08 at cycle   6 NSaved=   6.
 NSaved= 6 IEnMin= 6 EnMin= -2902.88099467448     IErMin= 6 ErrMin= 7.85D-08
 ErrMax= 7.85D-08 EMaxC= 1.00D-01 BMatC= 7.56D-13 BMatP= 1.25D-11
 IDIUse=1 WtCom= 1.00D+00 WtEn= 0.00D+00
 Coeff-Com: -0.216D-01-0.859D-02 0.950D-01-0.254D-01-0.443D+00 0.140D+01
 Coeff:     -0.216D-01-0.859D-02 0.950D-01-0.254D-01-0.443D+00 0.140D+01
 Gap=     0.492 Goal=   None    Shift=    0.000
 RMSDP=8.85D-09 MaxDP=2.25D-07 DE=-3.50D-11 OVMax= 1.01D-06

 SCF Done:  E(RHF) =  -2902.88099467     A.U. after    9 cycles
             Convg  =    0.8852D-08             -V/T =  2.0001
 KE= 2.902593637611D+03 PE=-7.223813079439D+03 EE= 1.276732494737D+03
 Leave Link  502 at Sun Dec  8 23:16:13 2019, MaxMem=  268435456 cpu:      61.7
 (Enter /home/matheus/.gaussian/g09/l801.exe)
 Windowed orbitals will be sorted by symmetry type.
 ExpMin= 2.53D-02 ExpMax= 1.17D+07 ExpMxC= 1.33D+04 IAcc=3 IRadAn=         5 AccDes= 0.00D+00
 HarFok:  IExCor=  205 AccDes= 0.00D+00 IRadAn=         5 IDoV=-2
 ScaDFX=  1.000000  1.000000  1.000000  1.000000
 DSYEVD returned Info=          93 IAlg= 4 N=    46 NDim=    46 NE2=     4547561 trying DSYEV.
 Largest valence mixing into a core orbital is  1.44D-04
 Largest core mixing into a valence orbital is  2.59D-05
 Range of M.O.s used for correlation:    12   197
 NBasis=   197 NAE=    27 NBE=    27 NFC=    11 NFV=     0
 NROrb=    186 NOA=    16 NOB=    16 NVA=   170 NVB=   170

 **** Warning!!: The largest alpha MO coefficient is  0.13029413D+02

 Leave Link  801 at Sun Dec  8 23:16:13 2019, MaxMem=  268435456 cpu:       0.2
 (Enter /home/matheus/.gaussian/g09/l804.exe)
 Closed-shell transformation, MDV=   268435456 ITran=4 ISComp=2.
 Semi-Direct transformation.
 ModeAB=           4 MOrb=            16 LenV=     267326352
 LASXX=     24518604 LTotXX=    24518604 LenRXX=    49463911
 LTotAB=    24945307 MaxLAS=    78349152 LenRXY=           0
 NonZer=    73982515 LenScr=   111731200 LnRSAI=    78349152
 LnScr1=   118292480 LExtra=           0 Total=    357836743
 MaxDsk=          -1 SrtSym=           T ITran=            4
 DoSDTr:  NPSUse=  2
 JobTyp=0 Pass  1:  I=   1 to  16.
 (rs|ai) integrals will be sorted in core.
 Complete sort for first half transformation.
 First half transformation complete.
 Begin second half transformation for I=  10.
 Complete sort for second half transformation.
 Second half transformation complete.
 Spin components of T(2) and E(2):
     alpha-alpha T2 =       0.2576513727D-01 E2=     -0.9938963413D-01
     alpha-beta  T2 =       0.1415342244D+00 E2=     -0.5551115612D+00
     beta-beta   T2 =       0.2576513727D-01 E2=     -0.9938963413D-01
 ANorm=    0.1092274919D+01
 E2 =    -0.7538908295D+00 EUMP2 =    -0.29036348855039D+04
 Leave Link  804 at Sun Dec  8 23:16:30 2019, MaxMem=  268435456 cpu:      33.6
 (Enter /home/matheus/.gaussian/g09/l913.exe)
 CIDS:  MDV=   268435456.
 Frozen-core window:  NFC=  11 NFV=   0.
 IFCWin=0 IBDFC=1 NFBD=     0     0 NFCmp=     0     0 NFFFC=     0     0
 Using DD3R+UMP44R for 1st iteration, S=T.
 Using DD4RQ for 2nd and later iterations.
 Would need an additional       431206676 words for in-memory AO integral storage.
 MP4(SDTQ)
 =========
 DD1Dir will call FoFDir   1 times, MxPair=       272
 NAB=   136 NAA=     0 NBB=     0 NumPrc=  2.
 Petite list used in FoFDir.
 MinBra= 0 MaxBra= 3 Meth= 1.
 IRaf=       0 NMat= 272 IRICut=     340 DoRegI=T DoRafI=T ISym2E=-1 JSym2E=1.
 MP4(D)= -0.14935639D-01
 MP4(S)= -0.63369683D-02
 MP4(R+Q)=  0.15215734D-01
 IPart=  1 IA=   10   10.34% done.
 IPart=  2 IA=   19   20.11% done.
 IPart=  2 IA=   29   30.31% done.
 IPart=  1 IA=   40   40.72% done.
 IPart=  2 IA=   51   50.30% done.
 IPart=  2 IA=   64   60.52% done.
 IPart=  2 IA=   78   70.22% done.
 IPart=  1 IA=   95   80.16% done.
 IPart=  2 IA=  117   90.04% done.
 Time for triples=     1347.14 seconds.
 MP4(T)=   -0.30056260D-01
 E3=       -0.11638423D-01        EUMP3=      -0.29036465239D+04
 E4(DQ)=    0.28009499D-03        UMP4(DQ)=   -0.29036462438D+04
 E4(SDQ)=  -0.60568733D-02        UMP4(SDQ)=  -0.29036525808D+04
 E4(SDTQ)= -0.36113134D-01        UMP4(SDTQ)= -0.29036826371D+04
 VARIATIONAL ENERGIES WITH THE FIRST-ORDER WAVEFUNCTION:
 E(VAR1)=  -0.29035226442D+04     E(CISD,4)=  -0.29035222470D+04
 Largest amplitude= 3.03D-02
 Leave Link  913 at Sun Dec  8 23:28:11 2019, MaxMem=  268435456 cpu:    1398.3
 (Enter /home/matheus/.gaussian/g09/l108.exe)
 Variable Step   Value    
 -------- ---- -----------
     1       3    6.236096
 Leave Link  108 at Sun Dec  8 23:28:11 2019, MaxMem=  268435456 cpu:       0.0
 (Enter /home/matheus/.gaussian/g09/l202.exe)
 ---------------------------------------------------------------------------------------------------
                            Z-MATRIX (ANGSTROMS AND DEGREES)
   CD    Cent   Atom    N1       Length/X        N2       Alpha/Y        N3        Beta/Z          J
 ---------------------------------------------------------------------------------------------------
      1      1  O        0   0.000000          0.000000          0.725000
      2      2  O        0   0.000000          0.000000         -0.725000
      3      3  H        0   0.000000         -0.918721          1.023510
      4      4  H        0   0.000000          0.918721         -1.023510
      5      5  Kr       0   0.000000          3.300000          0.000000
 ---------------------------------------------------------------------------------------------------
                         Z-Matrix orientation:                         
 ---------------------------------------------------------------------
 Center     Atomic      Atomic             Coordinates (Angstroms)
 Number     Number       Type             X           Y           Z
 ---------------------------------------------------------------------
      1          8           0        0.000000    0.000000    0.725000
      2          8           0        0.000000    0.000000   -0.725000
      3          1           0        0.000000   -0.918721    1.023510
      4          1           0        0.000000    0.918721   -1.023510
      5         36           0        0.000000    3.300000    0.000000
 ---------------------------------------------------------------------
                    Distance matrix (angstroms):
                    1          2          3          4          5
     1  O    0.000000
     2  O    1.450000   0.000000
     3  H    0.966000   1.975180   0.000000
     4  H    1.975180   0.966000   2.750724   0.000000
     5  Kr   3.378702   3.378702   4.341103   2.591923   0.000000
 Stoichiometry    H2KrO2
 Framework group  CS[SG(H2KrO2)]
 Deg. of freedom     7
 Full point group                 CS      NOp   2
 RotChk:  IX=0 Diff= 2.45D-18
 Largest Abelian subgroup         CS      NOp   2
 Largest concise Abelian subgroup C1      NOp   1
                         Standard orientation:                         
 ---------------------------------------------------------------------
 Center     Atomic      Atomic             Coordinates (Angstroms)
 Number     Number       Type             X           Y           Z
 ---------------------------------------------------------------------
      1          8           0        0.725000   -2.200000    0.000000
      2          8           0       -0.725000   -2.200000    0.000000
      3          1           0        1.023510   -3.118721    0.000000
      4          1           0       -1.023510   -1.281279    0.000000
      5         36           0        0.000000    1.100000    0.000000
 ---------------------------------------------------------------------
 Rotational constants (GHZ):     26.7232124      1.9053581      1.7785481
 Leave Link  202 at Sun Dec  8 23:28:11 2019, MaxMem=  268435456 cpu:       0.0
 (Enter /home/matheus/.gaussian/g09/l301.exe)
 Standard basis: Aug-CC-pVTZ (5D, 7F)
 Ernie: Thresh=  0.10000D-02 Tol=  0.10000D-05 Strict=F.
 Ernie:  38 primitive shells out of 205 were deleted.
 There are   131 symmetry adapted basis functions of A'  symmetry.
 There are    66 symmetry adapted basis functions of A"  symmetry.
 Integral buffers will be    131072 words long.
 Raffenetti 1 integral format.
 Two-electron integral symmetry is turned on.
   197 basis functions,   415 primitive gaussians,   229 cartesian basis functions
    27 alpha electrons       27 beta electrons
       nuclear repulsion energy       138.5528576611 Hartrees.
 IExCor=    0 DFT=F Ex=HF Corr=None ExCW=0 ScaHFX=  1.000000
 ScaDFX=  1.000000  1.000000  1.000000  1.000000 ScalE2=  1.000000  1.000000
 IRadAn=      5 IRanWt=     -1 IRanGd=            0 ICorTp=0
 NAtoms=    5 NActive=    5 NUniq=    5 SFac= 1.00D+00 NAtFMM=   60 NAOKFM=F Big=F
 Leave Link  301 at Sun Dec  8 23:28:12 2019, MaxMem=  268435456 cpu:       0.0
 (Enter /home/matheus/.gaussian/g09/l302.exe)
 NPDir=0 NMtPBC=     1 NCelOv=     1 NCel=       1 NClECP=     1 NCelD=      1
         NCelK=      1 NCelE2=     1 NClLst=     1 CellRange=     0.0.
 One-electron integrals computed using PRISM.
 NBasis=   197 RedAO= T  NBF=   131    66
 NBsUse=   197 1.00D-06 NBFU=   131    66
 Leave Link  302 at Sun Dec  8 23:28:12 2019, MaxMem=  268435456 cpu:       0.2
 (Enter /home/matheus/.gaussian/g09/l303.exe)
 DipDrv:  MaxL=1.
 Leave Link  303 at Sun Dec  8 23:28:12 2019, MaxMem=  268435456 cpu:       0.1
 (Enter /home/matheus/.gaussian/g09/l401.exe)
 Initial guess read from the read-write file.
 B after Tr=     0.000000    0.000000    0.000000
         Rot=    1.000000    0.000000    0.000000    0.000000 Ang=   0.00 deg.
 Guess basis will be translated and rotated to current coordinates.
 Initial guess orbital symmetries:
       Occupied  (A') (A') (A') (A") (A') (A') (A') (A') (A') (A")
                 (A') (A') (A") (A') (A") (A') (A') (A') (A') (A')
                 (A') (A") (A') (A") (A') (A') (A")
       Virtual   (A') (A') (A') (A") (A') (A') (A') (A') (A") (A')
                 (A") (A') (A') (A") (A') (A') (A") (A') (A') (A')
                 (A") (A') (A') (A") (A') (A') (A') (A') (A") (A')
                 (A') (A') (A") (A') (A") (A') (A") (A') (A") (A')
                 (A") (A') (A') (A') (A") (A') (A') (A") (A") (A')
                 (A') (A') (A") (A') (A") (A') (A') (A') (A") (A')
                 (A") (A') (A") (A") (A') (A') (A') (A') (A") (A')
                 (A') (A") (A") (A') (A') (A') (A') (A") (A') (A')
                 (A") (A') (A') (A") (A") (A') (A') (A") (A') (A")
                 (A') (A') (A') (A") (A') (A') (A") (A") (A') (A')
                 (A") (A') (A") (A') (A") (A') (A") (A') (A') (A")
                 (A') (A") (A') (A') (A') (A') (A') (A") (A') (A')
                 (A') (A") (A") (A") (A') (A") (A') (A") (A') (A")
                 (A') (A') (A') (A') (A') (A') (A') (A') (A") (A")
                 (A') (A') (A') (A") (A') (A') (A") (A') (A") (A')
                 (A') (A") (A") (A") (A") (A") (A') (A") (A') (A')
                 (A') (A") (A') (A') (A') (A') (A') (A') (A') (A')
 The electronic state of the initial guess is 1-A'.
 Generating alternative initial guess.
 Harris functional with IExCor=  205 diagonalized for initial guess.
 ExpMin= 2.53D-02 ExpMax= 1.17D+07 ExpMxC= 1.33D+04 IAcc=3 IRadAn=         5 AccDes= 0.00D+00
 HarFok:  IExCor=  205 AccDes= 0.00D+00 IRadAn=         5 IDoV= 1
 ScaDFX=  1.000000  1.000000  1.000000  1.000000
 FoFCou: FMM=F IPFlag=           0 FMFlag=      100000 FMFlg1=           0
         NFxFlg=           0 DoJE=T BraDBF=F KetDBF=T FulRan=T
         Omega=  0.000000  0.000000  1.000000  0.000000  0.000000 ICntrl=     500 IOpCl=  0
         NMat0=    1 NMatS0=    1 NMatT0=    0 NMatD0=    1 NMtDS0=    0 NMtDT0=    0
         I1Cent=           4 NGrid=           0.
 Petite list used in FoFCou.
 Harris En= -2901.93150968150    
 Leave Link  401 at Sun Dec  8 23:28:12 2019, MaxMem=  268435456 cpu:       0.8
 (Enter /home/matheus/.gaussian/g09/l502.exe)
 Closed shell SCF:
 Requested convergence on RMS density matrix=1.00D-08 within 128 cycles.
 Requested convergence on MAX density matrix=1.00D-06.
 Requested convergence on             energy=1.00D-06.
 No special actions if energy rises.
 Using DIIS extrapolation, IDIIS=  1040.
 Integral symmetry usage will be decided dynamically.
 IEnd=      178554 IEndB=      178554 NGot=   268435456 MDV=   268326213
 LenX=   268326213 LenY=   268273331
 Fock matrices will be formed incrementally for  20 cycles.

 Cycle   1  Pass 0  IDiag  1:
 FoFCou: FMM=F IPFlag=           0 FMFlag=      100000 FMFlg1=           0
         NFxFlg=           0 DoJE=F BraDBF=F KetDBF=F FulRan=T
         Omega=  0.000000  0.000000  1.000000  0.000000  0.000000 ICntrl=       0 IOpCl=  0
         NMat0=    1 NMatS0=    1 NMatT0=    0 NMatD0=    1 NMtDS0=    0 NMtDT0=    0
         I1Cent=           0 NGrid=           0.
 Petite list used in FoFCou.
 E= -2902.88214072167    
 DIIS: error= 4.60D-04 at cycle   1 NSaved=   1.
 NSaved= 1 IEnMin= 1 EnMin= -2902.88214072167     IErMin= 1 ErrMin= 4.60D-04
 ErrMax= 4.60D-04 EMaxC= 1.00D-01 BMatC= 3.87D-05 BMatP= 3.87D-05
 IDIUse=3 WtCom= 9.95D-01 WtEn= 4.60D-03
 Coeff-Com:  0.100D+01
 Coeff-En:   0.100D+01
 Coeff:      0.100D+01
 Gap=     0.493 Goal=   None    Shift=    0.000
 RMSDP=6.52D-05 MaxDP=1.63D-03              OVMax= 2.38D-03

 Cycle   2  Pass 0  IDiag  1:
 RMSU=  4.61D-05    CP:  1.00D+00
 E= -2902.88218673738     Delta-E=       -0.000046015715 Rises=F Damp=F
 DIIS: error= 8.93D-05 at cycle   2 NSaved=   2.
 NSaved= 2 IEnMin= 2 EnMin= -2902.88218673738     IErMin= 2 ErrMin= 8.93D-05
 ErrMax= 8.93D-05 EMaxC= 1.00D-01 BMatC= 1.13D-06 BMatP= 3.87D-05
 IDIUse=1 WtCom= 1.00D+00 WtEn= 0.00D+00
 Coeff-Com: -0.846D-01 0.108D+01
 Coeff:     -0.846D-01 0.108D+01
 Gap=     0.492 Goal=   None    Shift=    0.000
 RMSDP=1.09D-05 MaxDP=3.18D-04 DE=-4.60D-05 OVMax= 5.41D-04

 Cycle   3  Pass 0  IDiag  1:
 RMSU=  4.70D-06    CP:  1.00D+00  1.13D+00
 E= -2902.88218858701     Delta-E=       -0.000001849627 Rises=F Damp=F
 DIIS: error= 2.86D-05 at cycle   3 NSaved=   3.
 NSaved= 3 IEnMin= 3 EnMin= -2902.88218858701     IErMin= 3 ErrMin= 2.86D-05
 ErrMax= 2.86D-05 EMaxC= 1.00D-01 BMatC= 1.45D-07 BMatP= 1.13D-06
 IDIUse=1 WtCom= 1.00D+00 WtEn= 0.00D+00
 Coeff-Com: -0.359D-01 0.217D+00 0.819D+00
 Coeff:     -0.359D-01 0.217D+00 0.819D+00
 Gap=     0.492 Goal=   None    Shift=    0.000
 RMSDP=2.00D-06 MaxDP=6.49D-05 DE=-1.85D-06 OVMax= 1.25D-04

 Initial convergence to 1.0D-05 achieved.  Increase integral accuracy.
 Cycle   4  Pass 1  IDiag  1:
 E= -2902.88218874649     Delta-E=       -0.000000159483 Rises=F Damp=F
 DIIS: error= 1.23D-05 at cycle   1 NSaved=   1.
 NSaved= 1 IEnMin= 1 EnMin= -2902.88218874649     IErMin= 1 ErrMin= 1.23D-05
 ErrMax= 1.23D-05 EMaxC= 1.00D-01 BMatC= 2.14D-08 BMatP= 2.14D-08
 IDIUse=1 WtCom= 1.00D+00 WtEn= 0.00D+00
 Coeff-Com:  0.100D+01
 Coeff:      0.100D+01
 Gap=     0.492 Goal=   None    Shift=    0.000
 RMSDP=2.00D-06 MaxDP=6.49D-05 DE=-1.59D-07 OVMax= 8.03D-05

 Cycle   5  Pass 1  IDiag  1:
 RMSU=  6.95D-07    CP:  1.00D+00
 E= -2902.88218877393     Delta-E=       -0.000000027440 Rises=F Damp=F
 DIIS: error= 6.03D-06 at cycle   2 NSaved=   2.
 NSaved= 2 IEnMin= 2 EnMin= -2902.88218877393     IErMin= 2 ErrMin= 6.03D-06
 ErrMax= 6.03D-06 EMaxC= 1.00D-01 BMatC= 8.34D-09 BMatP= 2.14D-08
 IDIUse=1 WtCom= 1.00D+00 WtEn= 0.00D+00
 Coeff-Com:  0.332D+00 0.668D+00
 Coeff:      0.332D+00 0.668D+00
 Gap=     0.492 Goal=   None    Shift=    0.000
 RMSDP=2.88D-07 MaxDP=1.19D-05 DE=-2.74D-08 OVMax= 2.72D-05

 Cycle   6  Pass 1  IDiag  1:
 RMSU=  1.93D-07    CP:  1.00D+00  1.09D+00
 E= -2902.88218878192     Delta-E=       -0.000000007984 Rises=F Damp=F
 DIIS: error= 3.12D-06 at cycle   3 NSaved=   3.
 NSaved= 3 IEnMin= 3 EnMin= -2902.88218878192     IErMin= 3 ErrMin= 3.12D-06
 ErrMax= 3.12D-06 EMaxC= 1.00D-01 BMatC= 1.24D-09 BMatP= 8.34D-09
 IDIUse=1 WtCom= 1.00D+00 WtEn= 0.00D+00
 Coeff-Com: -0.346D+00-0.128D+00 0.147D+01
 Coeff:     -0.346D+00-0.128D+00 0.147D+01
 Gap=     0.492 Goal=   None    Shift=    0.000
 RMSDP=3.71D-07 MaxDP=1.18D-05 DE=-7.98D-09 OVMax= 3.57D-05

 Cycle   7  Pass 1  IDiag  1:
 RMSU=  7.94D-08    CP:  1.00D+00  1.43D+00  1.42D+00
 E= -2902.88218878504     Delta-E=       -0.000000003127 Rises=F Damp=F
 DIIS: error= 3.63D-07 at cycle   4 NSaved=   4.
[...]
     1  O    0.000000
     2  O    1.450000   0.000000
     3  H    0.966000   1.975180   0.000000
     4  H    1.975180   0.966000   2.750724   0.000000
     5  Kr   5.052289   5.052289   6.006565   4.207661   0.000000
 Stoichiometry    H2KrO2
 Framework group  CS[SG(H2KrO2)]
 Deg. of freedom     7
 Full point group                 CS      NOp   2
 RotChk:  IX=0 Diff= 4.82D-49
 Largest Abelian subgroup         CS      NOp   2
 Largest concise Abelian subgroup C1      NOp   1
                         Standard orientation:                         
 ---------------------------------------------------------------------
 Center     Atomic      Atomic             Coordinates (Angstroms)
 Number     Number       Type             X           Y           Z
 ---------------------------------------------------------------------
      1          8           0        0.725000   -3.333333    0.000000
      2          8           0       -0.725000   -3.333333    0.000000
      3          1           0        1.023510   -4.252054    0.000000
      4          1           0       -1.023510   -2.414613    0.000000
      5         36           0        0.000000    1.666667    0.000000
 ---------------------------------------------------------------------
 Rotational constants (GHZ):     26.7112457      0.8330271      0.8078337
 Leave Link  202 at Mon Dec  9 03:05:39 2019, MaxMem=  268435456 cpu:       0.0
 (Enter /home/matheus/.gaussian/g09/l301.exe)
 Standard basis: Aug-CC-pVTZ (5D, 7F)
 Ernie: Thresh=  0.10000D-02 Tol=  0.10000D-05 Strict=F.
 Ernie:  38 primitive shells out of 205 were deleted.
 There are   131 symmetry adapted basis functions of A'  symmetry.
 There are    66 symmetry adapted basis functions of A"  symmetry.
 Integral buffers will be    131072 words long.
 Raffenetti 1 integral format.
 Two-electron integral symmetry is turned on.
   197 basis functions,   415 primitive gaussians,   229 cartesian basis functions
    27 alpha electrons       27 beta electrons
       nuclear repulsion energy       104.6300486683 Hartrees.
 IExCor=    0 DFT=F Ex=HF Corr=None ExCW=0 ScaHFX=  1.000000
 ScaDFX=  1.000000  1.000000  1.000000  1.000000 ScalE2=  1.000000  1.000000
 IRadAn=      5 IRanWt=     -1 IRanGd=            0 ICorTp=0
 NAtoms=    5 NActive=    5 NUniq=    5 SFac= 1.00D+00 NAtFMM=   60 NAOKFM=F Big=F
 Leave Link  301 at Mon Dec  9 03:05:39 2019, MaxMem=  268435456 cpu:       0.0
 (Enter /home/matheus/.gaussian/g09/l302.exe)
 NPDir=0 NMtPBC=     1 NCelOv=     1 NCel=       1 NClECP=     1 NCelD=      1
         NCelK=      1 NCelE2=     1 NClLst=     1 CellRange=     0.0.
 One-electron integrals computed using PRISM.
 NBasis=   197 RedAO= T  NBF=   131    66
 NBsUse=   197 1.00D-06 NBFU=   131    66
 Leave Link  302 at Mon Dec  9 03:05:39 2019, MaxMem=  268435456 cpu:       0.2
 (Enter /home/matheus/.gaussian/g09/l303.exe)
 DipDrv:  MaxL=1.
 Leave Link  303 at Mon Dec  9 03:05:39 2019, MaxMem=  268435456 cpu:       0.0
 (Enter /home/matheus/.gaussian/g09/l401.exe)
 Initial guess read from the read-write file.
 B after Tr=     0.000000    0.000000    0.000000
         Rot=    1.000000    0.000000    0.000000    0.000000 Ang=   0.00 deg.
 Guess basis will be translated and rotated to current coordinates.
 Initial guess orbital symmetries:
       Occupied  (A') (A') (A') (A") (A') (A') (A') (A') (A') (A")
                 (A') (A') (A") (A') (A") (A') (A') (A') (A') (A')
                 (A') (A") (A') (A') (A") (A') (A")
       Virtual   (A') (A') (A') (A") (A') (A') (A') (A') (A') (A")
                 (A') (A') (A") (A") (A') (A') (A') (A") (A') (A")
                 (A') (A") (A') (A') (A') (A') (A') (A') (A") (A')
                 (A') (A') (A') (A") (A") (A') (A') (A') (A") (A")
                 (A') (A') (A") (A') (A") (A') (A') (A") (A') (A")
                 (A') (A') (A') (A") (A') (A") (A') (A') (A') (A")
                 (A') (A") (A') (A") (A') (A') (A") (A') (A") (A')
                 (A') (A') (A") (A") (A') (A') (A') (A") (A') (A')
                 (A") (A') (A') (A") (A") (A') (A') (A") (A') (A')
                 (A") (A') (A') (A") (A') (A") (A') (A') (A') (A")
                 (A') (A') (A") (A') (A") (A") (A') (A') (A") (A')
                 (A") (A') (A") (A') (A') (A') (A') (A') (A") (A')
                 (A') (A') (A") (A") (A") (A') (A") (A') (A") (A')
                 (A") (A') (A') (A') (A') (A') (A') (A') (A") (A")
                 (A') (A') (A') (A") (A') (A') (A") (A') (A") (A')
                 (A') (A") (A") (A") (A") (A") (A') (A') (A") (A')
                 (A') (A') (A") (A') (A') (A') (A') (A') (A') (A')
 The electronic state of the initial guess is 1-A'.
 Generating alternative initial guess.
 Harris functional with IExCor=  205 diagonalized for initial guess.
 ExpMin= 2.53D-02 ExpMax= 1.17D+07 ExpMxC= 1.33D+04 IAcc=3 IRadAn=         5 AccDes= 0.00D+00
 HarFok:  IExCor=  205 AccDes= 0.00D+00 IRadAn=         5 IDoV= 1
 ScaDFX=  1.000000  1.000000  1.000000  1.000000
 FoFCou: FMM=F IPFlag=           0 FMFlag=      100000 FMFlg1=           0
         NFxFlg=           0 DoJE=T BraDBF=F KetDBF=T FulRan=T
         Omega=  0.000000  0.000000  1.000000  0.000000  0.000000 ICntrl=     500 IOpCl=  0
         NMat0=    1 NMatS0=    1 NMatT0=    0 NMatD0=    1 NMtDS0=    0 NMtDT0=    0
         I1Cent=           4 NGrid=           0.
 Petite list used in FoFCou.
 Harris En= -2901.93150513877    
 Leave Link  401 at Mon Dec  9 03:05:39 2019, MaxMem=  268435456 cpu:       0.8
 (Enter /home/matheus/.gaussian/g09/l502.exe)
 Closed shell SCF:
 Requested convergence on RMS density matrix=1.00D-08 within 128 cycles.
 Requested convergence on MAX density matrix=1.00D-06.
 Requested convergence on             energy=1.00D-06.
 No special actions if energy rises.
 Using DIIS extrapolation, IDIIS=  1040.
 Integral symmetry usage will be decided dynamically.
 IEnd=      178554 IEndB=      178554 NGot=   268435456 MDV=   268326213
 LenX=   268326213 LenY=   268273331
 Fock matrices will be formed incrementally for  20 cycles.

 Cycle   1  Pass 0  IDiag  1:
 FoFCou: FMM=F IPFlag=           0 FMFlag=      100000 FMFlg1=           0
         NFxFlg=           0 DoJE=F BraDBF=F KetDBF=F FulRan=T
         Omega=  0.000000  0.000000  1.000000  0.000000  0.000000 ICntrl=       0 IOpCl=  0
         NMat0=    1 NMatS0=    1 NMatT0=    0 NMatD0=    1 NMtDS0=    0 NMtDT0=    0
         I1Cent=           0 NGrid=           0.
 Petite list used in FoFCou.
 E= -2902.88481694114    
 DIIS: error= 3.94D-05 at cycle   1 NSaved=   1.
 NSaved= 1 IEnMin= 1 EnMin= -2902.88481694114     IErMin= 1 ErrMin= 3.94D-05
 ErrMax= 3.94D-05 EMaxC= 1.00D-01 BMatC= 5.19D-07 BMatP= 5.19D-07
 IDIUse=1 WtCom= 1.00D+00 WtEn= 0.00D+00
 Coeff-Com:  0.100D+01
 Coeff:      0.100D+01
 Gap=     0.494 Goal=   None    Shift=    0.000
 RMSDP=2.33D-05 MaxDP=9.45D-04              OVMax= 3.01D-04

 Cycle   2  Pass 0  IDiag  1:
 RMSU=  1.65D-05    CP:  1.00D+00
 E= -2902.88481747984     Delta-E=       -0.000000538700 Rises=F Damp=F
 DIIS: error= 7.73D-06 at cycle   2 NSaved=   2.
 NSaved= 2 IEnMin= 2 EnMin= -2902.88481747984     IErMin= 2 ErrMin= 7.73D-06
 ErrMax= 7.73D-06 EMaxC= 1.00D-01 BMatC= 1.21D-08 BMatP= 5.19D-07
 IDIUse=1 WtCom= 1.00D+00 WtEn= 0.00D+00
 Coeff-Com: -0.308D-01 0.103D+01
 Coeff:     -0.308D-01 0.103D+01
 Gap=     0.494 Goal=   None    Shift=    0.000
 RMSDP=2.35D-06 MaxDP=9.55D-05 DE=-5.39D-07 OVMax= 5.20D-05

 Initial convergence to 1.0D-05 achieved.  Increase integral accuracy.
 Cycle   3  Pass 1  IDiag  1:
 E= -2902.88481749656     Delta-E=       -0.000000016717 Rises=F Damp=F
 DIIS: error= 3.55D-06 at cycle   1 NSaved=   1.
 NSaved= 1 IEnMin= 1 EnMin= -2902.88481749656     IErMin= 1 ErrMin= 3.55D-06
 ErrMax= 3.55D-06 EMaxC= 1.00D-01 BMatC= 1.12D-09 BMatP= 1.12D-09
 IDIUse=1 WtCom= 1.00D+00 WtEn= 0.00D+00
 Coeff-Com:  0.100D+01
 Coeff:      0.100D+01
 Gap=     0.494 Goal=   None    Shift=    0.000
 RMSDP=2.35D-06 MaxDP=9.55D-05 DE=-1.67D-08 OVMax= 1.96D-05

 Cycle   4  Pass 1  IDiag  1:
 RMSU=  1.88D-07    CP:  1.00D+00
 E= -2902.88481749790     Delta-E=       -0.000000001334 Rises=F Damp=F
 DIIS: error= 1.21D-06 at cycle   2 NSaved=   2.
 NSaved= 2 IEnMin= 2 EnMin= -2902.88481749790     IErMin= 2 ErrMin= 1.21D-06
 ErrMax= 1.21D-06 EMaxC= 1.00D-01 BMatC= 2.93D-10 BMatP= 1.12D-09
 IDIUse=1 WtCom= 1.00D+00 WtEn= 0.00D+00
 Coeff-Com:  0.293D+00 0.707D+00
 Coeff:      0.293D+00 0.707D+00
 Gap=     0.494 Goal=   None    Shift=    0.000
 RMSDP=6.22D-08 MaxDP=1.97D-06 DE=-1.33D-09 OVMax= 3.53D-06

 Cycle   5  Pass 1  IDiag  1:
 RMSU=  4.07D-08    CP:  1.00D+00  1.09D+00
 E= -2902.88481749813     Delta-E=       -0.000000000238 Rises=F Damp=F
 DIIS: error= 4.49D-07 at cycle   3 NSaved=   3.
 NSaved= 3 IEnMin= 3 EnMin= -2902.88481749813     IErMin= 3 ErrMin= 4.49D-07
 ErrMax= 4.49D-07 EMaxC= 1.00D-01 BMatC= 2.79D-11 BMatP= 2.93D-10
 IDIUse=1 WtCom= 1.00D+00 WtEn= 0.00D+00
 Coeff-Com: -0.586D-01 0.100D+00 0.958D+00
 Coeff:     -0.586D-01 0.100D+00 0.958D+00
 Gap=     0.494 Goal=   None    Shift=    0.000
 RMSDP=3.56D-08 MaxDP=1.65D-06 DE=-2.38D-10 OVMax= 3.00D-06

 Cycle   6  Pass 1  IDiag  1:
 RMSU=  1.41D-08    CP:  1.00D+00  1.20D+00  1.12D+00
 E= -2902.88481749819     Delta-E=       -0.000000000053 Rises=F Damp=F
 DIIS: error= 1.80D-07 at cycle   4 NSaved=   4.
 NSaved= 4 IEnMin= 4 EnMin= -2902.88481749819     IErMin= 4 ErrMin= 1.80D-07
 ErrMax= 1.80D-07 EMaxC= 1.00D-01 BMatC= 3.43D-12 BMatP= 2.79D-11
 IDIUse=1 WtCom= 1.00D+00 WtEn= 0.00D+00
 Coeff-Com: -0.584D-01-0.986D-01 0.175D+00 0.982D+00
 Coeff:     -0.584D-01-0.986D-01 0.175D+00 0.982D+00
 Gap=     0.494 Goal=   None    Shift=    0.000
 RMSDP=1.43D-08 MaxDP=7.26D-07 DE=-5.28D-11 OVMax= 1.59D-06

 Cycle   7  Pass 1  IDiag  1:
 RMSU=  3.97D-09    CP:  1.00D+00  1.24D+00  1.24D+00  1.21D+00
 E= -2902.88481749819     Delta-E=        0.000000000000 Rises=F Damp=F
 DIIS: error= 2.75D-08 at cycle   5 NSaved=   5.
 NSaved= 5 IEnMin= 4 EnMin= -2902.88481749819     IErMin= 5 ErrMin= 2.75D-08
 ErrMax= 2.75D-08 EMaxC= 1.00D-01 BMatC= 6.46D-14 BMatP= 3.43D-12
 IDIUse=1 WtCom= 1.00D+00 WtEn= 0.00D+00
 Coeff-Com:  0.396D-02 0.360D-02-0.257D-01-0.681D-01 0.109D+01
 Coeff:      0.396D-02 0.360D-02-0.257D-01-0.681D-01 0.109D+01
 Gap=     0.494 Goal=   None    Shift=    0.000
 RMSDP=1.98D-09 MaxDP=5.01D-08 DE= 0.00D+00 OVMax= 1.57D-07

 SCF Done:  E(RHF) =  -2902.88481750     A.U. after    7 cycles
             Convg  =    0.1977D-08             -V/T =  2.0001
 KE= 2.902563758502D+03 PE=-7.149977407867D+03 EE= 1.239898783199D+03
 Leave Link  502 at Mon Dec  9 03:05:57 2019, MaxMem=  268435456 cpu:      35.9
 (Enter /home/matheus/.gaussian/g09/l801.exe)
 Windowed orbitals will be sorted by symmetry type.
 ExpMin= 2.53D-02 ExpMax= 1.17D+07 ExpMxC= 1.33D+04 IAcc=3 IRadAn=         5 AccDes= 0.00D+00
 HarFok:  IExCor=  205 AccDes= 0.00D+00 IRadAn=         5 IDoV=-2
 ScaDFX=  1.000000  1.000000  1.000000  1.000000
 DSYEVD returned Info=          93 IAlg= 4 N=    46 NDim=    46 NE2=     4547561 trying DSYEV.
 DSYEVD returned Info=          93 IAlg= 4 N=    46 NDim=    46 NE2=     4547561 trying DSYEV.
 DSYEVD returned Info=          89 IAlg= 4 N=    59 NDim=    59 NE2=     4547561 trying DSYEV.
 Largest valence mixing into a core orbital is  1.47D-04
 Largest core mixing into a valence orbital is  2.60D-05
 Range of M.O.s used for correlation:    12   197
 NBasis=   197 NAE=    27 NBE=    27 NFC=    11 NFV=     0
 NROrb=    186 NOA=    16 NOB=    16 NVA=   170 NVB=   170

 **** Warning!!: The largest alpha MO coefficient is  0.14111505D+02

 Leave Link  801 at Mon Dec  9 03:05:57 2019, MaxMem=  268435456 cpu:       0.2
 (Enter /home/matheus/.gaussian/g09/l804.exe)
 Closed-shell transformation, MDV=   268435456 ITran=4 ISComp=2.
 Semi-Direct transformation.
 ModeAB=           4 MOrb=            16 LenV=     267348786
 LASXX=     24518604 LTotXX=    24518604 LenRXX=    49463911
 LTotAB=    24945307 MaxLAS=    72153120 LenRXY=           0
 NonZer=    73982515 LenScr=   111731200 LnRSAI=    72153120
 LnScr1=   108983296 LExtra=           0 Total=    342331527
 MaxDsk=          -1 SrtSym=           T ITran=            4
 DoSDTr:  NPSUse=  2
 JobTyp=0 Pass  1:  I=   1 to  16.
 (rs|ai) integrals will be sorted in core.
 Complete sort for first half transformation.
 First half transformation complete.
 Begin second half transformation for I=  10.
 Complete sort for second half transformation.
 Second half transformation complete.
 Spin components of T(2) and E(2):
     alpha-alpha T2 =       0.2540988919D-01 E2=     -0.9826946800D-01
     alpha-beta  T2 =       0.1409005714D+00 E2=     -0.5522733804D+00
     beta-beta   T2 =       0.2540988919D-01 E2=     -0.9826946800D-01
 ANorm=    0.1091659448D+01
 E2 =    -0.7488123164D+00 EUMP2 =    -0.29036336298146D+04
 Leave Link  804 at Mon Dec  9 03:06:13 2019, MaxMem=  268435456 cpu:      31.4
 (Enter /home/matheus/.gaussian/g09/l913.exe)
 CIDS:  MDV=   268435456.
 Frozen-core window:  NFC=  11 NFV=   0.
 IFCWin=0 IBDFC=1 NFBD=     0     0 NFCmp=     0     0 NFFFC=     0     0
 Using DD3R+UMP44R for 1st iteration, S=T.
 Using DD4RQ for 2nd and later iterations.
 Would need an additional       431206676 words for in-memory AO integral storage.
 MP4(SDTQ)
 =========
 DD1Dir will call FoFDir   1 times, MxPair=       272
 NAB=   136 NAA=     0 NBB=     0 NumPrc=  2.
 Petite list used in FoFDir.
 MinBra= 0 MaxBra= 3 Meth= 1.
 IRaf=       0 NMat= 272 IRICut=     340 DoRegI=T DoRafI=T ISym2E=-1 JSym2E=1.
 MP4(D)= -0.14918257D-01
 MP4(S)= -0.62023113D-02
 MP4(R+Q)=  0.14912331D-01
 IPart=  2 IA=   10   10.34% done.
 IPart=  2 IA=   19   20.11% done.
 IPart=  1 IA=   29   30.31% done.
 IPart=  2 IA=   40   40.72% done.
 IPart=  2 IA=   51   50.30% done.
 IPart=  1 IA=   64   60.52% done.
 IPart=  1 IA=   78   70.22% done.
 IPart=  2 IA=   95   80.16% done.
 IPart=  1 IA=  117   90.04% done.
 Time for triples=     1415.92 seconds.
 MP4(T)=   -0.29395259D-01
 E3=       -0.12207658D-01        EUMP3=      -0.29036458375D+04
 E4(DQ)=   -0.59251893D-05        UMP4(DQ)=   -0.29036458434D+04
 E4(SDQ)=  -0.62082365D-02        UMP4(SDQ)=  -0.29036520457D+04
 E4(SDTQ)= -0.35603495D-01        UMP4(SDTQ)= -0.29036814410D+04
 VARIATIONAL ENERGIES WITH THE FIRST-ORDER WAVEFUNCTION:
 E(VAR1)=  -0.29035234069D+04     E(CISD,4)=  -0.29035233955D+04
 Largest amplitude= 2.73D-02
 Leave Link  913 at Mon Dec  9 03:18:24 2019, MaxMem=  268435456 cpu:    1461.6
 (Enter /home/matheus/.gaussian/g09/l108.exe)
 Scan completed.

 Summary of the potential surface scan:
   N      R1          SCF          MP2          MP3         MP4DQ       MP4SDQ       MP4SDTQ  
 ----  ---------  -----------  -----------  -----------  -----------  -----------  -----------
    1     3.0000  -2902.87692  -2903.63283  -2903.64417  -2903.64377  -2903.65016  -2903.68048
    2     3.1000  -2902.87930  -2903.63412  -2903.64563  -2903.64529  -2903.65165  -2903.68183
    3     3.2000  -2902.88099  -2903.63489  -2903.64652  -2903.64624  -2903.65258  -2903.68264
    4     3.3000  -2902.88219  -2903.63529  -2903.64703  -2903.64680  -2903.65311  -2903.68306
    5     3.4000  -2902.88303  -2903.63544  -2903.64727  -2903.64708  -2903.65338  -2903.68324
    6     3.5000  -2902.88361  -2903.63544  -2903.64733  -2903.64718  -2903.65346  -2903.68325
    7     3.6000  -2902.88401  -2903.63535  -2903.64729  -2903.64716  -2903.65344  -2903.68316
    8     3.7000  -2902.88429  -2903.63520  -2903.64719  -2903.64708  -2903.65334  -2903.68301
    9     3.8000  -2902.88448  -2903.63502  -2903.64705  -2903.64697  -2903.65322  -2903.68284
   10     3.9000  -2902.88460  -2903.63484  -2903.64690  -2903.64683  -2903.65308  -2903.68266
   11     4.0000  -2902.88469  -2903.63467  -2903.64675  -2903.64670  -2903.65294  -2903.68248
   12     4.1000  -2902.88474  -2903.63450  -2903.64661  -2903.64657  -2903.65280  -2903.68232
   13     4.2000  -2902.88477  -2903.63435  -2903.64648  -2903.64645  -2903.65267  -2903.68217
   14     4.3000  -2902.88480  -2903.63422  -2903.64636  -2903.64634  -2903.65256  -2903.68203
   15     4.4000  -2902.88481  -2903.63410  -2903.64626  -2903.64624  -2903.65246  -2903.68191
   16     4.5000  -2902.88482  -2903.63400  -2903.64616  -2903.64615  -2903.65237  -2903.68181
   17     4.6000  -2902.88482  -2903.63390  -2903.64608  -2903.64608  -2903.65229  -2903.68172
   18     4.7000  -2902.88482  -2903.63382  -2903.64601  -2903.64601  -2903.65222  -2903.68163
   19     4.8000  -2902.88482  -2903.63375  -2903.64594  -2903.64595  -2903.65215  -2903.68156
   20     4.9000  -2902.88482  -2903.63369  -2903.64589  -2903.64589  -2903.65210  -2903.68150
   21     5.0000  -2902.88482  -2903.63363  -2903.64584  -2903.64584  -2903.65205  -2903.68144
 ----  ---------  -----------  -----------  -----------  -----------  -----------  -----------
  
 Leave Link  108 at Mon Dec  9 03:18:24 2019, MaxMem=  268435456 cpu:       0.0
 (Enter /home/matheus/.gaussian/g09/l9999.exe)
 1\1\GINC-REDGIANT\Scan\RMP4SDTQ-FC\Aug-CC-pVTZ\H2Kr1O2\ROOT\09-Dec-201
 9\1\\#p mp4/aug-cc-PVTz int=ultrafine Scan\\PTCC\\0,1\O,0,0.,0.,0.725\
 O,0,0.,0.,-0.725\H,0,0.,-0.9187205947,1.0235104166\H,0,0.,0.9187205947
 ,-1.0235104166\Kr,0,0.,R1,0.\\R1=3.,s,20,0.1\\Version=EM64L-G09RevC.01
 \State=1-A'\HF=-2902.8769162,-2902.8793021,-2902.8809947,-2902.8821888
 ,-2902.8830263,-2902.8836098,-2902.8840133,-2902.8842897,-2902.8844771
 ,-2902.8846026,-2902.8846855,-2902.8847395,-2902.884774,-2902.8847956,
 -2902.8848086,-2902.884816,-2902.8848197,-2902.8848209,-2902.8848206,-
 2902.8848193,-2902.8848175\MP2=-2903.6328253,-2903.6341204,-2903.63488
 55,-2903.6352866,-2903.6354436,-2903.6354431,-2903.6353463,-2903.63519
 62,-2903.6350216,-2903.634841,-2903.6346659,-2903.6345025,-2903.634353
 7,-2903.6342203,-2903.6341017,-2903.6339968,-2903.6339041,-2903.633822
 3,-2903.63375,-2903.6336862,-2903.6336298\MP3=-2903.6441733,-2903.6456
 304,-2903.6465239,-2903.6470275,-2903.6472668,-2903.6473329,-2903.6472
 906,-2903.6471855,-2903.6470483,-2903.6468991,-2903.6467504,-2903.6466
 094,-2903.6464796,-2903.6463624,-2903.6462577,-2903.6461647,-2903.6460
 823,-2903.6460094,-2903.6459449,-2903.6458879,-2903.6458375\MP4D=-2903
 .6591145,-2903.6605683,-2903.6614596,-2903.6619613,-2903.662199,-2903.
 6622636,-2903.6622199,-2903.6621135,-2903.661975,-2903.6618248,-2903.6
 616751,-2903.6615331,-2903.6614025,-2903.6612846,-2903.6611792,-2903.6
 610855,-2903.6610026,-2903.6609291,-2903.6608641,-2903.6608066,-2903.6
 607557\MP4DQ=-2903.643774,-2903.6452949,-2903.6462438,-2903.646795,-29
 03.647075,-2903.6471756,-2903.6471625,-2903.6470819,-2903.6469652,-290
 3.6468331,-2903.6466987,-2903.6465695,-2903.6464495,-2903.6463403,-290
 3.6462423,-2903.6461547,-2903.6460768,-2903.6460076,-2903.6459462,-290
 3.6458917,-2903.6458434\MP4SDQ=-2903.6501603,-2903.6516546,-2903.65258
 08,-2903.6531124,-2903.6533754,-2903.6534612,-2903.6534353,-2903.65334
 36,-2903.6532173,-2903.6530769,-2903.6529353,-2903.6527999,-2903.65267
 46,-2903.6525608,-2903.6524588,-2903.6523679,-2903.6522871,-2903.65221
 54,-2903.6521519,-2903.6520956,-2903.6520457\MP4SDTQ=-2903.6804817,-29
 03.6818328,-2903.6826371,-2903.6830645,-2903.6832385,-2903.6832484,-29
 03.6831576,-2903.6830106,-2903.6828373,-2903.6826571,-2903.6824818,-29
 03.6823178,-2903.6821684,-2903.6820342,-2903.681915,-2903.6818095,-290
 3.6817163,-2903.681634,-2903.6815615,-2903.6814975,-2903.681441\RMSD=7
 .803e-09,9.575e-09,8.852e-09,8.069e-09,7.853e-09,6.670e-09,5.644e-09,8
 .406e-09,6.377e-09,4.884e-09,3.842e-09,3.124e-09,2.607e-09,2.197e-09,7
 .818e-09,5.886e-09,4.485e-09,3.531e-09,2.869e-09,2.369e-09,1.977e-09\P
 G=CS [SG(H2Kr1O2)]\\@


 TIME IS NATURE'S WAY OF MAKING SURE EVERYTHING
 DOESN'T HAPPEN AT ONCE.
                     - WOODY ALLEN
 Job cpu time:  0 days  8 hours 56 minutes 52.5 seconds.
 File lengths (MBytes):  RWF=   2757 Int=      0 D2E=      0 Chk=      4 Scr=      1
 Normal termination of Gaussian 09 at Mon Dec  9 03:18:25 2019.
