 Entering Gaussian System, Link 0=g09
 Input=/home/matheus/.ptcc/Inputs/H2O2-Kr_25.com
 Output=/home/matheus/.ptcc/Logs-MP4/H2O2-Kr_25.log
 Initial command:
 /home/matheus/.gaussian/g09/l1.exe /home/matheus/.gaussian/g09/scratch/Gau-14547.inp -scrdir=/home/matheus/.gaussian/g09/scratch/
 Entering Link 1 = /home/matheus/.gaussian/g09/l1.exe PID=     14549.
  
 Copyright (c) 1988,1990,1992,1993,1995,1998,2003,2009,2011,
            Gaussian, Inc.  All Rights Reserved.
  
 This is part of the Gaussian(R) 09 program.  It is based on
 the Gaussian(R) 03 system (copyright 2003, Gaussian, Inc.),
 the Gaussian(R) 98 system (copyright 1998, Gaussian, Inc.),
 the Gaussian(R) 94 system (copyright 1995, Gaussian, Inc.),
 the Gaussian 92(TM) system (copyright 1992, Gaussian, Inc.),
 the Gaussian 90(TM) system (copyright 1990, Gaussian, Inc.),
 the Gaussian 88(TM) system (copyright 1988, Gaussian, Inc.),
 the Gaussian 86(TM) system (copyright 1986, Carnegie Mellon
 University), and the Gaussian 82(TM) system (copyright 1983,
 Carnegie Mellon University). Gaussian is a federally registered
 trademark of Gaussian, Inc.
  
 This software contains proprietary and confidential information,
 including trade secrets, belonging to Gaussian, Inc.
  
 This software is provided under written license and may be
 used, copied, transmitted, or stored only in accord with that
 written license.
  
 The following legend is applicable only to US Government
 contracts under FAR:
  
                    RESTRICTED RIGHTS LEGEND
  
 Use, reproduction and disclosure by the US Government is
 subject to restrictions as set forth in subparagraphs (a)
 and (c) of the Commercial Computer Software - Restricted
 Rights clause in FAR 52.227-19.
  
 Gaussian, Inc.
 340 Quinnipiac St., Bldg. 40, Wallingford CT 06492
  
  
 ---------------------------------------------------------------
 Warning -- This program may not be used in any manner that
 competes with the business of Gaussian, Inc. or will provide
 assistance to any competitor of Gaussian, Inc.  The licensee
 of this program is prohibited from giving any competitor of
 Gaussian, Inc. access to this program.  By using this program,
 the user acknowledges that Gaussian, Inc. is engaged in the
 business of creating and licensing software in the field of
 computational chemistry and represents and warrants to the
 licensee that it is not a competitor of Gaussian, Inc. and that
 it will not use this program in any manner prohibited above.
 ---------------------------------------------------------------
  

 Cite this work as:
 Gaussian 09, Revision C.01,
 M. J. Frisch, G. W. Trucks, H. B. Schlegel, G. E. Scuseria, 
 M. A. Robb, J. R. Cheeseman, G. Scalmani, V. Barone, B. Mennucci, 
 G. A. Petersson, H. Nakatsuji, M. Caricato, X. Li, H. P. Hratchian, 
 A. F. Izmaylov, J. Bloino, G. Zheng, J. L. Sonnenberg, M. Hada, 
 M. Ehara, K. Toyota, R. Fukuda, J. Hasegawa, M. Ishida, T. Nakajima, 
 Y. Honda, O. Kitao, H. Nakai, T. Vreven, J. A. Montgomery, Jr., 
 J. E. Peralta, F. Ogliaro, M. Bearpark, J. J. Heyd, E. Brothers, 
 K. N. Kudin, V. N. Staroverov, T. Keith, R. Kobayashi, J. Normand, 
 K. Raghavachari, A. Rendell, J. C. Burant, S. S. Iyengar, J. Tomasi, 
 M. Cossi, N. Rega, J. M. Millam, M. Klene, J. E. Knox, J. B. Cross, 
 V. Bakken, C. Adamo, J. Jaramillo, R. Gomperts, R. E. Stratmann, 
 O. Yazyev, A. J. Austin, R. Cammi, C. Pomelli, J. W. Ochterski, 
 R. L. Martin, K. Morokuma, V. G. Zakrzewski, G. A. Voth, 
 P. Salvador, J. J. Dannenberg, S. Dapprich, A. D. Daniels, 
 O. Farkas, J. B. Foresman, J. V. Ortiz, J. Cioslowski, 
 and D. J. Fox, Gaussian, Inc., Wallingford CT, 2010.
 
 ******************************************
 Gaussian 09:  EM64L-G09RevC.01 23-Sep-2011
                13-Dec-2019 
 ******************************************
 %mem=2GB
 %nproc=2
 Will use up to    2 processors via shared memory.
 -------------------------------------
 #p mp4/aug-cc-PVTz int=ultrafine Scan
 -------------------------------------
 1/38=1,60=1/1,8;
 2/12=2,17=6,18=5,29=3,40=1/2;
 3/5=16,6=1,7=10,11=9,16=1,25=1,30=1,75=-5/1,2,3;
 4//1;
 5/5=2,38=5/2;
 8/6=4,9=120000,10=1/1,4;
 9/5=5/13;
 6/7=2,8=2,9=2,10=2,18=1/1;
 1/60=1/8(1);
 99/9=1/99;
 2/29=3/2;
 3/5=16,6=1,7=10,11=9,16=1,25=1,30=1,75=-5/1,2,3;
 4/5=5,16=3/1;
 5/5=2,38=5/2;
 8/6=4,9=120000,10=1/1,4;
 9/5=5/13;
 1/60=1/8(-6);
 99/9=1/99;
 Leave Link    1 at Fri Dec 13 13:53:32 2019, MaxMem=  268435456 cpu:       0.0
 (Enter /home/matheus/.gaussian/g09/l101.exe)
 ----
 PTCC
 ----
 Charge =  0 Multiplicity = 1
 Symbolic Z-Matrix:
 O                     0.        0.        0.725 
 O                     0.        0.       -0.725 
 H                    -0.86331  -0.31422   1.02351 
 H                     0.        0.91872  -1.02351 
 Kr                    0.       R1        0. 
       Variables:
  R1                    3.     Scan 20    0.1    
 
 NAtoms=      5 NQM=        0 NQMF=       0 NMMI=      5 NMMIF=      0
                NMic=       0 NMicF=      0.
                    Isotopes and Nuclear Properties:
 (Nuclear quadrupole moments (NQMom) in fm**2, nuclear magnetic moments (NMagM)
  in nuclear magnetons)

  Atom         1           2           3           4           5
 IAtWgt=          16          16           1           1          84
 AtmWgt=  15.9949146  15.9949146   1.0078250   1.0078250  83.9115064
 NucSpn=           0           0           1           1           0
 AtZEff=   0.0000000   0.0000000   0.0000000   0.0000000   0.0000000
 NQMom=    0.0000000   0.0000000   0.0000000   0.0000000   0.0000000
 NMagM=    0.0000000   0.0000000   2.7928460   2.7928460   0.0000000
 Leave Link  101 at Fri Dec 13 13:53:32 2019, MaxMem=  268435456 cpu:       0.1
 (Enter /home/matheus/.gaussian/g09/l108.exe)
 Scan the potential surface.
 Variable   Value     No. Steps Step-Size
 -------- ----------- --------- ---------
     1       3.000000      20      0.1000
 A total of     21 points will be computed.
 Leave Link  108 at Fri Dec 13 13:53:32 2019, MaxMem=  268435456 cpu:       0.0
 (Enter /home/matheus/.gaussian/g09/l202.exe)
 ---------------------------------------------------------------------------------------------------
                            Z-MATRIX (ANGSTROMS AND DEGREES)
   CD    Cent   Atom    N1       Length/X        N2       Alpha/Y        N3        Beta/Z          J
 ---------------------------------------------------------------------------------------------------
      1      1  O        0   0.000000          0.000000          0.725000
      2      2  O        0   0.000000          0.000000         -0.725000
      3      3  H        0  -0.863315         -0.314221          1.023510
      4      4  H        0   0.000000          0.918721         -1.023510
      5      5  Kr       0   0.000000          3.000000          0.000000
 ---------------------------------------------------------------------------------------------------
                         Z-Matrix orientation:                         
 ---------------------------------------------------------------------
 Center     Atomic      Atomic             Coordinates (Angstroms)
 Number     Number       Type             X           Y           Z
 ---------------------------------------------------------------------
      1          8           0        0.000000    0.000000    0.725000
      2          8           0        0.000000    0.000000   -0.725000
      3          1           0       -0.863315   -0.314221    1.023510
      4          1           0        0.000000    0.918721   -1.023510
      5         36           0        0.000000    3.000000    0.000000
 ---------------------------------------------------------------------
                    Distance matrix (angstroms):
                    1          2          3          4          5
     1  O    0.000000
     2  O    1.450000   0.000000
     3  H    0.966000   1.975180   0.000000
     4  H    1.975180   0.966000   2.540817   0.000000
     5  Kr   3.086361   3.086361   3.574486   2.319331   0.000000
 Stoichiometry    H2KrO2
 Framework group  C1[X(H2KrO2)]
 Deg. of freedom     9
 Full point group                 C1      NOp   1
 Largest Abelian subgroup         C1      NOp   1
 Largest concise Abelian subgroup C1      NOp   1
                         Standard orientation:                         
 ---------------------------------------------------------------------
 Center     Atomic      Atomic             Coordinates (Angstroms)
 Number     Number       Type             X           Y           Z
 ---------------------------------------------------------------------
      1          8           0       -2.019994   -0.690833   -0.114713
      2          8           0       -2.000697    0.753572    0.011068
      3          1           0       -2.354569   -1.058170    0.713707
      4          1           0       -1.078253    1.037233    0.053361
      5         36           0        0.988843   -0.013360    0.001725
 ---------------------------------------------------------------------
 Rotational constants (GHZ):     25.7302436      2.3305908      2.1494082
 Leave Link  202 at Fri Dec 13 13:53:32 2019, MaxMem=  268435456 cpu:       0.0
 (Enter /home/matheus/.gaussian/g09/l301.exe)
 Standard basis: Aug-CC-pVTZ (5D, 7F)
 Ernie: Thresh=  0.10000D-02 Tol=  0.10000D-05 Strict=F.
 Ernie:  38 primitive shells out of 205 were deleted.
 There are   197 symmetry adapted basis functions of A   symmetry.
 Integral buffers will be    131072 words long.
 Raffenetti 1 integral format.
 Two-electron integral symmetry is turned on.
   197 basis functions,   415 primitive gaussians,   229 cartesian basis functions
    27 alpha electrons       27 beta electrons
       nuclear repulsion energy       148.9188377957 Hartrees.
 IExCor=    0 DFT=F Ex=HF Corr=None ExCW=0 ScaHFX=  1.000000
 ScaDFX=  1.000000  1.000000  1.000000  1.000000 ScalE2=  1.000000  1.000000
 IRadAn=      5 IRanWt=     -1 IRanGd=            0 ICorTp=0
 NAtoms=    5 NActive=    5 NUniq=    5 SFac= 1.00D+00 NAtFMM=   60 NAOKFM=F Big=F
 Leave Link  301 at Fri Dec 13 13:53:32 2019, MaxMem=  268435456 cpu:       0.1
 (Enter /home/matheus/.gaussian/g09/l302.exe)
 NPDir=0 NMtPBC=     1 NCelOv=     1 NCel=       1 NClECP=     1 NCelD=      1
         NCelK=      1 NCelE2=     1 NClLst=     1 CellRange=     0.0.
 One-electron integrals computed using PRISM.
 NBasis=   197 RedAO= T  NBF=   197
 NBsUse=   197 1.00D-06 NBFU=   197
 Leave Link  302 at Fri Dec 13 13:53:32 2019, MaxMem=  268435456 cpu:       0.2
 (Enter /home/matheus/.gaussian/g09/l303.exe)
 DipDrv:  MaxL=1.
 Leave Link  303 at Fri Dec 13 13:53:32 2019, MaxMem=  268435456 cpu:       0.1
 (Enter /home/matheus/.gaussian/g09/l401.exe)
 Harris functional with IExCor=  205 diagonalized for initial guess.
 ExpMin= 2.53D-02 ExpMax= 1.17D+07 ExpMxC= 1.33D+04 IAcc=3 IRadAn=         5 AccDes= 0.00D+00
 HarFok:  IExCor=  205 AccDes= 0.00D+00 IRadAn=         5 IDoV= 1
 ScaDFX=  1.000000  1.000000  1.000000  1.000000
 FoFCou: FMM=F IPFlag=           0 FMFlag=      100000 FMFlg1=           0
         NFxFlg=           0 DoJE=T BraDBF=F KetDBF=T FulRan=T
         Omega=  0.000000  0.000000  1.000000  0.000000  0.000000 ICntrl=     500 IOpCl=  0
         NMat0=    1 NMatS0=    1 NMatT0=    0 NMatD0=    1 NMtDS0=    0 NMtDT0=    0
         I1Cent=           4 NGrid=           0.
 Petite list used in FoFCou.
 Harris En= -2901.93263752709    
 Initial guess orbital symmetries:
       Occupied  (A) (A) (A) (A) (A) (A) (A) (A) (A) (A) (A) (A)
                 (A) (A) (A) (A) (A) (A) (A) (A) (A) (A) (A) (A)
                 (A) (A) (A)
       Virtual   (A) (A) (A) (A) (A) (A) (A) (A) (A) (A) (A) (A)
                 (A) (A) (A) (A) (A) (A) (A) (A) (A) (A) (A) (A)
                 (A) (A) (A) (A) (A) (A) (A) (A) (A) (A) (A) (A)
                 (A) (A) (A) (A) (A) (A) (A) (A) (A) (A) (A) (A)
                 (A) (A) (A) (A) (A) (A) (A) (A) (A) (A) (A) (A)
                 (A) (A) (A) (A) (A) (A) (A) (A) (A) (A) (A) (A)
                 (A) (A) (A) (A) (A) (A) (A) (A) (A) (A) (A) (A)
                 (A) (A) (A) (A) (A) (A) (A) (A) (A) (A) (A) (A)
                 (A) (A) (A) (A) (A) (A) (A) (A) (A) (A) (A) (A)
                 (A) (A) (A) (A) (A) (A) (A) (A) (A) (A) (A) (A)
                 (A) (A) (A) (A) (A) (A) (A) (A) (A) (A) (A) (A)
                 (A) (A) (A) (A) (A) (A) (A) (A) (A) (A) (A) (A)
                 (A) (A) (A) (A) (A) (A) (A) (A) (A) (A) (A) (A)
                 (A) (A) (A) (A) (A) (A) (A) (A) (A) (A) (A) (A)
                 (A) (A)
 The electronic state of the initial guess is 1-A.
 Leave Link  401 at Fri Dec 13 13:53:33 2019, MaxMem=  268435456 cpu:       1.3
 (Enter /home/matheus/.gaussian/g09/l502.exe)
 Closed shell SCF:
 Requested convergence on RMS density matrix=1.00D-08 within 128 cycles.
 Requested convergence on MAX density matrix=1.00D-06.
 Requested convergence on             energy=1.00D-06.
 No special actions if energy rises.
 Using DIIS extrapolation, IDIIS=  1040.
 Integral symmetry usage will be decided dynamically.
 IEnd=      178489 IEndB=      178489 NGot=   268435456 MDV=   268326278
 LenX=   268326278 LenY=   268273396
 Fock matrices will be formed incrementally for  20 cycles.

 Cycle   1  Pass 0  IDiag  1:
 FoFCou: FMM=F IPFlag=           0 FMFlag=      100000 FMFlg1=           0
         NFxFlg=           0 DoJE=F BraDBF=F KetDBF=F FulRan=T
         Omega=  0.000000  0.000000  1.000000  0.000000  0.000000 ICntrl=       0 IOpCl=  0
         NMat0=    1 NMatS0=    1 NMatT0=    0 NMatD0=    1 NMtDS0=    0 NMtDT0=    0
         I1Cent=           0 NGrid=           0.
 Symmetry not used in FoFCou.
 E= -2902.76050840910    
 DIIS: error= 5.06D-02 at cycle   1 NSaved=   1.
 NSaved= 1 IEnMin= 1 EnMin= -2902.76050840910     IErMin= 1 ErrMin= 5.06D-02
 ErrMax= 5.06D-02 EMaxC= 1.00D-01 BMatC= 6.91D-01 BMatP= 6.91D-01
 IDIUse=3 WtCom= 4.94D-01 WtEn= 5.06D-01
 Coeff-Com:  0.100D+01
 Coeff-En:   0.100D+01
 Coeff:      0.100D+01
 Gap=     0.707 Goal=   None    Shift=    0.000
 GapD=    0.707 DampG=2.000 DampE=0.500 DampFc=1.0000 IDamp=-1.
 RMSDP=2.26D-03 MaxDP=1.50D-01              OVMax= 5.26D-02

 Cycle   2  Pass 0  IDiag  1:
 RMSU=  1.58D-03    CP:  1.01D+00
 E= -2902.86506931589     Delta-E=       -0.104560906799 Rises=F Damp=F
 DIIS: error= 7.08D-03 at cycle   2 NSaved=   2.
 NSaved= 2 IEnMin= 2 EnMin= -2902.86506931589     IErMin= 2 ErrMin= 7.08D-03
 ErrMax= 7.08D-03 EMaxC= 1.00D-01 BMatC= 4.00D-02 BMatP= 6.91D-01
 IDIUse=3 WtCom= 9.29D-01 WtEn= 7.08D-02
 Coeff-Com:  0.151D+00 0.849D+00
 Coeff-En:   0.000D+00 0.100D+01
 Coeff:      0.140D+00 0.860D+00
 Gap=     0.539 Goal=   None    Shift=    0.000
 RMSDP=7.97D-04 MaxDP=4.21D-02 DE=-1.05D-01 OVMax= 2.36D-02

 Cycle   3  Pass 0  IDiag  1:
 RMSU=  4.34D-04    CP:  1.01D+00  7.82D-01
 E= -2902.87863041938     Delta-E=       -0.013561103485 Rises=F Damp=F
 DIIS: error= 1.95D-03 at cycle   3 NSaved=   3.
 NSaved= 3 IEnMin= 3 EnMin= -2902.87863041938     IErMin= 3 ErrMin= 1.95D-03
 ErrMax= 1.95D-03 EMaxC= 1.00D-01 BMatC= 2.26D-03 BMatP= 4.00D-02
 IDIUse=3 WtCom= 9.81D-01 WtEn= 1.95D-02
 Coeff-Com: -0.635D-02 0.169D+00 0.838D+00
 Coeff-En:   0.000D+00 0.000D+00 0.100D+01
 Coeff:     -0.622D-02 0.165D+00 0.841D+00
 Gap=     0.520 Goal=   None    Shift=    0.000
 RMSDP=1.23D-04 MaxDP=4.97D-03 DE=-1.36D-02 OVMax= 7.41D-03

 Cycle   4  Pass 0  IDiag  1:
 RMSU=  4.88D-05    CP:  1.01D+00  8.14D-01  8.87D-01
 E= -2902.87972248505     Delta-E=       -0.001092065672 Rises=F Damp=F
 DIIS: error= 3.42D-04 at cycle   4 NSaved=   4.
 NSaved= 4 IEnMin= 4 EnMin= -2902.87972248505     IErMin= 4 ErrMin= 3.42D-04
 ErrMax= 3.42D-04 EMaxC= 1.00D-01 BMatC= 4.62D-05 BMatP= 2.26D-03
 IDIUse=3 WtCom= 9.97D-01 WtEn= 3.42D-03
 Coeff-Com: -0.426D-02 0.100D-01 0.149D+00 0.845D+00
 Coeff-En:   0.000D+00 0.000D+00 0.000D+00 0.100D+01
 Coeff:     -0.425D-02 0.998D-02 0.148D+00 0.846D+00
 Gap=     0.520 Goal=   None    Shift=    0.000
 RMSDP=2.11D-05 MaxDP=7.17D-04 DE=-1.09D-03 OVMax= 1.70D-03

 Cycle   5  Pass 0  IDiag  1:
 RMSU=  1.33D-05    CP:  1.01D+00  8.15D-01  9.02D-01  9.87D-01
 E= -2902.87976210433     Delta-E=       -0.000039619278 Rises=F Damp=F
 DIIS: error= 1.04D-04 at cycle   5 NSaved=   5.
 NSaved= 5 IEnMin= 5 EnMin= -2902.87976210433     IErMin= 5 ErrMin= 1.04D-04
 ErrMax= 1.04D-04 EMaxC= 1.00D-01 BMatC= 3.71D-06 BMatP= 4.62D-05
 IDIUse=3 WtCom= 9.99D-01 WtEn= 1.04D-03
 Coeff-Com:  0.823D-03-0.151D-01-0.725D-01 0.145D-01 0.107D+01
 Coeff-En:   0.000D+00 0.000D+00 0.000D+00 0.000D+00 0.100D+01
 Coeff:      0.822D-03-0.151D-01-0.724D-01 0.145D-01 0.107D+01
 Gap=     0.519 Goal=   None    Shift=    0.000
 RMSDP=1.09D-05 MaxDP=2.90D-04 DE=-3.96D-05 OVMax= 8.02D-04

 Cycle   6  Pass 0  IDiag  1:
 RMSU=  5.09D-06    CP:  1.01D+00  8.14D-01  8.99D-01  1.07D+00  1.25D+00
 E= -2902.87976784313     Delta-E=       -0.000005738803 Rises=F Damp=F
 DIIS: error= 2.97D-05 at cycle   6 NSaved=   6.
 NSaved= 6 IEnMin= 6 EnMin= -2902.87976784313     IErMin= 6 ErrMin= 2.97D-05
 ErrMax= 2.97D-05 EMaxC= 1.00D-01 BMatC= 2.97D-07 BMatP= 3.71D-06
 IDIUse=1 WtCom= 1.00D+00 WtEn= 0.00D+00
 Coeff-Com:  0.242D-03-0.385D-03-0.102D-01-0.593D-01 0.146D-01 0.105D+01
 Coeff:      0.242D-03-0.385D-03-0.102D-01-0.593D-01 0.146D-01 0.105D+01
 Gap=     0.520 Goal=   None    Shift=    0.000
 RMSDP=3.73D-06 MaxDP=1.29D-04 DE=-5.74D-06 OVMax= 3.71D-04

 Initial convergence to 1.0D-05 achieved.  Increase integral accuracy.
 Cycle   7  Pass 1  IDiag  1:
 E= -2902.87976847143     Delta-E=       -0.000000628293 Rises=F Damp=F
 DIIS: error= 1.79D-05 at cycle   1 NSaved=   1.
 NSaved= 1 IEnMin= 1 EnMin= -2902.87976847143     IErMin= 1 ErrMin= 1.79D-05
 ErrMax= 1.79D-05 EMaxC= 1.00D-01 BMatC= 5.93D-08 BMatP= 5.93D-08
 IDIUse=1 WtCom= 1.00D+00 WtEn= 0.00D+00
 Coeff-Com:  0.100D+01
 Coeff:      0.100D+01
 Gap=     0.520 Goal=   None    Shift=    0.000
 RMSDP=3.73D-06 MaxDP=1.29D-04 DE=-6.28D-07 OVMax= 1.65D-04

 Cycle   8  Pass 1  IDiag  1:
 RMSU=  9.47D-07    CP:  1.00D+00
 E= -2902.87976857166     Delta-E=       -0.000000100237 Rises=F Damp=F
 DIIS: error= 1.03D-05 at cycle   2 NSaved=   2.
 NSaved= 2 IEnMin= 2 EnMin= -2902.87976857166     IErMin= 2 ErrMin= 1.03D-05
 ErrMax= 1.03D-05 EMaxC= 1.00D-01 BMatC= 2.99D-08 BMatP= 5.93D-08
 IDIUse=1 WtCom= 1.00D+00 WtEn= 0.00D+00
 Coeff-Com:  0.354D+00 0.646D+00
 Coeff:      0.354D+00 0.646D+00
 Gap=     0.520 Goal=   None    Shift=    0.000
 RMSDP=6.10D-07 MaxDP=2.40D-05 DE=-1.00D-07 OVMax= 6.88D-05

 Cycle   9  Pass 1  IDiag  1:
 RMSU=  3.93D-07    CP:  1.00D+00  1.19D+00
 E= -2902.87976860668     Delta-E=       -0.000000035017 Rises=F Damp=F
 DIIS: error= 5.29D-06 at cycle   3 NSaved=   3.
 NSaved= 3 IEnMin= 3 EnMin= -2902.87976860668     IErMin= 3 ErrMin= 5.29D-06
 ErrMax= 5.29D-06 EMaxC= 1.00D-01 BMatC= 6.49D-09 BMatP= 2.99D-08
 IDIUse=1 WtCom= 1.00D+00 WtEn= 0.00D+00
 Coeff-Com: -0.558D+00-0.367D+00 0.192D+01
 Coeff:     -0.558D+00-0.367D+00 0.192D+01
 Gap=     0.520 Goal=   None    Shift=    0.000
 RMSDP=1.19D-06 MaxDP=2.45D-05 DE=-3.50D-08 OVMax= 1.74D-04

 Cycle  10  Pass 1  IDiag  1:
 RMSU=  1.45D-07    CP:  1.00D+00  1.96D+00  1.97D+00
 E= -2902.87976863823     Delta-E=       -0.000000031551 Rises=F Damp=F
 DIIS: error= 1.16D-06 at cycle   4 NSaved=   4.
 NSaved= 4 IEnMin= 4 EnMin= -2902.87976863823     IErMin= 4 ErrMin= 1.16D-06
 ErrMax= 1.16D-06 EMaxC= 1.00D-01 BMatC= 3.84D-10 BMatP= 6.49D-09
 IDIUse=1 WtCom= 1.00D+00 WtEn= 0.00D+00
 Coeff-Com:  0.166D+00 0.790D-01-0.647D+00 0.140D+01
 Coeff:      0.166D+00 0.790D-01-0.647D+00 0.140D+01
 Gap=     0.520 Goal=   None    Shift=    0.000
 RMSDP=2.28D-07 MaxDP=5.47D-06 DE=-3.16D-08 OVMax= 3.70D-05

 Cycle  11  Pass 1  IDiag  1:
 RMSU=  4.21D-08    CP:  1.00D+00  2.07D+00  2.13D+00  1.69D+00
 E= -2902.87976863992     Delta-E=       -0.000000001683 Rises=F Damp=F
 DIIS: error= 4.22D-07 at cycle   5 NSaved=   5.
 NSaved= 5 IEnMin= 5 EnMin= -2902.87976863992     IErMin= 5 ErrMin= 4.22D-07
 ErrMax= 4.22D-07 EMaxC= 1.00D-01 BMatC= 7.12D-11 BMatP= 3.84D-10
 IDIUse=1 WtCom= 1.00D+00 WtEn= 0.00D+00
 Coeff-Com:  0.139D+00 0.876D-01-0.490D+00 0.178D+00 0.108D+01
 Coeff:      0.139D+00 0.876D-01-0.490D+00 0.178D+00 0.108D+01
 Gap=     0.520 Goal=   None    Shift=    0.000
 RMSDP=9.28D-08 MaxDP=2.17D-06 DE=-1.68D-09 OVMax= 1.47D-05

 Cycle  12  Pass 1  IDiag  1:
 RMSU=  1.53D-08    CP:  1.00D+00  2.11D+00  2.18D+00  2.01D+00  1.36D+00
 E= -2902.87976864017     Delta-E=       -0.000000000251 Rises=F Damp=F
 DIIS: error= 1.28D-07 at cycle   6 NSaved=   6.
 NSaved= 6 IEnMin= 6 EnMin= -2902.87976864017     IErMin= 6 ErrMin= 1.28D-07
 ErrMax= 1.28D-07 EMaxC= 1.00D-01 BMatC= 4.72D-12 BMatP= 7.12D-11
 IDIUse=1 WtCom= 1.00D+00 WtEn= 0.00D+00
 Coeff-Com: -0.908D-02-0.300D-02 0.364D-01-0.111D+00-0.416D-02 0.109D+01
 Coeff:     -0.908D-02-0.300D-02 0.364D-01-0.111D+00-0.416D-02 0.109D+01
 Gap=     0.520 Goal=   None    Shift=    0.000
 RMSDP=2.03D-08 MaxDP=4.14D-07 DE=-2.51D-10 OVMax= 2.93D-06

 Cycle  13  Pass 1  IDiag  1:
 RMSU=  4.11D-09    CP:  1.00D+00  2.11D+00  2.18D+00  2.07D+00  1.55D+00
                    CP:  1.20D+00
 E= -2902.87976864016     Delta-E=        0.000000000006 Rises=F Damp=F
 DIIS: error= 3.14D-08 at cycle   7 NSaved=   7.
 NSaved= 7 IEnMin= 6 EnMin= -2902.87976864017     IErMin= 7 ErrMin= 3.14D-08
 ErrMax= 3.14D-08 EMaxC= 1.00D-01 BMatC= 3.79D-13 BMatP= 4.72D-12
 IDIUse=1 WtCom= 1.00D+00 WtEn= 0.00D+00
 Coeff-Com: -0.131D-01-0.780D-02 0.461D-01-0.176D-01-0.121D+00 0.716D-01
 Coeff-Com:  0.104D+01
 Coeff:     -0.131D-01-0.780D-02 0.461D-01-0.176D-01-0.121D+00 0.716D-01
 Coeff:      0.104D+01
 Gap=     0.520 Goal=   None    Shift=    0.000
 RMSDP=4.75D-09 MaxDP=1.01D-07 DE= 6.37D-12 OVMax= 5.67D-07

 SCF Done:  E(RHF) =  -2902.87976864     A.U. after   13 cycles
             Convg  =    0.4754D-08             -V/T =  2.0001
 KE= 2.902630029648D+03 PE=-7.238308345323D+03 EE= 1.283879709239D+03
 Leave Link  502 at Fri Dec 13 13:54:27 2019, MaxMem=  268435456 cpu:     106.7
 (Enter /home/matheus/.gaussian/g09/l801.exe)
 Windowed orbitals will be sorted by symmetry type.
 ExpMin= 2.53D-02 ExpMax= 1.17D+07 ExpMxC= 1.33D+04 IAcc=3 IRadAn=         5 AccDes= 0.00D+00
 HarFok:  IExCor=  205 AccDes= 0.00D+00 IRadAn=         5 IDoV=-2
 ScaDFX=  1.000000  1.000000  1.000000  1.000000
 DSYEVD returned Info=          93 IAlg= 4 N=    46 NDim=    46 NE2=     4547561 trying DSYEV.
 DSYEVD returned Info=          89 IAlg= 4 N=    59 NDim=    59 NE2=     4547561 trying DSYEV.
 Largest valence mixing into a core orbital is  1.44D-04
 Largest core mixing into a valence orbital is  2.59D-05
 Range of M.O.s used for correlation:    12   197
 NBasis=   197 NAE=    27 NBE=    27 NFC=    11 NFV=     0
 NROrb=    186 NOA=    16 NOB=    16 NVA=   170 NVB=   170

 **** Warning!!: The largest alpha MO coefficient is  0.14390418D+02

 Leave Link  801 at Fri Dec 13 13:54:27 2019, MaxMem=  268435456 cpu:       0.3
 (Enter /home/matheus/.gaussian/g09/l804.exe)
 Closed-shell transformation, MDV=   268435456 ITran=4 ISComp=1.
 Semi-Direct transformation.
 ModeAB=           2 MOrb=            16 LenV=     267326502
 LASXX=     48528660 LTotXX=    48528660 LenRXX=    48528660
 LTotAB=    49298776 MaxLAS=    78372960 LenRXY=    78372960
 NonZer=    97057320 LenScr=   146313216 LnRSAI=           0
 LnScr1=           0 LExtra=           0 Total=    273214836
 MaxDsk=          -1 SrtSym=           F ITran=            4
 DoSDTr:  NPSUse=  2
 JobTyp=0 Pass  1:  I=   1 to  16.
 (rs|ai) integrals will be sorted in core.
 Complete sort for first half transformation.
 First half transformation complete.
 Begin second half transformation for I=  10.
 Begin second half transformation for I=  10.
 Complete sort for second half transformation.
 Second half transformation complete.
 SymMOI:  orbitals are not symmetric.
 Spin components of T(2) and E(2):
     alpha-alpha T2 =       0.2600499761D-01 E2=     -0.1000311397D+00
     alpha-beta  T2 =       0.1420679208D+00 E2=     -0.5568853061D+00
     beta-beta   T2 =       0.2600499761D-01 E2=     -0.1000311397D+00
 ANorm=    0.1092738723D+01
 E2 =    -0.7569475856D+00 EUMP2 =    -0.29036367162258D+04
 Leave Link  804 at Fri Dec 13 13:54:53 2019, MaxMem=  268435456 cpu:      50.8
 (Enter /home/matheus/.gaussian/g09/l913.exe)
 CIDS:  MDV=   268435456.
 Frozen-core window:  NFC=  11 NFV=   0.
 IFCWin=0 IBDFC=1 NFBD=     0     0 NFCmp=     0     0 NFFFC=     0     0
 Using DD3R+UMP44R for 1st iteration, S=T.
 Using DD4RQ for 2nd and later iterations.
 Would need an additional       431206676 words for in-memory AO integral storage.
 MP4(SDTQ)
 =========
 DD1Dir will call FoFDir   1 times, MxPair=       272
 NAB=   136 NAA=     0 NBB=     0 NumPrc=  2.
 Integrals replicated using symmetry in FoFDir.
 MinBra= 0 MaxBra= 3 Meth= 1.
 IRaf=       0 NMat= 272 IRICut=     340 DoRegI=T DoRafI=T ISym2E= 2 JSym2E=2.
 MP4(D)= -0.14981617D-01
 MP4(S)= -0.64918148D-02
 MP4(R+Q)=  0.15431752D-01
 T4(AAA)= -0.10472201D-02
 T4(AAB)= -0.14211358D-01
 Time for triples=     1428.20 seconds.
 MP4(T)=   -0.30517155D-01
 E3=       -0.11198654D-01        EUMP3=      -0.29036479149D+04
 E4(DQ)=    0.45013416D-03        UMP4(DQ)=   -0.29036474647D+04
 E4(SDQ)=  -0.60416806D-02        UMP4(SDQ)=  -0.29036539566D+04
 E4(SDTQ)= -0.36558836D-01        UMP4(SDTQ)= -0.29036844737D+04
 VARIATIONAL ENERGIES WITH THE FIRST-ORDER WAVEFUNCTION:
 E(VAR1)=  -0.29035230652D+04     E(CISD,4)=  -0.29035224815D+04
 Largest amplitude= 2.11D-02
 Leave Link  913 at Fri Dec 13 14:07:40 2019, MaxMem=  268435456 cpu:    1530.6
 (Enter /home/matheus/.gaussian/g09/l601.exe)
 Copying SCF densities to generalized density rwf, IOpCl= 0 IROHF=0.

 **********************************************************************

            Population analysis using the SCF density.

 **********************************************************************

 Orbital symmetries:
       Occupied  (A) (A) (A) (A) (A) (A) (A) (A) (A) (A) (A) (A)
                 (A) (A) (A) (A) (A) (A) (A) (A) (A) (A) (A) (A)
                 (A) (A) (A)
       Virtual   (A) (A) (A) (A) (A) (A) (A) (A) (A) (A) (A) (A)
                 (A) (A) (A) (A) (A) (A) (A) (A) (A) (A) (A) (A)
                 (A) (A) (A) (A) (A) (A) (A) (A) (A) (A) (A) (A)
                 (A) (A) (A) (A) (A) (A) (A) (A) (A) (A) (A) (A)
                 (A) (A) (A) (A) (A) (A) (A) (A) (A) (A) (A) (A)
                 (A) (A) (A) (A) (A) (A) (A) (A) (A) (A) (A) (A)
                 (A) (A) (A) (A) (A) (A) (A) (A) (A) (A) (A) (A)
                 (A) (A) (A) (A) (A) (A) (A) (A) (A) (A) (A) (A)
                 (A) (A) (A) (A) (A) (A) (A) (A) (A) (A) (A) (A)
                 (A) (A) (A) (A) (A) (A) (A) (A) (A) (A) (A) (A)
                 (A) (A) (A) (A) (A) (A) (A) (A) (A) (A) (A) (A)
                 (A) (A) (A) (A) (A) (A) (A) (A) (A) (A) (A) (A)
                 (A) (A) (A) (A) (A) (A) (A) (A) (A) (A) (A) (A)
                 (A) (A) (A) (A) (A) (A) (A) (A) (A) (A) (A) (A)
                 (A) (A)
 The electronic state is 1-A.
 Alpha  occ. eigenvalues -- -520.17610 -69.91366 -63.02024 -63.02022 -63.02018
 Alpha  occ. eigenvalues --  -20.62994 -20.62692 -10.86031  -8.34253  -8.34229
 Alpha  occ. eigenvalues --   -8.34212  -3.83634  -3.83629  -3.83606  -3.83581
 Alpha  occ. eigenvalues --   -3.83577  -1.46685  -1.21780  -1.16626  -0.72982
 Alpha  occ. eigenvalues --   -0.69952  -0.60755  -0.54218  -0.53561  -0.53038
 Alpha  occ. eigenvalues --   -0.50379  -0.48493
 Alpha virt. eigenvalues --    0.03475   0.04517   0.08894   0.10059   0.11622
 Alpha virt. eigenvalues --    0.12525   0.14682   0.15720   0.17576   0.18786
 Alpha virt. eigenvalues --    0.19069   0.21291   0.23195   0.25714   0.26743
 Alpha virt. eigenvalues --    0.27993   0.28393   0.31051   0.33954   0.35807
 Alpha virt. eigenvalues --    0.36198   0.37478   0.38273   0.41926   0.42231
 Alpha virt. eigenvalues --    0.44234   0.46569   0.51620   0.56837   0.59685
 Alpha virt. eigenvalues --    0.60453   0.64224   0.66793   0.70400   0.73626
 Alpha virt. eigenvalues --    0.75557   0.77738   0.78547   0.81147   0.81865
 Alpha virt. eigenvalues --    0.82716   0.83240   0.85246   0.87155   0.89226
 Alpha virt. eigenvalues --    0.90731   0.91229   0.93407   0.94595   0.96929
 Alpha virt. eigenvalues --    0.99706   0.99913   1.00780   1.02828   1.05484
 Alpha virt. eigenvalues --    1.07186   1.09754   1.13528   1.14105   1.16759
 Alpha virt. eigenvalues --    1.17325   1.22848   1.24596   1.25525   1.30603
 Alpha virt. eigenvalues --    1.32229   1.37276   1.43256   1.47298   1.50938
 Alpha virt. eigenvalues --    1.54872   1.58805   1.59952   1.62168   1.69120
 Alpha virt. eigenvalues --    1.77813   1.85456   1.95869   2.03521   2.08627
 Alpha virt. eigenvalues --    2.13634   2.17329   2.23917   2.29390   2.30083
 Alpha virt. eigenvalues --    2.33450   2.36218   2.37436   2.40983   2.42774
 Alpha virt. eigenvalues --    2.44787   2.46524   2.51727   2.53153   2.54023
 Alpha virt. eigenvalues --    2.54974   2.58388   2.61874   2.62375   2.66593
 Alpha virt. eigenvalues --    2.69427   2.69797   2.72050   2.73960   2.76479
 Alpha virt. eigenvalues --    2.77299   2.79691   2.80789   2.86180   2.89505
 Alpha virt. eigenvalues --    2.92659   2.95551   2.97773   3.04141   3.07132
 Alpha virt. eigenvalues --    3.09722   3.24854   3.30935   3.33603   3.81891
 Alpha virt. eigenvalues --    3.88389   4.09174   4.19537   4.27509   4.29551
 Alpha virt. eigenvalues --    4.37427   4.39125   4.44319   4.48654   4.50418
 Alpha virt. eigenvalues --    4.59398   4.74315   4.80345   4.84471   4.95488
 Alpha virt. eigenvalues --    5.13706   5.21309   5.27746   5.40718   5.42132
 Alpha virt. eigenvalues --    5.49518   5.80576   6.17189   6.39929   6.45205
 Alpha virt. eigenvalues --    6.48600   6.64171   6.67364   6.79103   6.90009
 Alpha virt. eigenvalues --    6.91533   7.16214   7.17405   7.20426   7.21758
 Alpha virt. eigenvalues --    7.24651   7.25842   7.27960   7.34386   7.38997
 Alpha virt. eigenvalues --    7.46735   7.54805   7.62380   7.82854   8.08216
 Alpha virt. eigenvalues --    8.21461   8.49398   8.53045  14.61764  15.32480
          Condensed to atoms (all electrons):
              1          2          3          4          5
     1  O    8.119981  -0.074763   0.251195  -0.012066  -0.025291
     2  O   -0.074763   8.145662  -0.000160   0.247152  -0.011930
     3  H    0.251195  -0.000160   0.482240   0.001947  -0.000018
     4  H   -0.012066   0.247152   0.001947   0.479137  -0.003806
     5  Kr  -0.025291  -0.011930  -0.000018  -0.003806  36.028459
 Mulliken atomic charges:
              1
     1  O   -0.259056
     2  O   -0.305962
     3  H    0.264796
     4  H    0.287636
     5  Kr   0.012586
 Sum of Mulliken atomic charges =   0.00000
 Mulliken charges with hydrogens summed into heavy atoms:
              1
     1  O    0.005740
     2  O   -0.018327
     5  Kr   0.012586
 Sum of Mulliken charges with hydrogens summed into heavy atoms =   0.00000
 Electronic spatial extent (au):  <R**2>=            486.9884
 Charge=              0.0000 electrons
 Dipole moment (field-independent basis, Debye):
    X=              1.2098    Y=             -0.3897    Z=              1.5050  Tot=              1.9699
 Quadrupole moment (field-independent basis, Debye-Ang):
   XX=            -32.4270   YY=            -27.9248   ZZ=            -29.0645
   XY=              3.0606   XZ=             -3.8051   YZ=             -1.7724
 Traceless Quadrupole moment (field-independent basis, Debye-Ang):
   XX=             -2.6216   YY=              1.8806   ZZ=              0.7410
   XY=              3.0606   XZ=             -3.8051   YZ=             -1.7724
 Octapole moment (field-independent basis, Debye-Ang**2):
  XXX=             24.4052  YYY=             -1.0431  ZZZ=              1.2173  XYY=              4.2629
  XXY=            -10.7571  XXZ=              9.0715  XZZ=              4.8478  YZZ=             -1.6917
  YYZ=              2.2019  XYZ=              4.3893
 Hexadecapole moment (field-independent basis, Debye-Ang**3):
 XXXX=           -425.3863 YYYY=            -62.3726 ZZZZ=            -28.9996 XXXY=             27.3935
 XXXZ=            -23.0289 YYYX=              5.3111 YYYZ=             -2.5260 ZZZX=             -3.3752
 ZZZY=             -1.8004 XXYY=            -77.6960 XXZZ=            -70.6163 YYZZ=            -15.7525
 XXYZ=            -10.8669 YYXZ=             -5.2068 ZZXY=              3.6781
 N-N= 1.489188377957D+02 E-N=-7.238308345514D+03  KE= 2.902630029648D+03
 Leave Link  601 at Fri Dec 13 14:07:40 2019, MaxMem=  268435456 cpu:       0.1
 (Enter /home/matheus/.gaussian/g09/l108.exe)
 Variable Step   Value    
 -------- ---- -----------
     1       1    5.858151
 Leave Link  108 at Fri Dec 13 14:07:40 2019, MaxMem=  268435456 cpu:       0.0
 (Enter /home/matheus/.gaussian/g09/l202.exe)
 ---------------------------------------------------------------------------------------------------
                            Z-MATRIX (ANGSTROMS AND DEGREES)
   CD    Cent   Atom    N1       Length/X        N2       Alpha/Y        N3        Beta/Z          J
 ---------------------------------------------------------------------------------------------------
      1      1  O        0   0.000000          0.000000          0.725000
      2      2  O        0   0.000000          0.000000         -0.725000
      3      3  H        0  -0.863315         -0.314221          1.023510
      4      4  H        0   0.000000          0.918721         -1.023510
      5      5  Kr       0   0.000000          3.100000          0.000000
 ---------------------------------------------------------------------------------------------------
                         Z-Matrix orientation:                         
 ---------------------------------------------------------------------
 Center     Atomic      Atomic             Coordinates (Angstroms)
 Number     Number       Type             X           Y           Z
 ---------------------------------------------------------------------
      1          8           0        0.000000    0.000000    0.725000
      2          8           0        0.000000    0.000000   -0.725000
      3          1           0       -0.863315   -0.314221    1.023510
      4          1           0        0.000000    0.918721   -1.023510
      5         36           0        0.000000    3.100000    0.000000
 ---------------------------------------------------------------------
                    Distance matrix (angstroms):
                    1          2          3          4          5
     1  O    0.000000
     2  O    1.450000   0.000000
     3  H    0.966000   1.975180   0.000000
     4  H    1.975180   0.966000   2.540817   0.000000
     5  Kr   3.183650   3.183650   3.667396   2.409472   0.000000
 Stoichiometry    H2KrO2
 Framework group  C1[X(H2KrO2)]
 Deg. of freedom     9
 Full point group                 C1      NOp   1
 RotChk:  IX=0 Diff= 1.68D-03
 Largest Abelian subgroup         C1      NOp   1
 Largest concise Abelian subgroup C1      NOp   1
                         Standard orientation:                         
 ---------------------------------------------------------------------
 Center     Atomic      Atomic             Coordinates (Angstroms)
 Number     Number       Type             X           Y           Z
 ---------------------------------------------------------------------
      1          8           0       -2.086026   -0.691909   -0.114642
      2          8           0       -2.068091    0.752503    0.011260
      3          1           0       -2.419709   -1.059655    0.713956
      4          1           0       -1.145903    1.037080    0.052994
      5         36           0        1.022182   -0.012838    0.001669
 ---------------------------------------------------------------------
 Rotational constants (GHZ):     25.7292432      2.1828757      2.0231414
 Leave Link  202 at Fri Dec 13 14:07:40 2019, MaxMem=  268435456 cpu:       0.0
 (Enter /home/matheus/.gaussian/g09/l301.exe)
 Standard basis: Aug-CC-pVTZ (5D, 7F)
 Ernie: Thresh=  0.10000D-02 Tol=  0.10000D-05 Strict=F.
 Ernie:  38 primitive shells out of 205 were deleted.
 There are   197 symmetry adapted basis functions of A   symmetry.
 Integral buffers will be    131072 words long.
 Raffenetti 1 integral format.
 Two-electron integral symmetry is turned on.
   197 basis functions,   415 primitive gaussians,   229 cartesian basis functions
    27 alpha electrons       27 beta electrons
       nuclear repulsion energy       145.4585781027 Hartrees.
 IExCor=    0 DFT=F Ex=HF Corr=None ExCW=0 ScaHFX=  1.000000
 ScaDFX=  1.000000  1.000000  1.000000  1.000000 ScalE2=  1.000000  1.000000
 IRadAn=      5 IRanWt=     -1 IRanGd=            0 ICorTp=0
 NAtoms=    5 NActive=    5 NUniq=    5 SFac= 1.00D+00 NAtFMM=   60 NAOKFM=F Big=F
 Leave Link  301 at Fri Dec 13 14:07:41 2019, MaxMem=  268435456 cpu:       0.0
 (Enter /home/matheus/.gaussian/g09/l302.exe)
 NPDir=0 NMtPBC=     1 NCelOv=     1 NCel=       1 NClECP=     1 NCelD=      1
         NCelK=      1 NCelE2=     1 NClLst=     1 CellRange=     0.0.
 One-electron integrals computed using PRISM.
 NBasis=   197 RedAO= T  NBF=   197
 NBsUse=   197 1.00D-06 NBFU=   197
 Leave Link  302 at Fri Dec 13 14:07:41 2019, MaxMem=  268435456 cpu:       0.2
 (Enter /home/matheus/.gaussian/g09/l303.exe)
 DipDrv:  MaxL=1.
 Leave Link  303 at Fri Dec 13 14:07:41 2019, MaxMem=  268435456 cpu:       0.1
 (Enter /home/matheus/.gaussian/g09/l401.exe)
 Initial guess read from the read-write file.
 B after Tr=     0.000000    0.000000    0.000000
         Rot=    1.000000    0.000000    0.000000    0.000000 Ang=   0.00 deg.
 Guess basis will be translated and rotated to current coordinates.
 Initial guess orbital symmetries:
       Occupied  (A) (A) (A) (A) (A) (A) (A) (A) (A) (A) (A) (A)
                 (A) (A) (A) (A) (A) (A) (A) (A) (A) (A) (A) (A)
                 (A) (A) (A)
       Virtual   (A) (A) (A) (A) (A) (A) (A) (A) (A) (A) (A) (A)
                 (A) (A) (A) (A) (A) (A) (A) (A) (A) (A) (A) (A)
                 (A) (A) (A) (A) (A) (A) (A) (A) (A) (A) (A) (A)
                 (A) (A) (A) (A) (A) (A) (A) (A) (A) (A) (A) (A)
                 (A) (A) (A) (A) (A) (A) (A) (A) (A) (A) (A) (A)
                 (A) (A) (A) (A) (A) (A) (A) (A) (A) (A) (A) (A)
                 (A) (A) (A) (A) (A) (A) (A) (A) (A) (A) (A) (A)
                 (A) (A) (A) (A) (A) (A) (A) (A) (A) (A) (A) (A)
                 (A) (A) (A) (A) (A) (A) (A) (A) (A) (A) (A) (A)
                 (A) (A) (A) (A) (A) (A) (A) (A) (A) (A) (A) (A)
                 (A) (A) (A) (A) (A) (A) (A) (A) (A) (A) (A) (A)
                 (A) (A) (A) (A) (A) (A) (A) (A) (A) (A) (A) (A)
                 (A) (A) (A) (A) (A) (A) (A) (A) (A) (A) (A) (A)
                 (A) (A) (A) (A) (A) (A) (A) (A) (A) (A) (A) (A)
                 (A) (A)
 The electronic state of the initial guess is 1-A.
 Generating alternative initial guess.
 Harris functional with IExCor=  205 diagonalized for initial guess.
 ExpMin= 2.53D-02 ExpMax= 1.17D+07 ExpMxC= 1.33D+04 IAcc=3 IRadAn=         5 AccDes= 0.00D+00
 HarFok:  IExCor=  205 AccDes= 0.00D+00 IRadAn=         5 IDoV= 1
 ScaDFX=  1.000000  1.000000  1.000000  1.000000
 FoFCou: FMM=F IPFlag=           0 FMFlag=      100000 FMFlg1=           0
         NFxFlg=           0 DoJE=T BraDBF=F KetDBF=T FulRan=T
         Omega=  0.000000  0.000000  1.000000  0.000000  0.000000 ICntrl=     500 IOpCl=  0
         NMat0=    1 NMatS0=    1 NMatT0=    0 NMatD0=    1 NMtDS0=    0 NMtDT0=    0
         I1Cent=           4 NGrid=           0.
 Petite list used in FoFCou.
 Harris En= -2901.93368365244    
 Leave Link  401 at Fri Dec 13 14:07:41 2019, MaxMem=  268435456 cpu:       1.4
 (Enter /home/matheus/.gaussian/g09/l502.exe)
 Closed shell SCF:
 Requested convergence on RMS density matrix=1.00D-08 within 128 cycles.
 Requested convergence on MAX density matrix=1.00D-06.
 Requested convergence on             energy=1.00D-06.
 No special actions if energy rises.
 Using DIIS extrapolation, IDIIS=  1040.
 Integral symmetry usage will be decided dynamically.
 IEnd=      178489 IEndB=      178489 NGot=   268435456 MDV=   268326278
 LenX=   268326278 LenY=   268273396
 Fock matrices will be formed incrementally for  20 cycles.

 Cycle   1  Pass 0  IDiag  1:
 FoFCou: FMM=F IPFlag=           0 FMFlag=      100000 FMFlg1=           0
         NFxFlg=           0 DoJE=F BraDBF=F KetDBF=F FulRan=T
         Omega=  0.000000  0.000000  1.000000  0.000000  0.000000 ICntrl=       0 IOpCl=  0
         NMat0=    1 NMatS0=    1 NMatT0=    0 NMatD0=    1 NMtDS0=    0 NMtDT0=    0
         I1Cent=           0 NGrid=           0.
 Symmetry not used in FoFCou.
 E= -2902.88218700136    
 DIIS: error= 4.68D-04 at cycle   1 NSaved=   1.
 NSaved= 1 IEnMin= 1 EnMin= -2902.88218700136     IErMin= 1 ErrMin= 4.68D-04
 ErrMax= 4.68D-04 EMaxC= 1.00D-01 BMatC= 6.90D-05 BMatP= 6.90D-05
 IDIUse=3 WtCom= 9.95D-01 WtEn= 4.68D-03
 Coeff-Com:  0.100D+01
 Coeff-En:   0.100D+01
 Coeff:      0.100D+01
 Gap=     0.522 Goal=   None    Shift=    0.000
 RMSDP=7.09D-05 MaxDP=2.96D-03              OVMax= 2.97D-03

 Cycle   2  Pass 0  IDiag  1:
 RMSU=  5.02D-05    CP:  1.00D+00
 E= -2902.88226846189     Delta-E=       -0.000081460531 Rises=F Damp=F
 DIIS: error= 7.26D-05 at cycle   2 NSaved=   2.
 NSaved= 2 IEnMin= 2 EnMin= -2902.88226846189     IErMin= 2 ErrMin= 7.26D-05
 ErrMax= 7.26D-05 EMaxC= 1.00D-01 BMatC= 2.39D-06 BMatP= 6.90D-05
 IDIUse=1 WtCom= 1.00D+00 WtEn= 0.00D+00
 Coeff-Com: -0.777D-01 0.108D+01
 Coeff:     -0.777D-01 0.108D+01
 Gap=     0.520 Goal=   None    Shift=    0.000
 RMSDP=1.29D-05 MaxDP=4.78D-04 DE=-8.15D-05 OVMax= 6.41D-04

 Cycle   3  Pass 0  IDiag  1:
 RMSU=  6.15D-06    CP:  1.00D+00  1.13D+00
 E= -2902.88227191975     Delta-E=       -0.000003457862 Rises=F Damp=F
 DIIS: error= 2.86D-05 at cycle   3 NSaved=   3.
 NSaved= 3 IEnMin= 3 EnMin= -2902.88227191975     IErMin= 3 ErrMin= 2.86D-05
 ErrMax= 2.86D-05 EMaxC= 1.00D-01 BMatC= 3.83D-07 BMatP= 2.39D-06
 IDIUse=1 WtCom= 1.00D+00 WtEn= 0.00D+00
 Coeff-Com: -0.438D-01 0.261D+00 0.782D+00
 Coeff:     -0.438D-01 0.261D+00 0.782D+00
 Gap=     0.520 Goal=   None    Shift=    0.000
 RMSDP=2.45D-06 MaxDP=7.00D-05 DE=-3.46D-06 OVMax= 1.60D-04

 Initial convergence to 1.0D-05 achieved.  Increase integral accuracy.
 Cycle   4  Pass 1  IDiag  1:
 E= -2902.88227227918     Delta-E=       -0.000000359434 Rises=F Damp=F
 DIIS: error= 9.61D-06 at cycle   1 NSaved=   1.
 NSaved= 1 IEnMin= 1 EnMin= -2902.88227227918     IErMin= 1 ErrMin= 9.61D-06
 ErrMax= 9.61D-06 EMaxC= 1.00D-01 BMatC= 3.93D-08 BMatP= 3.93D-08
 IDIUse=1 WtCom= 1.00D+00 WtEn= 0.00D+00
 Coeff-Com:  0.100D+01
 Coeff:      0.100D+01
 Gap=     0.520 Goal=   None    Shift=    0.000
 RMSDP=2.45D-06 MaxDP=7.00D-05 DE=-3.59D-07 OVMax= 7.34D-05

 Cycle   5  Pass 1  IDiag  1:
 RMSU=  8.42D-07    CP:  1.00D+00
 E= -2902.88227233076     Delta-E=       -0.000000051579 Rises=F Damp=F
 DIIS: error= 7.18D-06 at cycle   2 NSaved=   2.
 NSaved= 2 IEnMin= 2 EnMin= -2902.88227233076     IErMin= 2 ErrMin= 7.18D-06
 ErrMax= 7.18D-06 EMaxC= 1.00D-01 BMatC= 1.49D-08 BMatP= 3.93D-08
 IDIUse=1 WtCom= 1.00D+00 WtEn= 0.00D+00
 Coeff-Com:  0.322D+00 0.678D+00
 Coeff:      0.322D+00 0.678D+00
 Gap=     0.520 Goal=   None    Shift=    0.000
 RMSDP=3.71D-07 MaxDP=1.36D-05 DE=-5.16D-08 OVMax= 3.27D-05

 Cycle   6  Pass 1  IDiag  1:
 RMSU=  2.55D-07    CP:  1.00D+00  1.07D+00
 E= -2902.88227234530     Delta-E=       -0.000000014532 Rises=F Damp=F
 DIIS: error= 2.70D-06 at cycle   3 NSaved=   3.
 NSaved= 3 IEnMin= 3 EnMin= -2902.88227234530     IErMin= 3 ErrMin= 2.70D-06
 ErrMax= 2.70D-06 EMaxC= 1.00D-01 BMatC= 2.38D-09 BMatP= 1.49D-08
 IDIUse=1 WtCom= 1.00D+00 WtEn= 0.00D+00
 Coeff-Com: -0.336D+00-0.103D+00 0.144D+01
 Coeff:     -0.336D+00-0.103D+00 0.144D+01
 Gap=     0.520 Goal=   None    Shift=    0.000
 RMSDP=4.56D-07 MaxDP=1.23D-05 DE=-1.45D-08 OVMax= 3.40D-05

 Cycle   7  Pass 1  IDiag  1:
 RMSU=  1.05D-07    CP:  1.00D+00  1.41D+00  1.40D+00
 E= -2902.88227235122     Delta-E=       -0.000000005927 Rises=F Damp=F
 DIIS: error= 6.64D-07 at cycle   4 NSaved=   4.
 NSaved= 4 IEnMin= 4 EnMin= -2902.88227235122     IErMin= 4 ErrMin= 6.64D-07
 ErrMax= 6.64D-07 EMaxC= 1.00D-01 BMatC= 1.02D-10 BMatP= 2.38D-09
 IDIUse=1 WtCom= 1.00D+00 WtEn= 0.00D+00
 Coeff-Com: -0.852D-01-0.418D-01 0.286D+00 0.841D+00
 Coeff:     -0.852D-01-0.418D-01 0.286D+00 0.841D+00
 Gap=     0.520 Goal=   None    Shift=    0.000
 RMSDP=5.80D-08 MaxDP=2.05D-06 DE=-5.93D-09 OVMax= 5.03D-06

 Cycle   8  Pass 1  IDiag  1:
 RMSU=  2.65D-08    CP:  1.00D+00  1.43D+00  1.44D+00  1.25D+00
 E= -2902.88227235138     Delta-E=       -0.000000000155 Rises=F Damp=F
 DIIS: error= 2.55D-07 at cycle   5 NSaved=   5.
 NSaved= 5 IEnMin= 5 EnMin= -2902.88227235138     IErMin= 5 ErrMin= 2.55D-07
 ErrMax= 2.55D-07 EMaxC= 1.00D-01 BMatC= 1.74D-11 BMatP= 1.02D-10
 IDIUse=1 WtCom= 1.00D+00 WtEn= 0.00D+00
 Coeff-Com:  0.693D-01 0.323D-01-0.304D+00-0.840D-01 0.129D+01
 Coeff:      0.693D-01 0.323D-01-0.304D+00-0.840D-01 0.129D+01
 Gap=     0.520 Goal=   None    Shift=    0.000
 RMSDP=4.12D-08 MaxDP=1.04D-06 DE=-1.55D-10 OVMax= 3.62D-06

 Cycle   9  Pass 1  IDiag  1:
 RMSU=  1.12D-08    CP:  1.00D+00  1.43D+00  1.44D+00  1.49D+00  1.36D+00
 E= -2902.88227235142     Delta-E=       -0.000000000039 Rises=F Damp=F
 DIIS: error= 6.28D-08 at cycle   6 NSaved=   6.
 NSaved= 6 IEnMin= 6 EnMin= -2902.88227235142     IErMin= 6 ErrMin= 6.28D-08
 ErrMax= 6.28D-08 EMaxC= 1.00D-01 BMatC= 1.25D-12 BMatP= 1.74D-11
 IDIUse=1 WtCom= 1.00D+00 WtEn= 0.00D+00
 Coeff-Com: -0.928D-02-0.156D-02 0.417D-01-0.300D-01-0.263D+00 0.126D+01
 Coeff:     -0.928D-02-0.156D-02 0.417D-01-0.300D-01-0.263D+00 0.126D+01
 Gap=     0.520 Goal=   None    Shift=    0.000
 RMSDP=1.02D-08 MaxDP=2.13D-07 DE=-3.87D-11 OVMax= 1.36D-06

 Cycle  10  Pass 1  IDiag  1:
 RMSU=  3.30D-09    CP:  1.00D+00  1.43D+00  1.45D+00  1.50D+00  1.44D+00
                    CP:  1.51D+00
 E= -2902.88227235144     Delta-E=       -0.000000000021 Rises=F Damp=F
 DIIS: error= 2.99D-08 at cycle   7 NSaved=   7.
 NSaved= 7 IEnMin= 7 EnMin= -2902.88227235144     IErMin= 7 ErrMin= 2.99D-08
 ErrMax= 2.99D-08 EMaxC= 1.00D-01 BMatC= 2.31D-13 BMatP= 1.25D-12
 IDIUse=1 WtCom= 1.00D+00 WtEn= 0.00D+00
 Coeff-Com: -0.129D-01-0.542D-02 0.552D-01 0.193D-01-0.235D+00-0.110D+00
 Coeff-Com:  0.129D+01
 Coeff:     -0.129D-01-0.542D-02 0.552D-01 0.193D-01-0.235D+00-0.110D+00
 Coeff:      0.129D+01
 Gap=     0.520 Goal=   None    Shift=    0.000
 RMSDP=6.07D-09 MaxDP=1.58D-07 DE=-2.09D-11 OVMax= 7.79D-07

 SCF Done:  E(RHF) =  -2902.88227235     A.U. after   10 cycles
             Convg  =    0.6065D-08             -V/T =  2.0001
 KE= 2.902611526926D+03 PE=-7.231375168697D+03 EE= 1.280422791316D+03
 Leave Link  502 at Fri Dec 13 14:08:21 2019, MaxMem=  268435456 cpu:      78.7
 (Enter /home/matheus/.gaussian/g09/l801.exe)
 Windowed orbitals will be sorted by symmetry type.
 ExpMin= 2.53D-02 ExpMax= 1.17D+07 ExpMxC= 1.33D+04 IAcc=3 IRadAn=         5 AccDes= 0.00D+00
 HarFok:  IExCor=  205 AccDes= 0.00D+00 IRadAn=         5 IDoV=-2
 ScaDFX=  1.000000  1.000000  1.000000  1.000000
 Largest valence mixing into a core orbital is  1.44D-04
 Largest core mixing into a valence orbital is  2.59D-05
 Range of M.O.s used for correlation:    12   197
 NBasis=   197 NAE=    27 NBE=    27 NFC=    11 NFV=     0
 NROrb=    186 NOA=    16 NOB=    16 NVA=   170 NVB=   170

 **** Warning!!: The largest alpha MO coefficient is  0.15611010D+02

 Leave Link  801 at Fri Dec 13 14:08:21 2019, MaxMem=  268435456 cpu:       0.2
 (Enter /home/matheus/.gaussian/g09/l804.exe)
 Closed-shell transformation, MDV=   268435456 ITran=4 ISComp=1.
 Semi-Direct transformation.
 ModeAB=           2 MOrb=            16 LenV=     267327614
 LASXX=     48528660 LTotXX=    48528660 LenRXX=    48528660
 LTotAB=    49298776 MaxLAS=    78372960 LenRXY=    78372960
 NonZer=    97057320 LenScr=   146313216 LnRSAI=           0
 LnScr1=           0 LExtra=           0 Total=    273214836
 MaxDsk=          -1 SrtSym=           F ITran=            4
 DoSDTr:  NPSUse=  2
 JobTyp=0 Pass  1:  I=   1 to  16.
 (rs|ai) integrals will be sorted in core.
 Complete sort for first half transformation.
 First half transformation complete.
 Begin second half transformation for I=  10.
 Begin second half transformation for I=  10.
 Complete sort for second half transformation.
 Second half transformation complete.
 SymMOI:  orbitals are not symmetric.
 Spin components of T(2) and E(2):
     alpha-alpha T2 =       0.2593100483D-01 E2=     -0.9977334156D-01
     alpha-beta  T2 =       0.1419752941D+00 E2=     -0.5563007235D+00
     beta-beta   T2 =       0.2593100483D-01 E2=     -0.9977334156D-01
 ANorm=    0.1092628621D+01
 E2 =    -0.7558474066D+00 EUMP2 =    -0.29036381197581D+04
 Leave Link  804 at Fri Dec 13 14:08:46 2019, MaxMem=  268435456 cpu:      50.0
 (Enter /home/matheus/.gaussian/g09/l913.exe)
 CIDS:  MDV=   268435456.
 Frozen-core window:  NFC=  11 NFV=   0.
 IFCWin=0 IBDFC=1 NFBD=     0     0 NFCmp=     0     0 NFFFC=     0     0
 Using DD3R+UMP44R for 1st iteration, S=T.
 Using DD4RQ for 2nd and later iterations.
 Would need an additional       431206676 words for in-memory AO integral storage.
 MP4(SDTQ)
 =========
 DD1Dir will call FoFDir   1 times, MxPair=       272
 NAB=   136 NAA=     0 NBB=     0 NumPrc=  2.
 Integrals replicated using symmetry in FoFDir.
 MinBra= 0 MaxBra= 3 Meth= 1.
 IRaf=       0 NMat= 272 IRICut=     340 DoRegI=T DoRafI=T ISym2E= 2 JSym2E=2.
 MP4(D)= -0.14980714D-01
 MP4(S)= -0.64632570D-02
 MP4(R+Q)=  0.15360214D-01
 T4(AAA)= -0.10373246D-02
 T4(AAB)= -0.14148102D-01
 Time for triples=     1363.23 seconds.
 MP4(T)=   -0.30370853D-01
 E3=       -0.11348240D-01        EUMP3=      -0.29036494680D+04
 E4(DQ)=    0.37950074D-03        UMP4(DQ)=   -0.29036490885D+04
 E4(SDQ)=  -0.60837563D-02        UMP4(SDQ)=  -0.29036555518D+04
 E4(SDTQ)= -0.36454609D-01        UMP4(SDTQ)= -0.29036859226D+04
 VARIATIONAL ENERGIES WITH THE FIRST-ORDER WAVEFUNCTION:
 E(VAR1)=  -0.29035249023D+04     E(CISD,4)=  -0.29035244005D+04
 Largest amplitude= 2.65D-02
 Leave Link  913 at Fri Dec 13 14:20:57 2019, MaxMem=  268435456 cpu:    1459.4
 (Enter /home/matheus/.gaussian/g09/l108.exe)
 Variable Step   Value    
 -------- ---- -----------
     1       2    6.047124
 Leave Link  108 at Fri Dec 13 14:20:57 2019, MaxMem=  268435456 cpu:       0.0
 (Enter /home/matheus/.gaussian/g09/l202.exe)
 ---------------------------------------------------------------------------------------------------
                            Z-MATRIX (ANGSTROMS AND DEGREES)
   CD    Cent   Atom    N1       Length/X        N2       Alpha/Y        N3        Beta/Z          J
 ---------------------------------------------------------------------------------------------------
      1      1  O        0   0.000000          0.000000          0.725000
      2      2  O        0   0.000000          0.000000         -0.725000
      3      3  H        0  -0.863315         -0.314221          1.023510
      4      4  H        0   0.000000          0.918721         -1.023510
      5      5  Kr       0   0.000000          3.200000          0.000000
 ---------------------------------------------------------------------------------------------------
                         Z-Matrix orientation:                         
 ---------------------------------------------------------------------
 Center     Atomic      Atomic             Coordinates (Angstroms)
 Number     Number       Type             X           Y           Z
 ---------------------------------------------------------------------
      1          8           0        0.000000    0.000000    0.725000
      2          8           0        0.000000    0.000000   -0.725000
      3          1           0       -0.863315   -0.314221    1.023510
      4          1           0        0.000000    0.918721   -1.023510
      5         36           0        0.000000    3.200000    0.000000
 ---------------------------------------------------------------------
                    Distance matrix (angstroms):
                    1          2          3          4          5
     1  O    0.000000
     2  O    1.450000   0.000000
     3  H    0.966000   1.975180   0.000000
     4  H    1.975180   0.966000   2.540817   0.000000
     5  Kr   3.281101   3.281101   3.760670   2.500362   0.000000
 Stoichiometry    H2KrO2
 Framework group  C1[X(H2KrO2)]
 Deg. of freedom     9
 Full point group                 C1      NOp   1
 RotChk:  IX=0 Diff= 1.52D-03
 Largest Abelian subgroup         C1      NOp   1
 Largest concise Abelian subgroup C1      NOp   1
                         Standard orientation:                         
 ---------------------------------------------------------------------
 Center     Atomic      Atomic             Coordinates (Angstroms)
 Number     Number       Type             X           Y           Z
 ---------------------------------------------------------------------
      1          8           0       -2.152126   -0.692898   -0.114574
      2          8           0       -2.135408    0.751519    0.011441
      3          1           0       -2.484988   -1.061013    0.714190
      4          1           0       -1.213451    1.036917    0.052652
      5         36           0        1.055520   -0.012358    0.001617
 ---------------------------------------------------------------------
 Rotational constants (GHZ):     25.7283373      2.0487413      1.9073960
 Leave Link  202 at Fri Dec 13 14:20:57 2019, MaxMem=  268435456 cpu:       0.0
 (Enter /home/matheus/.gaussian/g09/l301.exe)
 Standard basis: Aug-CC-pVTZ (5D, 7F)
 Ernie: Thresh=  0.10000D-02 Tol=  0.10000D-05 Strict=F.
 Ernie:  38 primitive shells out of 205 were deleted.
 There are   197 symmetry adapted basis functions of A   symmetry.
 Integral buffers will be    131072 words long.
 Raffenetti 1 integral format.
 Two-electron integral symmetry is turned on.
   197 basis functions,   415 primitive gaussians,   229 cartesian basis functions
    27 alpha electrons       27 beta electrons
       nuclear repulsion energy       142.1987415969 Hartrees.
 IExCor=    0 DFT=F Ex=HF Corr=None ExCW=0 ScaHFX=  1.000000
 ScaDFX=  1.000000  1.000000  1.000000  1.000000 ScalE2=  1.000000  1.000000
 IRadAn=      5 IRanWt=     -1 IRanGd=            0 ICorTp=0
 NAtoms=    5 NActive=    5 NUniq=    5 SFac= 1.00D+00 NAtFMM=   60 NAOKFM=F Big=F
 Leave Link  301 at Fri Dec 13 14:20:57 2019, MaxMem=  268435456 cpu:       0.0
 (Enter /home/matheus/.gaussian/g09/l302.exe)
 NPDir=0 NMtPBC=     1 NCelOv=     1 NCel=       1 NClECP=     1 NCelD=      1
         NCelK=      1 NCelE2=     1 NClLst=     1 CellRange=     0.0.
 One-electron integrals computed using PRISM.
 NBasis=   197 RedAO= T  NBF=   197
 NBsUse=   197 1.00D-06 NBFU=   197
 Leave Link  302 at Fri Dec 13 14:20:57 2019, MaxMem=  268435456 cpu:       0.2
 (Enter /home/matheus/.gaussian/g09/l303.exe)
 DipDrv:  MaxL=1.
 Leave Link  303 at Fri Dec 13 14:20:57 2019, MaxMem=  268435456 cpu:       0.0
 (Enter /home/matheus/.gaussian/g09/l401.exe)
 Initial guess read from the read-write file.
 B after Tr=     0.000000    0.000000    0.000000
         Rot=    1.000000    0.000000    0.000000    0.000000 Ang=   0.00 deg.
 Guess basis will be translated and rotated to current coordinates.
 Initial guess orbital symmetries:
       Occupied  (A) (A) (A) (A) (A) (A) (A) (A) (A) (A) (A) (A)
                 (A) (A) (A) (A) (A) (A) (A) (A) (A) (A) (A) (A)
                 (A) (A) (A)
       Virtual   (A) (A) (A) (A) (A) (A) (A) (A) (A) (A) (A) (A)
                 (A) (A) (A) (A) (A) (A) (A) (A) (A) (A) (A) (A)
                 (A) (A) (A) (A) (A) (A) (A) (A) (A) (A) (A) (A)
                 (A) (A) (A) (A) (A) (A) (A) (A) (A) (A) (A) (A)
                 (A) (A) (A) (A) (A) (A) (A) (A) (A) (A) (A) (A)
                 (A) (A) (A) (A) (A) (A) (A) (A) (A) (A) (A) (A)
                 (A) (A) (A) (A) (A) (A) (A) (A) (A) (A) (A) (A)
                 (A) (A) (A) (A) (A) (A) (A) (A) (A) (A) (A) (A)
                 (A) (A) (A) (A) (A) (A) (A) (A) (A) (A) (A) (A)
                 (A) (A) (A) (A) (A) (A) (A) (A) (A) (A) (A) (A)
                 (A) (A) (A) (A) (A) (A) (A) (A) (A) (A) (A) (A)
                 (A) (A) (A) (A) (A) (A) (A) (A) (A) (A) (A) (A)
                 (A) (A) (A) (A) (A) (A) (A) (A) (A) (A) (A) (A)
                 (A) (A) (A) (A) (A) (A) (A) (A) (A) (A) (A) (A)
                 (A) (A)
 The electronic state of the initial guess is 1-A.
 Generating alternative initial guess.
 Harris functional with IExCor=  205 diagonalized for initial guess.
 ExpMin= 2.53D-02 ExpMax= 1.17D+07 ExpMxC= 1.33D+04 IAcc=3 IRadAn=         5 AccDes= 0.00D+00
 HarFok:  IExCor=  205 AccDes= 0.00D+00 IRadAn=         5 IDoV= 1
 ScaDFX=  1.000000  1.000000  1.000000  1.000000
 FoFCou: FMM=F IPFlag=           0 FMFlag=      100000 FMFlg1=           0
         NFxFlg=           0 DoJE=T BraDBF=F KetDBF=T FulRan=T
         Omega=  0.000000  0.000000  1.000000  0.000000  0.000000 ICntrl=     500 IOpCl=  0
         NMat0=    1 NMatS0=    1 NMatT0=    0 NMatD0=    1 NMtDS0=    0 NMtDT0=    0
         I1Cent=           4 NGrid=           0.
 Petite list used in FoFCou.
 Harris En= -2901.93429287985    
 Leave Link  401 at Fri Dec 13 14:20:58 2019, MaxMem=  268435456 cpu:       1.2
 (Enter /home/matheus/.gaussian/g09/l502.exe)
 Closed shell SCF:
 Requested convergence on RMS density matrix=1.00D-08 within 128 cycles.
 Requested convergence on MAX density matrix=1.00D-06.
 Requested convergence on             energy=1.00D-06.
 No special actions if energy rises.
 Using DIIS extrapolation, IDIIS=  1040.
 Integral symmetry usage will be decided dynamically.
 IEnd=      178489 IEndB=      178489 NGot=   268435456 MDV=   268326278
 LenX=   268326278 LenY=   268273396
 Fock matrices will be formed incrementally for  20 cycles.

 Cycle   1  Pass 0  IDiag  1:
 FoFCou: FMM=F IPFlag=           0 FMFlag=      100000 FMFlg1=           0
         NFxFlg=           0 DoJE=F BraDBF=F KetDBF=F FulRan=T
         Omega=  0.000000  0.000000  1.000000  0.000000  0.000000 ICntrl=       0 IOpCl=  0
         NMat0=    1 NMatS0=    1 NMatT0=    0 NMatD0=    1 NMtDS0=    0 NMtDT0=    0
         I1Cent=           0 NGrid=           0.
 Symmetry not used in FoFCou.
 E= -2902.88398660567    
 DIIS: error= 3.41D-04 at cycle   1 NSaved=   1.
 NSaved= 1 IEnMin= 1 EnMin= -2902.88398660567     IErMin= 1 ErrMin= 3.41D-04
 ErrMax= 3.41D-04 EMaxC= 1.00D-01 BMatC= 5.17D-05 BMatP= 5.17D-05
 IDIUse=3 WtCom= 9.97D-01 WtEn= 3.41D-03
 Coeff-Com:  0.100D+01
 Coeff-En:   0.100D+01
 Coeff:      0.100D+01
 Gap=     0.522 Goal=   None    Shift=    0.000
 RMSDP=6.25D-05 MaxDP=2.09D-03              OVMax= 2.70D-03

 Cycle   2  Pass 0  IDiag  1:
 RMSU=  4.42D-05    CP:  1.00D+00
 E= -2902.88404804578     Delta-E=       -0.000061440103 Rises=F Damp=F
 DIIS: error= 5.94D-05 at cycle   2 NSaved=   2.
 NSaved= 2 IEnMin= 2 EnMin= -2902.88404804578     IErMin= 2 ErrMin= 5.94D-05
 ErrMax= 5.94D-05 EMaxC= 1.00D-01 BMatC= 1.64D-06 BMatP= 5.17D-05
 IDIUse=1 WtCom= 1.00D+00 WtEn= 0.00D+00
 Coeff-Com: -0.839D-01 0.108D+01
 Coeff:     -0.839D-01 0.108D+01
 Gap=     0.521 Goal=   None    Shift=    0.000
 RMSDP=1.11D-05 MaxDP=3.92D-04 DE=-6.14D-05 OVMax= 5.89D-04

 Cycle   3  Pass 0  IDiag  1:
 RMSU=  5.23D-06    CP:  1.00D+00  1.13D+00
 E= -2902.88405055805     Delta-E=       -0.000002512279 Rises=F Damp=F
 DIIS: error= 2.34D-05 at cycle   3 NSaved=   3.
 NSaved= 3 IEnMin= 3 EnMin= -2902.88405055805     IErMin= 3 ErrMin= 2.34D-05
 ErrMax= 2.34D-05 EMaxC= 1.00D-01 BMatC= 2.36D-07 BMatP= 1.64D-06
 IDIUse=1 WtCom= 1.00D+00 WtEn= 0.00D+00
 Coeff-Com: -0.404D-01 0.245D+00 0.795D+00
 Coeff:     -0.404D-01 0.245D+00 0.795D+00
 Gap=     0.521 Goal=   None    Shift=    0.000
 RMSDP=2.08D-06 MaxDP=6.69D-05 DE=-2.51D-06 OVMax= 1.39D-04

 Initial convergence to 1.0D-05 achieved.  Increase integral accuracy.
 Cycle   4  Pass 1  IDiag  1:
 E= -2902.88405079168     Delta-E=       -0.000000233627 Rises=F Damp=F
 DIIS: error= 7.88D-06 at cycle   1 NSaved=   1.
 NSaved= 1 IEnMin= 1 EnMin= -2902.88405079168     IErMin= 1 ErrMin= 7.88D-06
 ErrMax= 7.88D-06 EMaxC= 1.00D-01 BMatC= 2.78D-08 BMatP= 2.78D-08
 IDIUse=1 WtCom= 1.00D+00 WtEn= 0.00D+00
 Coeff-Com:  0.100D+01
 Coeff:      0.100D+01
 Gap=     0.521 Goal=   None    Shift=    0.000
 RMSDP=2.08D-06 MaxDP=6.69D-05 DE=-2.34D-07 OVMax= 6.24D-05

 Cycle   5  Pass 1  IDiag  1:
 RMSU=  7.30D-07    CP:  1.00D+00
 E= -2902.88405082811     Delta-E=       -0.000000036431 Rises=F Damp=F
 DIIS: error= 5.73D-06 at cycle   2 NSaved=   2.
 NSaved= 2 IEnMin= 2 EnMin= -2902.88405082811     IErMin= 2 ErrMin= 5.73D-06
 ErrMax= 5.73D-06 EMaxC= 1.00D-01 BMatC= 1.07D-08 BMatP= 2.78D-08
 IDIUse=1 WtCom= 1.00D+00 WtEn= 0.00D+00
 Coeff-Com:  0.325D+00 0.675D+00
 Coeff:      0.325D+00 0.675D+00
 Gap=     0.521 Goal=   None    Shift=    0.000
 RMSDP=3.14D-07 MaxDP=1.13D-05 DE=-3.64D-08 OVMax= 2.70D-05

 Cycle   6  Pass 1  IDiag  1:
 RMSU=  2.15D-07    CP:  1.00D+00  1.08D+00
 E= -2902.88405083842     Delta-E=       -0.000000010306 Rises=F Damp=F
 DIIS: error= 2.25D-06 at cycle   3 NSaved=   3.
 NSaved= 3 IEnMin= 3 EnMin= -2902.88405083842     IErMin= 3 ErrMin= 2.25D-06
 ErrMax= 2.25D-06 EMaxC= 1.00D-01 BMatC= 1.65D-09 BMatP= 1.07D-08
 IDIUse=1 WtCom= 1.00D+00 WtEn= 0.00D+00
 Coeff-Com: -0.335D+00-0.112D+00 0.145D+01
 Coeff:     -0.335D+00-0.112D+00 0.145D+01
 Gap=     0.521 Goal=   None    Shift=    0.000
 RMSDP=3.87D-07 MaxDP=1.13D-05 DE=-1.03D-08 OVMax= 2.93D-05

 Cycle   7  Pass 1  IDiag  1:
 RMSU=  9.11D-08    CP:  1.00D+00  1.41D+00  1.40D+00
 E= -2902.88405084261     Delta-E=       -0.000000004186 Rises=F Damp=F
 DIIS: error= 5.85D-07 at cycle   4 NSaved=   4.
 NSaved= 4 IEnMin= 4 EnMin= -2902.88405084261     IErMin= 4 ErrMin= 5.85D-07
 ErrMax= 5.85D-07 EMaxC= 1.00D-01 BMatC= 7.58D-11 BMatP= 1.65D-09
 IDIUse=1 WtCom= 1.00D+00 WtEn= 0.00D+00
 Coeff-Com: -0.886D-01-0.459D-01 0.302D+00 0.833D+00
 Coeff:     -0.886D-01-0.459D-01 0.302D+00 0.833D+00
 Gap=     0.521 Goal=   None    Shift=    0.000
 RMSDP=4.93D-08 MaxDP=1.75D-06 DE=-4.19D-09 OVMax= 4.46D-06

 Cycle   8  Pass 1  IDiag  1:
 RMSU=  2.28D-08    CP:  1.00D+00  1.42D+00  1.44D+00  1.25D+00
 E= -2902.88405084274     Delta-E=       -0.000000000130 Rises=F Damp=F
 DIIS: error= 2.45D-07 at cycle   5 NSaved=   5.
 NSaved= 5 IEnMin= 5 EnMin= -2902.88405084274     IErMin= 5 ErrMin= 2.45D-07
 ErrMax= 2.45D-07 EMaxC= 1.00D-01 BMatC= 1.28D-11 BMatP= 7.58D-11
 IDIUse=1 WtCom= 1.00D+00 WtEn= 0.00D+00
 Coeff-Com:  0.741D-01 0.364D-01-0.324D+00-0.103D+00 0.132D+01
 Coeff:      0.741D-01 0.364D-01-0.324D+00-0.103D+00 0.132D+01
 Gap=     0.521 Goal=   None    Shift=    0.000
 RMSDP=3.69D-08 MaxDP=9.89D-07 DE=-1.30D-10 OVMax= 3.27D-06

 Cycle   9  Pass 1  IDiag  1:
 RMSU=  9.77D-09    CP:  1.00D+00  1.42D+00  1.44D+00  1.50D+00  1.37D+00
 E= -2902.88405084277     Delta-E=       -0.000000000034 Rises=F Damp=F
 DIIS: error= 5.39D-08 at cycle   6 NSaved=   6.
 NSaved= 6 IEnMin= 6 EnMin= -2902.88405084277     IErMin= 6 ErrMin= 5.39D-08
 ErrMax= 5.39D-08 EMaxC= 1.00D-01 BMatC= 9.09D-13 BMatP= 1.28D-11
 IDIUse=1 WtCom= 1.00D+00 WtEn= 0.00D+00
 Coeff-Com: -0.216D-01-0.773D-02 0.950D-01-0.629D-02-0.476D+00 0.142D+01
 Coeff:     -0.216D-01-0.773D-02 0.950D-01-0.629D-02-0.476D+00 0.142D+01
 Gap=     0.521 Goal=   None    Shift=    0.000
 RMSDP=1.00D-08 MaxDP=2.27D-07 DE=-3.37D-11 OVMax= 1.28D-06

 Cycle  10  Pass 1  IDiag  1:
 RMSU=  2.87D-09    CP:  1.00D+00  1.42D+00  1.45D+00  1.50D+00  1.45D+00
                    CP:  1.60D+00
 E= -2902.88405084277     Delta-E=        0.000000000000 Rises=F Damp=F
 DIIS: error= 2.40D-08 at cycle   7 NSaved=   7.
 NSaved= 7 IEnMin= 6 EnMin= -2902.88405084277     IErMin= 7 ErrMin= 2.40D-08
 ErrMax= 2.40D-08 EMaxC= 1.00D-01 BMatC= 1.38D-13 BMatP= 9.09D-13
 IDIUse=1 WtCom= 1.00D+00 WtEn= 0.00D+00
 Coeff-Com: -0.122D-01-0.548D-02 0.524D-01 0.177D-01-0.218D+00-0.340D-01
 Coeff-Com:  0.120D+01
 Coeff:     -0.122D-01-0.548D-02 0.524D-01 0.177D-01-0.218D+00-0.340D-01
 Coeff:      0.120D+01
 Gap=     0.521 Goal=   None    Shift=    0.000
 RMSDP=4.63D-09 MaxDP=1.20D-07 DE= 0.00D+00 OVMax= 5.76D-07

 SCF Done:  E(RHF) =  -2902.88405084     A.U. after   10 cycles
             Convg  =    0.4626D-08             -V/T =  2.0001
 KE= 2.902597870982D+03 PE=-7.224849295082D+03 EE= 1.277168631660D+03
 Leave Link  502 at Fri Dec 13 14:21:34 2019, MaxMem=  268435456 cpu:      71.6
 (Enter /home/matheus/.gaussian/g09/l801.exe)
 Windowed orbitals will be sorted by symmetry type.
 ExpMin= 2.53D-02 ExpMax= 1.17D+07 ExpMxC= 1.33D+04 IAcc=3 IRadAn=         5 AccDes= 0.00D+00
 HarFok:  IExCor=  205 AccDes= 0.00D+00 IRadAn=         5 IDoV=-2
 ScaDFX=  1.000000  1.000000  1.000000  1.000000
 DSYEVD returned Info=          93 IAlg= 4 N=    46 NDim=    46 NE2=     4547561 trying DSYEV.
 DSYEVD returned Info=          89 IAlg= 4 N=    59 NDim=    59 NE2=     4547561 trying DSYEV.
 Largest valence mixing into a core orbital is  1.44D-04
 Largest core mixing into a valence orbital is  2.60D-05
 Range of M.O.s used for correlation:    12   197
 NBasis=   197 NAE=    27 NBE=    27 NFC=    11 NFV=     0
 NROrb=    186 NOA=    16 NOB=    16 NVA=   170 NVB=   170

 **** Warning!!: The largest alpha MO coefficient is  0.16241076D+02

 Leave Link  801 at Fri Dec 13 14:21:34 2019, MaxMem=  268435456 cpu:       0.2
 (Enter /home/matheus/.gaussian/g09/l804.exe)
 Closed-shell transformation, MDV=   268435456 ITran=4 ISComp=1.
 Semi-Direct transformation.
 ModeAB=           2 MOrb=            16 LenV=     267328644
 LASXX=     48528660 LTotXX=    48528660 LenRXX=    48528660
 LTotAB=    49298776 MaxLAS=    78372960 LenRXY=    78372960
 NonZer=    97057320 LenScr=   146313216 LnRSAI=           0
 LnScr1=           0 LExtra=           0 Total=    273214836
 MaxDsk=          -1 SrtSym=           F ITran=            4
 DoSDTr:  NPSUse=  2
 JobTyp=0 Pass  1:  I=   1 to  16.
 (rs|ai) integrals will be sorted in core.
 Complete sort for first half transformation.
 First half transformation complete.
 Begin second half transformation for I=  10.
 Begin second half transformation for I=  10.
 Complete sort for second half transformation.
 Second half transformation complete.
 SymMOI:  orbitals are not symmetric.
 Spin components of T(2) and E(2):
     alpha-alpha T2 =       0.2586759837D-01 E2=     -0.9955579119D-01
     alpha-beta  T2 =       0.1418915450D+00 E2=     -0.5557994001D+00
     beta-beta   T2 =       0.2586759837D-01 E2=     -0.9955579119D-01
 ANorm=    0.1092532261D+01
 E2 =    -0.7549109824D+00 EUMP2 =    -0.29036389618252D+04
 Leave Link  804 at Fri Dec 13 14:21:56 2019, MaxMem=  268435456 cpu:      43.9
 (Enter /home/matheus/.gaussian/g09/l913.exe)
 CIDS:  MDV=   268435456.
 Frozen-core window:  NFC=  11 NFV=   0.
 IFCWin=0 IBDFC=1 NFBD=     0     0 NFCmp=     0     0 NFFFC=     0     0
 Using DD3R+UMP44R for 1st iteration, S=T.
 Using DD4RQ for 2nd and later iterations.
 Would need an additional       431206676 words for in-memory AO integral storage.
 MP4(SDTQ)
 =========
 DD1Dir will call FoFDir   1 times, MxPair=       272
 NAB=   136 NAA=     0 NBB=     0 NumPrc=  2.
 Integrals replicated using symmetry in FoFDir.
 MinBra= 0 MaxBra= 3 Meth= 1.
 IRaf=       0 NMat= 272 IRICut=     340 DoRegI=T DoRafI=T ISym2E= 2 JSym2E=2.
 MP4(D)= -0.14980434D-01
 MP4(S)= -0.64385806D-02
 MP4(R+Q)=  0.15298672D-01
 T4(AAA)= -0.10289142D-02
 T4(AAB)= -0.14094043D-01
 Time for triples=     1258.15 seconds.
 MP4(T)=   -0.30245915D-01
 E3=       -0.11466360D-01        EUMP3=      -0.29036504282D+04
 E4(DQ)=    0.31823859D-03        UMP4(DQ)=   -0.29036501099D+04
 E4(SDQ)=  -0.61203420D-02        UMP4(SDQ)=  -0.29036565485D+04
 E4(SDTQ)= -0.36366257D-01        UMP4(SDTQ)= -0.29036867944D+04
 VARIATIONAL ENERGIES WITH THE FIRST-ORDER WAVEFUNCTION:
 E(VAR1)=  -0.29035261086D+04     E(CISD,4)=  -0.29035256762D+04
 Largest amplitude= 3.01D-02
 Leave Link  913 at Fri Dec 13 14:33:14 2019, MaxMem=  268435456 cpu:    1346.1
 (Enter /home/matheus/.gaussian/g09/l108.exe)
 Variable Step   Value    
 -------- ---- -----------
     1       3    6.236096
 Leave Link  108 at Fri Dec 13 14:33:14 2019, MaxMem=  268435456 cpu:       0.0
 (Enter /home/matheus/.gaussian/g09/l202.exe)
 ---------------------------------------------------------------------------------------------------
                            Z-MATRIX (ANGSTROMS AND DEGREES)
   CD    Cent   Atom    N1       Length/X        N2       Alpha/Y        N3        Beta/Z          J
 ---------------------------------------------------------------------------------------------------
      1      1  O        0   0.000000          0.000000          0.725000
      2      2  O        0   0.000000          0.000000         -0.725000
      3      3  H        0  -0.863315         -0.314221          1.023510
      4      4  H        0   0.000000          0.918721         -1.023510
      5      5  Kr       0   0.000000          3.300000          0.000000
 ---------------------------------------------------------------------------------------------------
                         Z-Matrix orientation:                         
 ---------------------------------------------------------------------
 Center     Atomic      Atomic             Coordinates (Angstroms)
 Number     Number       Type             X           Y           Z
 ---------------------------------------------------------------------
      1          8           0        0.000000    0.000000    0.725000
      2          8           0        0.000000    0.000000   -0.725000
      3          1           0       -0.863315   -0.314221    1.023510
      4          1           0        0.000000    0.918721   -1.023510
      5         36           0        0.000000    3.300000    0.000000
 ---------------------------------------------------------------------
                    Distance matrix (angstroms):
                    1          2          3          4          5
     1  O    0.000000
     2  O    1.450000   0.000000
     3  H    0.966000   1.975180   0.000000
     4  H    1.975180   0.966000   2.540817   0.000000
     5  Kr   3.378702   3.378702   3.854281   2.591923   0.000000
 Stoichiometry    H2KrO2
 Framework group  C1[X(H2KrO2)]
 Deg. of freedom     9
 Full point group                 C1      NOp   1
 RotChk:  IX=0 Diff= 1.39D-03
 Largest Abelian subgroup         C1      NOp   1
 Largest concise Abelian subgroup C1      NOp   1
                         Standard orientation:                         
 ---------------------------------------------------------------------
 Center     Atomic      Atomic             Coordinates (Angstroms)
 Number     Number       Type             X           Y           Z
 ---------------------------------------------------------------------
      1          8           0       -2.218282   -0.693810   -0.114511
      2          8           0       -2.202660    0.750610    0.011609
      3          1           0       -2.550390   -1.062259    0.714408
      4          1           0       -1.280910    1.036749    0.052334
      5         36           0        1.088857   -0.011914    0.001569
 ---------------------------------------------------------------------
 Rotational constants (GHZ):     25.7275139      1.9265757      1.8010659
 Leave Link  202 at Fri Dec 13 14:33:14 2019, MaxMem=  268435456 cpu:       0.0
 (Enter /home/matheus/.gaussian/g09/l301.exe)
 Standard basis: Aug-CC-pVTZ (5D, 7F)
 Ernie: Thresh=  0.10000D-02 Tol=  0.10000D-05 Strict=F.
 Ernie:  38 primitive shells out of 205 were deleted.
 There are   197 symmetry adapted basis functions of A   symmetry.
 Integral buffers will be    131072 words long.
 Raffenetti 1 integral format.
 Two-electron integral symmetry is turned on.
   197 basis functions,   415 primitive gaussians,   229 cartesian basis functions
    27 alpha electrons       27 beta electrons
       nuclear repulsion energy       139.1230328590 Hartrees.
 IExCor=    0 DFT=F Ex=HF Corr=None ExCW=0 ScaHFX=  1.000000
 ScaDFX=  1.000000  1.000000  1.000000  1.000000 ScalE2=  1.000000  1.000000
 IRadAn=      5 IRanWt=     -1 IRanGd=            0 ICorTp=0
 NAtoms=    5 NActive=    5 NUniq=    5 SFac= 1.00D+00 NAtFMM=   60 NAOKFM=F Big=F
 Leave Link  301 at Fri Dec 13 14:33:14 2019, MaxMem=  268435456 cpu:       0.0
 (Enter /home/matheus/.gaussian/g09/l302.exe)
 NPDir=0 NMtPBC=     1 NCelOv=     1 NCel=       1 NClECP=     1 NCelD=      1
         NCelK=      1 NCelE2=     1 NClLst=     1 CellRange=     0.0.
 One-electron integrals computed using PRISM.
 NBasis=   197 RedAO= T  NBF=   197
 NBsUse=   197 1.00D-06 NBFU=   197
 Leave Link  302 at Fri Dec 13 14:33:15 2019, MaxMem=  268435456 cpu:       0.2
 (Enter /home/matheus/.gaussian/g09/l303.exe)
 DipDrv:  MaxL=1.
 Leave Link  303 at Fri Dec 13 14:33:15 2019, MaxMem=  268435456 cpu:       0.0
 (Enter /home/matheus/.gaussian/g09/l401.exe)
 Initial guess read from the read-write file.
 B after Tr=     0.000000    0.000000    0.000000
         Rot=    1.000000    0.000000    0.000000    0.000000 Ang=   0.00 deg.
 Guess basis will be translated and rotated to current coordinates.
 Initial guess orbital symmetries:
       Occupied  (A) (A) (A) (A) (A) (A) (A) (A) (A) (A) (A) (A)
                 (A) (A) (A) (A) (A) (A) (A) (A) (A) (A) (A) (A)
                 (A) (A) (A)
       Virtual   (A) (A) (A) (A) (A) (A) (A) (A) (A) (A) (A) (A)
                 (A) (A) (A) (A) (A) (A) (A) (A) (A) (A) (A) (A)
                 (A) (A) (A) (A) (A) (A) (A) (A) (A) (A) (A) (A)
                 (A) (A) (A) (A) (A) (A) (A) (A) (A) (A) (A) (A)
                 (A) (A) (A) (A) (A) (A) (A) (A) (A) (A) (A) (A)
                 (A) (A) (A) (A) (A) (A) (A) (A) (A) (A) (A) (A)
                 (A) (A) (A) (A) (A) (A) (A) (A) (A) (A) (A) (A)
                 (A) (A) (A) (A) (A) (A) (A) (A) (A) (A) (A) (A)
                 (A) (A) (A) (A) (A) (A) (A) (A) (A) (A) (A) (A)
                 (A) (A) (A) (A) (A) (A) (A) (A) (A) (A) (A) (A)
                 (A) (A) (A) (A) (A) (A) (A) (A) (A) (A) (A) (A)
                 (A) (A) (A) (A) (A) (A) (A) (A) (A) (A) (A) (A)
                 (A) (A) (A) (A) (A) (A) (A) (A) (A) (A) (A) (A)
                 (A) (A) (A) (A) (A) (A) (A) (A) (A) (A) (A) (A)
                 (A) (A)
 The electronic state of the initial guess is 1-A.
 Generating alternative initial guess.
 Harris functional with IExCor=  205 diagonalized for initial guess.
 ExpMin= 2.53D-02 ExpMax= 1.17D+07 ExpMxC= 1.33D+04 IAcc=3 IRadAn=         5 AccDes= 0.00D+00
 HarFok:  IExCor=  205 AccDes= 0.00D+00 IRadAn=         5 IDoV= 1
 ScaDFX=  1.000000  1.000000  1.000000  1.000000
 FoFCou: FMM=F IPFlag=           0 FMFlag=      100000 FMFlg1=           0
         NFxFlg=           0 DoJE=T BraDBF=F KetDBF=T FulRan=T
         Omega=  0.000000  0.000000  1.000000  0.000000  0.000000 ICntrl=     500 IOpCl=  0
         NMat0=    1 NMatS0=    1 NMatT0=    0 NMatD0=    1 NMtDS0=    0 NMtDT0=    0
         I1Cent=           4 NGrid=           0.
 Petite list used in FoFCou.
 Harris En= -2901.93462627414    
 Leave Link  401 at Fri Dec 13 14:33:15 2019, MaxMem=  268435456 cpu:       1.2
 (Enter /home/matheus/.gaussian/g09/l502.exe)
 Closed shell SCF:
 Requested convergence on RMS density matrix=1.00D-08 within 128 cycles.
 Requested convergence on MAX density matrix=1.00D-06.
 Requested convergence on             energy=1.00D-06.
 No special actions if energy rises.
 Using DIIS extrapolation, IDIIS=  1040.
 Integral symmetry usage will be decided dynamically.
 IEnd=      178489 IEndB=      178489 NGot=   268435456 MDV=   268326278
 LenX=   268326278 LenY=   268273396
 Fock matrices will be formed incrementally for  20 cycles.

 Cycle   1  Pass 0  IDiag  1:
 FoFCou: FMM=F IPFlag=           0 FMFlag=      100000 FMFlg1=           0
         NFxFlg=           0 DoJE=F BraDBF=F KetDBF=F FulRan=T
         Omega=  0.000000  0.000000  1.000000  0.000000  0.000000 ICntrl=       0 IOpCl=  0
         NMat0=    1 NMatS0=    1 NMatT0=    0 NMatD0=    1 NMtDS0=    0 NMtDT0=    0
         I1Cent=           0 NGrid=           0.
 Symmetry not used in FoFCou.
 E= -2902.88525921295    
 DIIS: error= 2.74D-04 at cycle   1 NSaved=   1.
 NSaved= 1 IEnMin= 1 EnMin= -2902.88525921295     IErMin= 1 ErrMin= 2.74D-04
 ErrMax= 2.74D-04 EMaxC= 1.00D-01 BMatC= 3.90D-05 BMatP= 3.90D-05
 IDIUse=3 WtCom= 9.97D-01 WtEn= 2.74D-03
 Coeff-Com:  0.100D+01
 Coeff-En:   0.100D+01
 Coeff:      0.100D+01
 Gap=     0.522 Goal=   None    Shift=    0.000
 RMSDP=5.62D-05 MaxDP=1.50D-03              OVMax= 2.46D-03

 Cycle   2  Pass 0  IDiag  1:
 RMSU=  3.97D-05    CP:  1.00D+00
 E= -2902.88530568464     Delta-E=       -0.000046471690 Rises=F Damp=F
 DIIS: error= 4.93D-05 at cycle   2 NSaved=   2.
 NSaved= 2 IEnMin= 2 EnMin= -2902.88530568464     IErMin= 2 ErrMin= 4.93D-05
 ErrMax= 4.93D-05 EMaxC= 1.00D-01 BMatC= 1.14D-06 BMatP= 3.90D-05
 IDIUse=1 WtCom= 1.00D+00 WtEn= 0.00D+00
 Coeff-Com: -0.883D-01 0.109D+01
 Coeff:     -0.883D-01 0.109D+01
 Gap=     0.521 Goal=   None    Shift=    0.000
 RMSDP=9.83D-06 MaxDP=3.17D-04 DE=-4.65D-05 OVMax= 5.39D-04

 Initial convergence to 1.0D-05 achieved.  Increase integral accuracy.
 Cycle   3  Pass 1  IDiag  1:
 E= -2902.88530752258     Delta-E=       -0.000001837939 Rises=F Damp=F
 DIIS: error= 1.80D-05 at cycle   1 NSaved=   1.
 NSaved= 1 IEnMin= 1 EnMin= -2902.88530752258     IErMin= 1 ErrMin= 1.80D-05
 ErrMax= 1.80D-05 EMaxC= 1.00D-01 BMatC= 1.44D-07 BMatP= 1.44D-07
 IDIUse=1 WtCom= 1.00D+00 WtEn= 0.00D+00
 Coeff-Com:  0.100D+01
 Coeff:      0.100D+01
 Gap=     0.522 Goal=   None    Shift=    0.000
 RMSDP=9.83D-06 MaxDP=3.17D-04 DE=-1.84D-06 OVMax= 1.44D-04

 Cycle   4  Pass 1  IDiag  1:
 RMSU=  1.50D-06    CP:  1.00D+00
 E= -2902.88530766292     Delta-E=       -0.000000140348 Rises=F Damp=F
 DIIS: error= 9.93D-06 at cycle   2 NSaved=   2.
 NSaved= 2 IEnMin= 2 EnMin= -2902.88530766292     IErMin= 2 ErrMin= 9.93D-06
 ErrMax= 9.93D-06 EMaxC= 1.00D-01 BMatC= 5.15D-08 BMatP= 1.44D-07
 IDIUse=1 WtCom= 1.00D+00 WtEn= 0.00D+00
 Coeff-Com:  0.344D+00 0.656D+00
 Coeff:      0.344D+00 0.656D+00
 Gap=     0.521 Goal=   None    Shift=    0.000
 RMSDP=7.12D-07 MaxDP=3.60D-05 DE=-1.40D-07 OVMax= 4.60D-05

 Cycle   5  Pass 1  IDiag  1:
 RMSU=  5.03D-07    CP:  1.00D+00  1.00D+00
 E= -2902.88530770179     Delta-E=       -0.000000038867 Rises=F Damp=F
 DIIS: error= 3.21D-06 at cycle   3 NSaved=   3.
 NSaved= 3 IEnMin= 3 EnMin= -2902.88530770179     IErMin= 3 ErrMin= 3.21D-06
 ErrMax= 3.21D-06 EMaxC= 1.00D-01 BMatC= 3.67D-09 BMatP= 5.15D-08
 IDIUse=1 WtCom= 1.00D+00 WtEn= 0.00D+00
 Coeff-Com: -0.115D+00-0.385D-01 0.115D+01
 Coeff:     -0.115D+00-0.385D-01 0.115D+01
 Gap=     0.521 Goal=   None    Shift=    0.000
 RMSDP=4.74D-07 MaxDP=1.65D-05 DE=-3.89D-08 OVMax= 3.20D-05

 Cycle   6  Pass 1  IDiag  1:
 RMSU=  1.53D-07    CP:  1.00D+00  1.16D+00  1.36D+00
 E= -2902.88530771046     Delta-E=       -0.000000008668 Rises=F Damp=F
 DIIS: error= 1.58D-06 at cycle   4 NSaved=   4.
 NSaved= 4 IEnMin= 4 EnMin= -2902.88530771046     IErMin= 4 ErrMin= 1.58D-06
 ErrMax= 1.58D-06 EMaxC= 1.00D-01 BMatC= 8.25D-10 BMatP= 3.67D-09
 IDIUse=1 WtCom= 1.00D+00 WtEn= 0.00D+00
 Coeff-Com: -0.903D-01-0.136D+00 0.305D+00 0.921D+00
 Coeff:     -0.903D-01-0.136D+00 0.305D+00 0.921D+00
 Gap=     0.521 Goal=   None    Shift=    0.000
 RMSDP=1.88D-07 MaxDP=4.93D-06 DE=-8.67D-09 OVMax= 1.47D-05

 Cycle   7  Pass 1  IDiag  1:
 RMSU=  6.60D-08    CP:  1.00D+00  1.21D+00  1.54D+00  1.19D+00
 E= -2902.88530771186     Delta-E=       -0.000000001399 Rises=F Damp=F
 DIIS: error= 4.72D-07 at cycle   5 NSaved=   5.
 NSaved= 5 IEnMin= 5 EnMin= -2902.88530771186     IErMin= 5 ErrMin= 4.72D-07
 ErrMax= 4.72D-07 EMaxC= 1.00D-01 BMatC= 4.53D-11 BMatP= 8.25D-10
 IDIUse=1 WtCom= 1.00D+00 WtEn= 0.00D+00
[...]
     1  O    0.000000
     2  O    1.450000   0.000000
     3  H    0.966000   1.975180   0.000000
     4  H    1.975180   0.966000   2.540817   0.000000
     5  Kr   5.052289   5.052289   5.480313   4.207661   0.000000
 Stoichiometry    H2KrO2
 Framework group  C1[X(H2KrO2)]
 Deg. of freedom     9
 Full point group                 C1      NOp   1
 RotChk:  IX=0 Diff= 4.38D-04
 Largest Abelian subgroup         C1      NOp   1
 Largest concise Abelian subgroup C1      NOp   1
                         Standard orientation:                         
 ---------------------------------------------------------------------
 Center     Atomic      Atomic             Coordinates (Angstroms)
 Number     Number       Type             X           Y           Z
 ---------------------------------------------------------------------
      1          8           0       -3.347351   -0.702876   -0.113803
      2          8           0       -3.340916    0.741517    0.013421
      3          1           0       -3.672093   -1.074253    0.716726
      4          1           0       -2.420932    1.033951    0.049025
      5         36           0        1.655532   -0.007467    0.001036
 ---------------------------------------------------------------------
 Rotational constants (GHZ):     25.7201059      0.8391004      0.8143789
 Leave Link  202 at Fri Dec 13 18:03:00 2019, MaxMem=  268435456 cpu:       0.0
 (Enter /home/matheus/.gaussian/g09/l301.exe)
 Standard basis: Aug-CC-pVTZ (5D, 7F)
 Ernie: Thresh=  0.10000D-02 Tol=  0.10000D-05 Strict=F.
 Ernie:  38 primitive shells out of 205 were deleted.
 There are   197 symmetry adapted basis functions of A   symmetry.
 Integral buffers will be    131072 words long.
 Raffenetti 1 integral format.
 Two-electron integral symmetry is turned on.
   197 basis functions,   415 primitive gaussians,   229 cartesian basis functions
    27 alpha electrons       27 beta electrons
       nuclear repulsion energy       104.9504969950 Hartrees.
 IExCor=    0 DFT=F Ex=HF Corr=None ExCW=0 ScaHFX=  1.000000
 ScaDFX=  1.000000  1.000000  1.000000  1.000000 ScalE2=  1.000000  1.000000
 IRadAn=      5 IRanWt=     -1 IRanGd=            0 ICorTp=0
 NAtoms=    5 NActive=    5 NUniq=    5 SFac= 1.00D+00 NAtFMM=   60 NAOKFM=F Big=F
 Leave Link  301 at Fri Dec 13 18:03:00 2019, MaxMem=  268435456 cpu:       0.0
 (Enter /home/matheus/.gaussian/g09/l302.exe)
 NPDir=0 NMtPBC=     1 NCelOv=     1 NCel=       1 NClECP=     1 NCelD=      1
         NCelK=      1 NCelE2=     1 NClLst=     1 CellRange=     0.0.
 One-electron integrals computed using PRISM.
 NBasis=   197 RedAO= T  NBF=   197
 NBsUse=   197 1.00D-06 NBFU=   197
 Leave Link  302 at Fri Dec 13 18:03:00 2019, MaxMem=  268435456 cpu:       0.2
 (Enter /home/matheus/.gaussian/g09/l303.exe)
 DipDrv:  MaxL=1.
 Leave Link  303 at Fri Dec 13 18:03:01 2019, MaxMem=  268435456 cpu:       0.1
 (Enter /home/matheus/.gaussian/g09/l401.exe)
 Initial guess read from the read-write file.
 B after Tr=     0.000000    0.000000    0.000000
         Rot=    1.000000    0.000000    0.000000    0.000000 Ang=   0.00 deg.
 Guess basis will be translated and rotated to current coordinates.
 Initial guess orbital symmetries:
       Occupied  (A) (A) (A) (A) (A) (A) (A) (A) (A) (A) (A) (A)
                 (A) (A) (A) (A) (A) (A) (A) (A) (A) (A) (A) (A)
                 (A) (A) (A)
       Virtual   (A) (A) (A) (A) (A) (A) (A) (A) (A) (A) (A) (A)
                 (A) (A) (A) (A) (A) (A) (A) (A) (A) (A) (A) (A)
                 (A) (A) (A) (A) (A) (A) (A) (A) (A) (A) (A) (A)
                 (A) (A) (A) (A) (A) (A) (A) (A) (A) (A) (A) (A)
                 (A) (A) (A) (A) (A) (A) (A) (A) (A) (A) (A) (A)
                 (A) (A) (A) (A) (A) (A) (A) (A) (A) (A) (A) (A)
                 (A) (A) (A) (A) (A) (A) (A) (A) (A) (A) (A) (A)
                 (A) (A) (A) (A) (A) (A) (A) (A) (A) (A) (A) (A)
                 (A) (A) (A) (A) (A) (A) (A) (A) (A) (A) (A) (A)
                 (A) (A) (A) (A) (A) (A) (A) (A) (A) (A) (A) (A)
                 (A) (A) (A) (A) (A) (A) (A) (A) (A) (A) (A) (A)
                 (A) (A) (A) (A) (A) (A) (A) (A) (A) (A) (A) (A)
                 (A) (A) (A) (A) (A) (A) (A) (A) (A) (A) (A) (A)
                 (A) (A) (A) (A) (A) (A) (A) (A) (A) (A) (A) (A)
                 (A) (A)
 The electronic state of the initial guess is 1-A.
 Generating alternative initial guess.
 Harris functional with IExCor=  205 diagonalized for initial guess.
 ExpMin= 2.53D-02 ExpMax= 1.17D+07 ExpMxC= 1.33D+04 IAcc=3 IRadAn=         5 AccDes= 0.00D+00
 HarFok:  IExCor=  205 AccDes= 0.00D+00 IRadAn=         5 IDoV= 1
 ScaDFX=  1.000000  1.000000  1.000000  1.000000
 FoFCou: FMM=F IPFlag=           0 FMFlag=      100000 FMFlg1=           0
         NFxFlg=           0 DoJE=T BraDBF=F KetDBF=T FulRan=T
         Omega=  0.000000  0.000000  1.000000  0.000000  0.000000 ICntrl=     500 IOpCl=  0
         NMat0=    1 NMatS0=    1 NMatT0=    0 NMatD0=    1 NMtDS0=    0 NMtDT0=    0
         I1Cent=           4 NGrid=           0.
 Petite list used in FoFCou.
 Harris En= -2901.93418605721    
 Leave Link  401 at Fri Dec 13 18:03:01 2019, MaxMem=  268435456 cpu:       1.1
 (Enter /home/matheus/.gaussian/g09/l502.exe)
 Closed shell SCF:
 Requested convergence on RMS density matrix=1.00D-08 within 128 cycles.
 Requested convergence on MAX density matrix=1.00D-06.
 Requested convergence on             energy=1.00D-06.
 No special actions if energy rises.
 Using DIIS extrapolation, IDIIS=  1040.
 Integral symmetry usage will be decided dynamically.
 IEnd=      178489 IEndB=      178489 NGot=   268435456 MDV=   268326278
 LenX=   268326278 LenY=   268273396
 Fock matrices will be formed incrementally for  20 cycles.

 Cycle   1  Pass 0  IDiag  1:
 FoFCou: FMM=F IPFlag=           0 FMFlag=      100000 FMFlg1=           0
         NFxFlg=           0 DoJE=F BraDBF=F KetDBF=F FulRan=T
         Omega=  0.000000  0.000000  1.000000  0.000000  0.000000 ICntrl=       0 IOpCl=  0
         NMat0=    1 NMatS0=    1 NMatT0=    0 NMatD0=    1 NMtDS0=    0 NMtDT0=    0
         I1Cent=           0 NGrid=           0.
 Symmetry not used in FoFCou.
 E= -2902.88809583349    
 DIIS: error= 3.64D-05 at cycle   1 NSaved=   1.
 NSaved= 1 IEnMin= 1 EnMin= -2902.88809583349     IErMin= 1 ErrMin= 3.64D-05
 ErrMax= 3.64D-05 EMaxC= 1.00D-01 BMatC= 5.84D-07 BMatP= 5.84D-07
 IDIUse=1 WtCom= 1.00D+00 WtEn= 0.00D+00
 Coeff-Com:  0.100D+01
 Coeff:      0.100D+01
 Gap=     0.523 Goal=   None    Shift=    0.000
 RMSDP=1.77D-05 MaxDP=7.66D-04              OVMax= 3.09D-04

 Cycle   2  Pass 0  IDiag  1:
 RMSU=  1.25D-05    CP:  1.00D+00
 E= -2902.88809647176     Delta-E=       -0.000000638272 Rises=F Damp=F
 DIIS: error= 7.43D-06 at cycle   2 NSaved=   2.
 NSaved= 2 IEnMin= 2 EnMin= -2902.88809647176     IErMin= 2 ErrMin= 7.43D-06
 ErrMax= 7.43D-06 EMaxC= 1.00D-01 BMatC= 1.39D-08 BMatP= 5.84D-07
 IDIUse=1 WtCom= 1.00D+00 WtEn= 0.00D+00
 Coeff-Com: -0.468D-01 0.105D+01
 Coeff:     -0.468D-01 0.105D+01
 Gap=     0.523 Goal=   None    Shift=    0.000
 RMSDP=2.28D-06 MaxDP=9.49D-05 DE=-6.38D-07 OVMax= 5.26D-05

 Initial convergence to 1.0D-05 achieved.  Increase integral accuracy.
 Cycle   3  Pass 1  IDiag  1:
 E= -2902.88809649308     Delta-E=       -0.000000021319 Rises=F Damp=F
 DIIS: error= 3.32D-06 at cycle   1 NSaved=   1.
 NSaved= 1 IEnMin= 1 EnMin= -2902.88809649308     IErMin= 1 ErrMin= 3.32D-06
 ErrMax= 3.32D-06 EMaxC= 1.00D-01 BMatC= 1.23D-09 BMatP= 1.23D-09
 IDIUse=1 WtCom= 1.00D+00 WtEn= 0.00D+00
 Coeff-Com:  0.100D+01
 Coeff:      0.100D+01
 Gap=     0.523 Goal=   None    Shift=    0.000
 RMSDP=2.28D-06 MaxDP=9.49D-05 DE=-2.13D-08 OVMax= 1.99D-05

 Cycle   4  Pass 1  IDiag  1:
 RMSU=  1.97D-07    CP:  1.00D+00
 E= -2902.88809649511     Delta-E=       -0.000000002030 Rises=F Damp=F
 DIIS: error= 7.70D-07 at cycle   2 NSaved=   2.
 NSaved= 2 IEnMin= 2 EnMin= -2902.88809649511     IErMin= 2 ErrMin= 7.70D-07
 ErrMax= 7.70D-07 EMaxC= 1.00D-01 BMatC= 2.43D-10 BMatP= 1.23D-09
 IDIUse=1 WtCom= 1.00D+00 WtEn= 0.00D+00
 Coeff-Com:  0.166D+00 0.834D+00
 Coeff:      0.166D+00 0.834D+00
 Gap=     0.523 Goal=   None    Shift=    0.000
 RMSDP=7.26D-08 MaxDP=1.90D-06 DE=-2.03D-09 OVMax= 4.93D-06

 Cycle   5  Pass 1  IDiag  1:
 RMSU=  4.19D-08    CP:  1.00D+00  1.15D+00
 E= -2902.88809649545     Delta-E=       -0.000000000338 Rises=F Damp=F
 DIIS: error= 4.58D-07 at cycle   3 NSaved=   3.
 NSaved= 3 IEnMin= 3 EnMin= -2902.88809649545     IErMin= 3 ErrMin= 4.58D-07
 ErrMax= 4.58D-07 EMaxC= 1.00D-01 BMatC= 5.92D-11 BMatP= 2.43D-10
 IDIUse=1 WtCom= 1.00D+00 WtEn= 0.00D+00
 Coeff-Com: -0.146D+00 0.695D-01 0.108D+01
 Coeff:     -0.146D+00 0.695D-01 0.108D+01
 Gap=     0.523 Goal=   None    Shift=    0.000
 RMSDP=5.07D-08 MaxDP=1.39D-06 DE=-3.38D-10 OVMax= 4.52D-06

 Cycle   6  Pass 1  IDiag  1:
 RMSU=  2.16D-08    CP:  1.00D+00  1.28D+00  1.27D+00
 E= -2902.88809649559     Delta-E=       -0.000000000143 Rises=F Damp=F
 DIIS: error= 1.97D-07 at cycle   4 NSaved=   4.
 NSaved= 4 IEnMin= 4 EnMin= -2902.88809649559     IErMin= 4 ErrMin= 1.97D-07
 ErrMax= 1.97D-07 EMaxC= 1.00D-01 BMatC= 1.15D-11 BMatP= 5.92D-11
 IDIUse=1 WtCom= 1.00D+00 WtEn= 0.00D+00
 Coeff-Com: -0.750D-01-0.142D+00 0.307D+00 0.910D+00
 Coeff:     -0.750D-01-0.142D+00 0.307D+00 0.910D+00
 Gap=     0.523 Goal=   None    Shift=    0.000
 RMSDP=2.07D-08 MaxDP=6.15D-07 DE=-1.43D-10 OVMax= 2.31D-06

 Cycle   7  Pass 1  IDiag  1:
 RMSU=  7.95D-09    CP:  1.00D+00  1.32D+00  1.47D+00  1.29D+00
 E= -2902.88809649560     Delta-E=       -0.000000000013 Rises=F Damp=F
 DIIS: error= 6.55D-08 at cycle   5 NSaved=   5.
 NSaved= 5 IEnMin= 5 EnMin= -2902.88809649560     IErMin= 5 ErrMin= 6.55D-08
 ErrMax= 6.55D-08 EMaxC= 1.00D-01 BMatC= 9.23D-13 BMatP= 1.15D-11
 IDIUse=1 WtCom= 1.00D+00 WtEn= 0.00D+00
 Coeff-Com:  0.557D-01 0.763D-01-0.279D+00-0.514D+00 0.166D+01
 Coeff:      0.557D-01 0.763D-01-0.279D+00-0.514D+00 0.166D+01
 Gap=     0.523 Goal=   None    Shift=    0.000
 RMSDP=1.29D-08 MaxDP=3.75D-07 DE=-1.32D-11 OVMax= 1.50D-06

 Cycle   8  Pass 1  IDiag  1:
 RMSU=  3.63D-09    CP:  1.00D+00  1.30D+00  1.51D+00  1.55D+00  1.62D+00
 E= -2902.88809649560     Delta-E=        0.000000000002 Rises=F Damp=F
 DIIS: error= 2.38D-08 at cycle   6 NSaved=   6.
 NSaved= 6 IEnMin= 5 EnMin= -2902.88809649560     IErMin= 6 ErrMin= 2.38D-08
 ErrMax= 2.38D-08 EMaxC= 1.00D-01 BMatC= 9.65D-14 BMatP= 9.23D-13
 IDIUse=1 WtCom= 1.00D+00 WtEn= 0.00D+00
 Coeff-Com: -0.274D-02-0.246D-02 0.221D-01 0.157D-01-0.270D+00 0.124D+01
 Coeff:     -0.274D-02-0.246D-02 0.221D-01 0.157D-01-0.270D+00 0.124D+01
 Gap=     0.523 Goal=   None    Shift=    0.000
 RMSDP=3.07D-09 MaxDP=8.34D-08 DE= 1.82D-12 OVMax= 4.46D-07

 SCF Done:  E(RHF) =  -2902.88809650     A.U. after    8 cycles
             Convg  =    0.3073D-08             -V/T =  2.0001
 KE= 2.902566020357D+03 PE=-7.150501185807D+03 EE= 1.240096571960D+03
 Leave Link  502 at Fri Dec 13 18:03:22 2019, MaxMem=  268435456 cpu:      41.1
 (Enter /home/matheus/.gaussian/g09/l801.exe)
 Windowed orbitals will be sorted by symmetry type.
 ExpMin= 2.53D-02 ExpMax= 1.17D+07 ExpMxC= 1.33D+04 IAcc=3 IRadAn=         5 AccDes= 0.00D+00
 HarFok:  IExCor=  205 AccDes= 0.00D+00 IRadAn=         5 IDoV=-2
 ScaDFX=  1.000000  1.000000  1.000000  1.000000
 DSYEVD returned Info=          93 IAlg= 4 N=    46 NDim=    46 NE2=     4547561 trying DSYEV.
 DSYEVD returned Info=          89 IAlg= 4 N=    59 NDim=    59 NE2=     4547561 trying DSYEV.
 Largest valence mixing into a core orbital is  1.47D-04
 Largest core mixing into a valence orbital is  2.60D-05
 Range of M.O.s used for correlation:    12   197
 NBasis=   197 NAE=    27 NBE=    27 NFC=    11 NFV=     0
 NROrb=    186 NOA=    16 NOB=    16 NVA=   170 NVB=   170

 **** Warning!!: The largest alpha MO coefficient is  0.13895479D+02

 Leave Link  801 at Fri Dec 13 18:03:22 2019, MaxMem=  268435456 cpu:       0.2
 (Enter /home/matheus/.gaussian/g09/l804.exe)
 Closed-shell transformation, MDV=   268435456 ITran=4 ISComp=1.
 Semi-Direct transformation.
 ModeAB=           4 MOrb=            16 LenV=     267350438
 LASXX=     48528660 LTotXX=    48528660 LenRXX=    97827436
 LTotAB=    49298776 MaxLAS=    72275136 LenRXY=           0
 NonZer=   146356096 LenScr=   220395520 LnRSAI=    72275136
 LnScr1=   109171712 LExtra=           0 Total=    499669804
 MaxDsk=          -1 SrtSym=           T ITran=            4
 DoSDTr:  NPSUse=  2
 JobTyp=0 Pass  1:  I=   1 to  16.
 (rs|ai) integrals will be sorted in core.
 Complete sort for first half transformation.
 First half transformation complete.
 Begin second half transformation for I=  10.
 Complete sort for second half transformation.
 Second half transformation complete.
 SymMOI:  orbitals are not symmetric.
 Spin components of T(2) and E(2):
     alpha-alpha T2 =       0.2550939134D-01 E2=     -0.9842273852D-01
     alpha-beta  T2 =       0.1412721794D+00 E2=     -0.5529494761D+00
     beta-beta   T2 =       0.2550939134D-01 E2=     -0.9842273852D-01
 ANorm=    0.1091920767D+01
 E2 =    -0.7497949532D+00 EUMP2 =    -0.29036378914488D+04
 Leave Link  804 at Fri Dec 13 18:03:41 2019, MaxMem=  268435456 cpu:      38.5
 (Enter /home/matheus/.gaussian/g09/l913.exe)
 CIDS:  MDV=   268435456.
 Frozen-core window:  NFC=  11 NFV=   0.
 IFCWin=0 IBDFC=1 NFBD=     0     0 NFCmp=     0     0 NFFFC=     0     0
 Using DD3R+UMP44R for 1st iteration, S=T.
 Using DD4RQ for 2nd and later iterations.
 Would need an additional       431206676 words for in-memory AO integral storage.
 MP4(SDTQ)
 =========
 DD1Dir will call FoFDir   1 times, MxPair=       272
 NAB=   136 NAA=     0 NBB=     0 NumPrc=  2.
 Integrals replicated using symmetry in FoFDir.
 MinBra= 0 MaxBra= 3 Meth= 1.
 IRaf=       0 NMat= 272 IRICut=     340 DoRegI=T DoRafI=T ISym2E= 2 JSym2E=2.
 MP4(D)= -0.14971470D-01
 MP4(S)= -0.62884941D-02
 MP4(R+Q)=  0.14975425D-01
 T4(AAA)= -0.98439437D-03
 T4(AAB)= -0.13797365D-01
 Time for triples=     1313.02 seconds.
 MP4(T)=   -0.29563520D-01
 E3=       -0.11989280D-01        EUMP3=      -0.29036498807D+04
 E4(DQ)=    0.39549031D-05        UMP4(DQ)=   -0.29036498768D+04
 E4(SDQ)=  -0.62845392D-02        UMP4(SDQ)=  -0.29036561653D+04
 E4(SDTQ)= -0.35848059D-01        UMP4(SDTQ)= -0.29036857288D+04
 VARIATIONAL ENERGIES WITH THE FIRST-ORDER WAVEFUNCTION:
 E(VAR1)=  -0.29035270213D+04     E(CISD,4)=  -0.29035269619D+04
 Largest amplitude= 2.07D-02
 Leave Link  913 at Fri Dec 13 18:15:22 2019, MaxMem=  268435456 cpu:    1395.4
 (Enter /home/matheus/.gaussian/g09/l108.exe)
 Scan completed.

 Summary of the potential surface scan:
   N      R1          SCF          MP2          MP3         MP4DQ       MP4SDQ       MP4SDTQ  
 ----  ---------  -----------  -----------  -----------  -----------  -----------  -----------
    1     3.0000  -2902.87977  -2903.63672  -2903.64791  -2903.64746  -2903.65396  -2903.68447
    2     3.1000  -2902.88227  -2903.63812  -2903.64947  -2903.64909  -2903.65555  -2903.68592
    3     3.2000  -2902.88405  -2903.63896  -2903.65043  -2903.65011  -2903.65655  -2903.68679
    4     3.3000  -2902.88531  -2903.63942  -2903.65098  -2903.65071  -2903.65713  -2903.68727
    5     3.4000  -2902.88619  -2903.63962  -2903.65125  -2903.65103  -2903.65743  -2903.68748
    6     3.5000  -2902.88681  -2903.63965  -2903.65134  -2903.65116  -2903.65754  -2903.68751
    7     3.6000  -2902.88724  -2903.63957  -2903.65132  -2903.65117  -2903.65753  -2903.68744
    8     3.7000  -2902.88753  -2903.63944  -2903.65123  -2903.65110  -2903.65746  -2903.68730
    9     3.8000  -2902.88773  -2903.63927  -2903.65110  -2903.65099  -2903.65734  -2903.68714
   10     3.9000  -2902.88787  -2903.63910  -2903.65095  -2903.65087  -2903.65720  -2903.68696
   11     4.0000  -2902.88796  -2903.63893  -2903.65081  -2903.65074  -2903.65707  -2903.68679
   12     4.1000  -2902.88802  -2903.63877  -2903.65067  -2903.65061  -2903.65693  -2903.68662
   13     4.2000  -2902.88805  -2903.63862  -2903.65054  -2903.65049  -2903.65681  -2903.68647
   14     4.3000  -2902.88808  -2903.63849  -2903.65042  -2903.65038  -2903.65669  -2903.68634
   15     4.4000  -2902.88809  -2903.63837  -2903.65031  -2903.65029  -2903.65659  -2903.68622
   16     4.5000  -2902.88810  -2903.63827  -2903.65022  -2903.65020  -2903.65650  -2903.68611
   17     4.6000  -2902.88810  -2903.63817  -2903.65013  -2903.65012  -2903.65641  -2903.68601
   18     4.7000  -2902.88810  -2903.63809  -2903.65006  -2903.65005  -2903.65634  -2903.68593
   19     4.8000  -2902.88810  -2903.63801  -2903.64999  -2903.64998  -2903.65628  -2903.68585
   20     4.9000  -2902.88810  -2903.63795  -2903.64993  -2903.64993  -2903.65622  -2903.68579
   21     5.0000  -2902.88810  -2903.63789  -2903.64988  -2903.64988  -2903.65617  -2903.68573
 ----  ---------  -----------  -----------  -----------  -----------  -----------  -----------
  
 Leave Link  108 at Fri Dec 13 18:15:22 2019, MaxMem=  268435456 cpu:       0.0
 (Enter /home/matheus/.gaussian/g09/l9999.exe)
 1\1\GINC-REDGIANT\Scan\RMP4SDTQ-FC\Aug-CC-pVTZ\H2Kr1O2\ROOT\13-Dec-201
 9\1\\#p mp4/aug-cc-PVTz int=ultrafine Scan\\PTCC\\0,1\O,0,0.,0.,0.725\
 O,0,0.,0.,-0.725\H,0,-0.8633149634,-0.3142209495,1.0235104166\H,0,0.,0
 .9187205947,-1.0235104166\Kr,0,0.,R1,0.\\R1=3.,s,20,0.1\\Version=EM64L
 -G09RevC.01\State=1-A\HF=-2902.8797686,-2902.8822724,-2902.8840508,-29
 02.8853077,-2902.8861912,-2902.8868086,-2902.8872371,-2902.8875319,-29
 02.8877326,-2902.8878676,-2902.887957,-2902.8880152,-2902.8880524,-290
 2.8880754,-2902.8880891,-2902.8880967,-2902.8881002,-2902.8881011,-290
 2.8881003,-2902.8880986,-2902.8880965\MP2=-2903.6367162,-2903.6381198,
 -2903.6389618,-2903.6394185,-2903.6396164,-2903.639646,-2903.6395715,-
 2903.6394375,-2903.6392741,-2903.6391011,-2903.6389307,-2903.6387702,-
 2903.6386228,-2903.6384899,-2903.6383711,-2903.6382655,-2903.6381717,-
 2903.6380885,-2903.6380147,-2903.6379494,-2903.6378914\MP3=-2903.64791
 49,-2903.649468,-2903.6504282,-2903.6509787,-2903.6512519,-2903.651342
 4,-2903.6513178,-2903.651225,-2903.6510961,-2903.6509521,-2903.6508063
 ,-2903.6506664,-2903.6505367,-2903.6504188,-2903.6503128,-2903.6502181
 ,-2903.6501338,-2903.6500588,-2903.6499922,-2903.6499331,-2903.6498807
 \MP4D=-2903.6628965,-2903.6644487,-2903.6654086,-2903.665959,-2903.666
 2318,-2903.6663219,-2903.6662967,-2903.6662033,-2903.6660736,-2903.665
 9289,-2903.6657825,-2903.665642,-2903.6655118,-2903.6653933,-2903.6652
 868,-2903.6651916,-2903.6651069,-2903.6650315,-2903.6649644,-2903.6649
 049,-2903.6648522\MP4DQ=-2903.6474647,-2903.6490885,-2903.6501099,-290
 3.6507131,-2903.651031,-2903.6511595,-2903.6511669,-2903.651101,-2903.
 6509945,-2903.6508692,-2903.650739,-2903.6506121,-2903.650493,-2903.65
 03839,-2903.6502852,-2903.6501966,-2903.6501172,-2903.6500463,-2903.64
 99831,-2903.6499268,-2903.6498768\MP4SDQ=-2903.6539566,-2903.6555518,-
 2903.6565485,-2903.6571302,-2903.6574294,-2903.6575416,-2903.6575347,-
 2903.6574563,-2903.657339,-2903.6572044,-2903.657066,-2903.6569322,-29
 03.6568072,-2903.6566929,-2903.6565898,-2903.6564973,-2903.6564147,-29
 03.656341,-2903.6562754,-2903.6562171,-2903.6561653\MP4SDTQ=-2903.6844
 737,-2903.6859226,-2903.6867944,-2903.6872693,-2903.687477,-2903.68751
 07,-2903.6874368,-2903.6873012,-2903.6871353,-2903.6869593,-2903.68678
 6,-2903.6866226,-2903.6864726,-2903.6863372,-2903.6862163,-2903.686108
 7,-2903.6860133,-2903.6859287,-2903.6858538,-2903.6857875,-2903.685728
 8\RMSD=4.754e-09,6.065e-09,4.626e-09,3.043e-09,2.651e-09,9.434e-09,8.7
 15e-09,7.784e-09,7.021e-09,9.450e-09,7.641e-09,6.276e-09,5.701e-09,5.3
 92e-09,5.248e-09,5.290e-09,5.363e-09,4.997e-09,4.237e-09,3.552e-09,3.0
 73e-09\PG=C01 [X(H2Kr1O2)]\\@


 TO ERR IS HUMAN - AND TO BLAME IT ON A COMPUTER IS EVEN MORE SO.
 Job cpu time:  0 days  8 hours 41 minutes 58.5 seconds.
 File lengths (MBytes):  RWF=   3955 Int=      0 D2E=      0 Chk=      4 Scr=      1
 Normal termination of Gaussian 09 at Fri Dec 13 18:15:23 2019.
