 Entering Gaussian System, Link 0=g09
 Input=/home/matheus/.ptcc/Inputs/H2O2-Kr_22.com
 Output=/home/matheus/.ptcc/Logs-MP4/H2O2-Kr_22.log
 Initial command:
 /home/matheus/.gaussian/g09/l1.exe /home/matheus/.gaussian/g09/scratch/Gau-12965.inp -scrdir=/home/matheus/.gaussian/g09/scratch/
 Entering Link 1 = /home/matheus/.gaussian/g09/l1.exe PID=     12967.
  
 Copyright (c) 1988,1990,1992,1993,1995,1998,2003,2009,2011,
            Gaussian, Inc.  All Rights Reserved.
  
 This is part of the Gaussian(R) 09 program.  It is based on
 the Gaussian(R) 03 system (copyright 2003, Gaussian, Inc.),
 the Gaussian(R) 98 system (copyright 1998, Gaussian, Inc.),
 the Gaussian(R) 94 system (copyright 1995, Gaussian, Inc.),
 the Gaussian 92(TM) system (copyright 1992, Gaussian, Inc.),
 the Gaussian 90(TM) system (copyright 1990, Gaussian, Inc.),
 the Gaussian 88(TM) system (copyright 1988, Gaussian, Inc.),
 the Gaussian 86(TM) system (copyright 1986, Carnegie Mellon
 University), and the Gaussian 82(TM) system (copyright 1983,
 Carnegie Mellon University). Gaussian is a federally registered
 trademark of Gaussian, Inc.
  
 This software contains proprietary and confidential information,
 including trade secrets, belonging to Gaussian, Inc.
  
 This software is provided under written license and may be
 used, copied, transmitted, or stored only in accord with that
 written license.
  
 The following legend is applicable only to US Government
 contracts under FAR:
  
                    RESTRICTED RIGHTS LEGEND
  
 Use, reproduction and disclosure by the US Government is
 subject to restrictions as set forth in subparagraphs (a)
 and (c) of the Commercial Computer Software - Restricted
 Rights clause in FAR 52.227-19.
  
 Gaussian, Inc.
 340 Quinnipiac St., Bldg. 40, Wallingford CT 06492
  
  
 ---------------------------------------------------------------
 Warning -- This program may not be used in any manner that
 competes with the business of Gaussian, Inc. or will provide
 assistance to any competitor of Gaussian, Inc.  The licensee
 of this program is prohibited from giving any competitor of
 Gaussian, Inc. access to this program.  By using this program,
 the user acknowledges that Gaussian, Inc. is engaged in the
 business of creating and licensing software in the field of
 computational chemistry and represents and warrants to the
 licensee that it is not a competitor of Gaussian, Inc. and that
 it will not use this program in any manner prohibited above.
 ---------------------------------------------------------------
  

 Cite this work as:
 Gaussian 09, Revision C.01,
 M. J. Frisch, G. W. Trucks, H. B. Schlegel, G. E. Scuseria, 
 M. A. Robb, J. R. Cheeseman, G. Scalmani, V. Barone, B. Mennucci, 
 G. A. Petersson, H. Nakatsuji, M. Caricato, X. Li, H. P. Hratchian, 
 A. F. Izmaylov, J. Bloino, G. Zheng, J. L. Sonnenberg, M. Hada, 
 M. Ehara, K. Toyota, R. Fukuda, J. Hasegawa, M. Ishida, T. Nakajima, 
 Y. Honda, O. Kitao, H. Nakai, T. Vreven, J. A. Montgomery, Jr., 
 J. E. Peralta, F. Ogliaro, M. Bearpark, J. J. Heyd, E. Brothers, 
 K. N. Kudin, V. N. Staroverov, T. Keith, R. Kobayashi, J. Normand, 
 K. Raghavachari, A. Rendell, J. C. Burant, S. S. Iyengar, J. Tomasi, 
 M. Cossi, N. Rega, J. M. Millam, M. Klene, J. E. Knox, J. B. Cross, 
 V. Bakken, C. Adamo, J. Jaramillo, R. Gomperts, R. E. Stratmann, 
 O. Yazyev, A. J. Austin, R. Cammi, C. Pomelli, J. W. Ochterski, 
 R. L. Martin, K. Morokuma, V. G. Zakrzewski, G. A. Voth, 
 P. Salvador, J. J. Dannenberg, S. Dapprich, A. D. Daniels, 
 O. Farkas, J. B. Foresman, J. V. Ortiz, J. Cioslowski, 
 and D. J. Fox, Gaussian, Inc., Wallingford CT, 2010.
 
 ******************************************
 Gaussian 09:  EM64L-G09RevC.01 23-Sep-2011
                12-Dec-2019 
 ******************************************
 %mem=2GB
 %nproc=2
 Will use up to    2 processors via shared memory.
 -------------------------------------
 #p mp4/aug-cc-PVTz int=ultrafine Scan
 -------------------------------------
 1/38=1,60=1/1,8;
 2/12=2,17=6,18=5,29=3,40=1/2;
 3/5=16,6=1,7=10,11=9,16=1,25=1,30=1,75=-5/1,2,3;
 4//1;
 5/5=2,38=5/2;
 8/6=4,9=120000,10=1/1,4;
 9/5=5/13;
 6/7=2,8=2,9=2,10=2,18=1/1;
 1/60=1/8(1);
 99/9=1/99;
 2/29=3/2;
 3/5=16,6=1,7=10,11=9,16=1,25=1,30=1,75=-5/1,2,3;
 4/5=5,16=3/1;
 5/5=2,38=5/2;
 8/6=4,9=120000,10=1/1,4;
 9/5=5/13;
 1/60=1/8(-6);
 99/9=1/99;
 Leave Link    1 at Thu Dec 12 08:55:13 2019, MaxMem=  268435456 cpu:       0.0
 (Enter /home/matheus/.gaussian/g09/l101.exe)
 ----
 PTCC
 ----
 Charge =  0 Multiplicity = 1
 Symbolic Z-Matrix:
 O                     0.        0.        0.725 
 O                     0.        0.       -0.725 
 H                    -0.59054  -0.70378   1.02351 
 H                     0.        0.91872  -1.02351 
 Kr                    0.       R1        0. 
       Variables:
  R1                    3.     Scan 20    0.1    
 
 NAtoms=      5 NQM=        0 NQMF=       0 NMMI=      5 NMMIF=      0
                NMic=       0 NMicF=      0.
                    Isotopes and Nuclear Properties:
 (Nuclear quadrupole moments (NQMom) in fm**2, nuclear magnetic moments (NMagM)
  in nuclear magnetons)

  Atom         1           2           3           4           5
 IAtWgt=          16          16           1           1          84
 AtmWgt=  15.9949146  15.9949146   1.0078250   1.0078250  83.9115064
 NucSpn=           0           0           1           1           0
 AtZEff=   0.0000000   0.0000000   0.0000000   0.0000000   0.0000000
 NQMom=    0.0000000   0.0000000   0.0000000   0.0000000   0.0000000
 NMagM=    0.0000000   0.0000000   2.7928460   2.7928460   0.0000000
 Leave Link  101 at Thu Dec 12 08:55:13 2019, MaxMem=  268435456 cpu:       0.1
 (Enter /home/matheus/.gaussian/g09/l108.exe)
 Scan the potential surface.
 Variable   Value     No. Steps Step-Size
 -------- ----------- --------- ---------
     1       3.000000      20      0.1000
 A total of     21 points will be computed.
 Leave Link  108 at Thu Dec 12 08:55:13 2019, MaxMem=  268435456 cpu:       0.0
 (Enter /home/matheus/.gaussian/g09/l202.exe)
 ---------------------------------------------------------------------------------------------------
                            Z-MATRIX (ANGSTROMS AND DEGREES)
   CD    Cent   Atom    N1       Length/X        N2       Alpha/Y        N3        Beta/Z          J
 ---------------------------------------------------------------------------------------------------
      1      1  O        0   0.000000          0.000000          0.725000
      2      2  O        0   0.000000          0.000000         -0.725000
      3      3  H        0  -0.590542         -0.703781          1.023510
      4      4  H        0   0.000000          0.918721         -1.023510
      5      5  Kr       0   0.000000          3.000000          0.000000
 ---------------------------------------------------------------------------------------------------
                         Z-Matrix orientation:                         
 ---------------------------------------------------------------------
 Center     Atomic      Atomic             Coordinates (Angstroms)
 Number     Number       Type             X           Y           Z
 ---------------------------------------------------------------------
      1          8           0        0.000000    0.000000    0.725000
      2          8           0        0.000000    0.000000   -0.725000
      3          1           0       -0.590542   -0.703781    1.023510
      4          1           0        0.000000    0.918721   -1.023510
      5         36           0        0.000000    3.000000    0.000000
 ---------------------------------------------------------------------
                    Distance matrix (angstroms):
                    1          2          3          4          5
     1  O    0.000000
     2  O    1.450000   0.000000
     3  H    0.966000   1.975180   0.000000
     4  H    1.975180   0.966000   2.677974   0.000000
     5  Kr   3.086361   3.086361   3.887712   2.319331   0.000000
 Stoichiometry    H2KrO2
 Framework group  C1[X(H2KrO2)]
 Deg. of freedom     9
 Full point group                 C1      NOp   1
 Largest Abelian subgroup         C1      NOp   1
 Largest concise Abelian subgroup C1      NOp   1
                         Standard orientation:                         
 ---------------------------------------------------------------------
 Center     Atomic      Atomic             Coordinates (Angstroms)
 Number     Number       Type             X           Y           Z
 ---------------------------------------------------------------------
      1          8           0       -2.015651   -0.687348   -0.079909
      2          8           0       -1.990960    0.760101    0.002433
      3          1           0       -2.733117   -1.006163    0.482902
      4          1           0       -1.067391    1.041693    0.032139
      5         36           0        0.995928   -0.017154    0.002910
 ---------------------------------------------------------------------
 Rotational constants (GHZ):     26.2569855      2.3123407      2.1308521
 Leave Link  202 at Thu Dec 12 08:55:13 2019, MaxMem=  268435456 cpu:       0.0
 (Enter /home/matheus/.gaussian/g09/l301.exe)
 Standard basis: Aug-CC-pVTZ (5D, 7F)
 Ernie: Thresh=  0.10000D-02 Tol=  0.10000D-05 Strict=F.
 Ernie:  38 primitive shells out of 205 were deleted.
 There are   197 symmetry adapted basis functions of A   symmetry.
 Integral buffers will be    131072 words long.
 Raffenetti 1 integral format.
 Two-electron integral symmetry is turned on.
   197 basis functions,   415 primitive gaussians,   229 cartesian basis functions
    27 alpha electrons       27 beta electrons
       nuclear repulsion energy       148.4787781510 Hartrees.
 IExCor=    0 DFT=F Ex=HF Corr=None ExCW=0 ScaHFX=  1.000000
 ScaDFX=  1.000000  1.000000  1.000000  1.000000 ScalE2=  1.000000  1.000000
 IRadAn=      5 IRanWt=     -1 IRanGd=            0 ICorTp=0
 NAtoms=    5 NActive=    5 NUniq=    5 SFac= 1.00D+00 NAtFMM=   60 NAOKFM=F Big=F
 Leave Link  301 at Thu Dec 12 08:55:13 2019, MaxMem=  268435456 cpu:       0.0
 (Enter /home/matheus/.gaussian/g09/l302.exe)
 NPDir=0 NMtPBC=     1 NCelOv=     1 NCel=       1 NClECP=     1 NCelD=      1
         NCelK=      1 NCelE2=     1 NClLst=     1 CellRange=     0.0.
 One-electron integrals computed using PRISM.
 NBasis=   197 RedAO= T  NBF=   197
 NBsUse=   197 1.00D-06 NBFU=   197
 Leave Link  302 at Thu Dec 12 08:55:13 2019, MaxMem=  268435456 cpu:       0.2
 (Enter /home/matheus/.gaussian/g09/l303.exe)
 DipDrv:  MaxL=1.
 Leave Link  303 at Thu Dec 12 08:55:13 2019, MaxMem=  268435456 cpu:       0.0
 (Enter /home/matheus/.gaussian/g09/l401.exe)
 Harris functional with IExCor=  205 diagonalized for initial guess.
 ExpMin= 2.53D-02 ExpMax= 1.17D+07 ExpMxC= 1.33D+04 IAcc=3 IRadAn=         5 AccDes= 0.00D+00
 HarFok:  IExCor=  205 AccDes= 0.00D+00 IRadAn=         5 IDoV= 1
 ScaDFX=  1.000000  1.000000  1.000000  1.000000
 FoFCou: FMM=F IPFlag=           0 FMFlag=      100000 FMFlg1=           0
         NFxFlg=           0 DoJE=T BraDBF=F KetDBF=T FulRan=T
         Omega=  0.000000  0.000000  1.000000  0.000000  0.000000 ICntrl=     500 IOpCl=  0
         NMat0=    1 NMatS0=    1 NMatT0=    0 NMatD0=    1 NMtDS0=    0 NMtDT0=    0
         I1Cent=           4 NGrid=           0.
 Petite list used in FoFCou.
 Harris En= -2901.93098159661    
 Initial guess orbital symmetries:
       Occupied  (A) (A) (A) (A) (A) (A) (A) (A) (A) (A) (A) (A)
                 (A) (A) (A) (A) (A) (A) (A) (A) (A) (A) (A) (A)
                 (A) (A) (A)
       Virtual   (A) (A) (A) (A) (A) (A) (A) (A) (A) (A) (A) (A)
                 (A) (A) (A) (A) (A) (A) (A) (A) (A) (A) (A) (A)
                 (A) (A) (A) (A) (A) (A) (A) (A) (A) (A) (A) (A)
                 (A) (A) (A) (A) (A) (A) (A) (A) (A) (A) (A) (A)
                 (A) (A) (A) (A) (A) (A) (A) (A) (A) (A) (A) (A)
                 (A) (A) (A) (A) (A) (A) (A) (A) (A) (A) (A) (A)
                 (A) (A) (A) (A) (A) (A) (A) (A) (A) (A) (A) (A)
                 (A) (A) (A) (A) (A) (A) (A) (A) (A) (A) (A) (A)
                 (A) (A) (A) (A) (A) (A) (A) (A) (A) (A) (A) (A)
                 (A) (A) (A) (A) (A) (A) (A) (A) (A) (A) (A) (A)
                 (A) (A) (A) (A) (A) (A) (A) (A) (A) (A) (A) (A)
                 (A) (A) (A) (A) (A) (A) (A) (A) (A) (A) (A) (A)
                 (A) (A) (A) (A) (A) (A) (A) (A) (A) (A) (A) (A)
                 (A) (A) (A) (A) (A) (A) (A) (A) (A) (A) (A) (A)
                 (A) (A)
 The electronic state of the initial guess is 1-A.
 Leave Link  401 at Thu Dec 12 08:55:14 2019, MaxMem=  268435456 cpu:       1.1
 (Enter /home/matheus/.gaussian/g09/l502.exe)
 Closed shell SCF:
 Requested convergence on RMS density matrix=1.00D-08 within 128 cycles.
 Requested convergence on MAX density matrix=1.00D-06.
 Requested convergence on             energy=1.00D-06.
 No special actions if energy rises.
 Using DIIS extrapolation, IDIIS=  1040.
 Integral symmetry usage will be decided dynamically.
 IEnd=      178489 IEndB=      178489 NGot=   268435456 MDV=   268326278
 LenX=   268326278 LenY=   268273396
 Fock matrices will be formed incrementally for  20 cycles.

 Cycle   1  Pass 0  IDiag  1:
 FoFCou: FMM=F IPFlag=           0 FMFlag=      100000 FMFlg1=           0
         NFxFlg=           0 DoJE=F BraDBF=F KetDBF=F FulRan=T
         Omega=  0.000000  0.000000  1.000000  0.000000  0.000000 ICntrl=       0 IOpCl=  0
         NMat0=    1 NMatS0=    1 NMatT0=    0 NMatD0=    1 NMtDS0=    0 NMtDT0=    0
         I1Cent=           0 NGrid=           0.
 Symmetry not used in FoFCou.
 E= -2902.75926435832    
 DIIS: error= 3.51D-02 at cycle   1 NSaved=   1.
 NSaved= 1 IEnMin= 1 EnMin= -2902.75926435832     IErMin= 1 ErrMin= 3.51D-02
 ErrMax= 3.51D-02 EMaxC= 1.00D-01 BMatC= 6.91D-01 BMatP= 6.91D-01
 IDIUse=3 WtCom= 6.49D-01 WtEn= 3.51D-01
 Coeff-Com:  0.100D+01
 Coeff-En:   0.100D+01
 Coeff:      0.100D+01
 Gap=     0.686 Goal=   None    Shift=    0.000
 GapD=    0.686 DampG=2.000 DampE=0.500 DampFc=1.0000 IDamp=-1.
 RMSDP=2.27D-03 MaxDP=1.50D-01              OVMax= 5.04D-02

 Cycle   2  Pass 0  IDiag  1:
 RMSU=  1.58D-03    CP:  1.01D+00
 E= -2902.86382483269     Delta-E=       -0.104560474370 Rises=F Damp=F
 DIIS: error= 8.68D-03 at cycle   2 NSaved=   2.
 NSaved= 2 IEnMin= 2 EnMin= -2902.86382483269     IErMin= 2 ErrMin= 8.68D-03
 ErrMax= 8.68D-03 EMaxC= 1.00D-01 BMatC= 3.99D-02 BMatP= 6.91D-01
 IDIUse=3 WtCom= 9.13D-01 WtEn= 8.68D-02
 Coeff-Com:  0.151D+00 0.849D+00
 Coeff-En:   0.000D+00 0.100D+01
 Coeff:      0.138D+00 0.862D+00
 Gap=     0.520 Goal=   None    Shift=    0.000
 RMSDP=7.93D-04 MaxDP=4.22D-02 DE=-1.05D-01 OVMax= 2.29D-02

 Cycle   3  Pass 0  IDiag  1:
 RMSU=  4.29D-04    CP:  1.01D+00  7.82D-01
 E= -2902.87726955238     Delta-E=       -0.013444719684 Rises=F Damp=F
 DIIS: error= 2.14D-03 at cycle   3 NSaved=   3.
 NSaved= 3 IEnMin= 3 EnMin= -2902.87726955238     IErMin= 3 ErrMin= 2.14D-03
 ErrMax= 2.14D-03 EMaxC= 1.00D-01 BMatC= 2.28D-03 BMatP= 3.99D-02
 IDIUse=3 WtCom= 9.79D-01 WtEn= 2.14D-02
 Coeff-Com: -0.650D-02 0.169D+00 0.837D+00
 Coeff-En:   0.000D+00 0.000D+00 0.100D+01
 Coeff:     -0.636D-02 0.166D+00 0.841D+00
 Gap=     0.498 Goal=   None    Shift=    0.000
 RMSDP=1.22D-04 MaxDP=5.10D-03 DE=-1.34D-02 OVMax= 7.05D-03

 Cycle   4  Pass 0  IDiag  1:
 RMSU=  4.77D-05    CP:  1.01D+00  8.15D-01  8.91D-01
 E= -2902.87835328343     Delta-E=       -0.001083731049 Rises=F Damp=F
 DIIS: error= 3.84D-04 at cycle   4 NSaved=   4.
 NSaved= 4 IEnMin= 4 EnMin= -2902.87835328343     IErMin= 4 ErrMin= 3.84D-04
 ErrMax= 3.84D-04 EMaxC= 1.00D-01 BMatC= 4.38D-05 BMatP= 2.28D-03
 IDIUse=3 WtCom= 9.96D-01 WtEn= 3.84D-03
 Coeff-Com: -0.418D-02 0.100D-01 0.147D+00 0.847D+00
 Coeff-En:   0.000D+00 0.000D+00 0.000D+00 0.100D+01
 Coeff:     -0.417D-02 0.996D-02 0.146D+00 0.848D+00
 Gap=     0.501 Goal=   None    Shift=    0.000
 RMSDP=2.05D-05 MaxDP=6.88D-04 DE=-1.08D-03 OVMax= 1.60D-03

 Cycle   5  Pass 0  IDiag  1:
 RMSU=  1.28D-05    CP:  1.01D+00  8.16D-01  9.06D-01  9.87D-01
 E= -2902.87838988612     Delta-E=       -0.000036602691 Rises=F Damp=F
 DIIS: error= 1.32D-04 at cycle   5 NSaved=   5.
 NSaved= 5 IEnMin= 5 EnMin= -2902.87838988612     IErMin= 5 ErrMin= 1.32D-04
 ErrMax= 1.32D-04 EMaxC= 1.00D-01 BMatC= 3.34D-06 BMatP= 4.38D-05
 IDIUse=3 WtCom= 9.99D-01 WtEn= 1.32D-03
 Coeff-Com:  0.789D-03-0.147D-01-0.698D-01 0.179D-01 0.107D+01
 Coeff-En:   0.000D+00 0.000D+00 0.000D+00 0.000D+00 0.100D+01
 Coeff:      0.788D-03-0.147D-01-0.697D-01 0.179D-01 0.107D+01
 Gap=     0.501 Goal=   None    Shift=    0.000
 RMSDP=9.88D-06 MaxDP=2.94D-04 DE=-3.66D-05 OVMax= 7.82D-04

 Initial convergence to 1.0D-05 achieved.  Increase integral accuracy.
 Cycle   6  Pass 1  IDiag  1:
 E= -2902.87839478984     Delta-E=       -0.000004903720 Rises=F Damp=F
 DIIS: error= 2.97D-05 at cycle   1 NSaved=   1.
 NSaved= 1 IEnMin= 1 EnMin= -2902.87839478984     IErMin= 1 ErrMin= 2.97D-05
 ErrMax= 2.97D-05 EMaxC= 1.00D-01 BMatC= 2.35D-07 BMatP= 2.35D-07
 IDIUse=1 WtCom= 1.00D+00 WtEn= 0.00D+00
 Coeff-Com:  0.100D+01
 Coeff:      0.100D+01
 Gap=     0.501 Goal=   None    Shift=    0.000
 RMSDP=9.88D-06 MaxDP=2.94D-04 DE=-4.90D-06 OVMax= 2.51D-04

 Cycle   7  Pass 1  IDiag  1:
 RMSU=  1.80D-06    CP:  1.00D+00
 E= -2902.87839521263     Delta-E=       -0.000000422793 Rises=F Damp=F
 DIIS: error= 1.53D-05 at cycle   2 NSaved=   2.
 NSaved= 2 IEnMin= 2 EnMin= -2902.87839521263     IErMin= 2 ErrMin= 1.53D-05
 ErrMax= 1.53D-05 EMaxC= 1.00D-01 BMatC= 6.26D-08 BMatP= 2.35D-07
 IDIUse=1 WtCom= 1.00D+00 WtEn= 0.00D+00
 Coeff-Com:  0.107D+00 0.893D+00
 Coeff:      0.107D+00 0.893D+00
 Gap=     0.501 Goal=   None    Shift=    0.000
 RMSDP=1.23D-06 MaxDP=4.88D-05 DE=-4.23D-07 OVMax= 1.29D-04

 Cycle   8  Pass 1  IDiag  1:
 RMSU=  6.68D-07    CP:  1.00D+00  1.31D+00
 E= -2902.87839532099     Delta-E=       -0.000000108359 Rises=F Damp=F
 DIIS: error= 8.18D-06 at cycle   3 NSaved=   3.
 NSaved= 3 IEnMin= 3 EnMin= -2902.87839532099     IErMin= 3 ErrMin= 8.18D-06
 ErrMax= 8.18D-06 EMaxC= 1.00D-01 BMatC= 2.16D-08 BMatP= 6.26D-08
 IDIUse=1 WtCom= 1.00D+00 WtEn= 0.00D+00
 Coeff-Com: -0.303D+00 0.135D+00 0.117D+01
 Coeff:     -0.303D+00 0.135D+00 0.117D+01
 Gap=     0.501 Goal=   None    Shift=    0.000
 RMSDP=1.25D-06 MaxDP=3.35D-05 DE=-1.08D-07 OVMax= 1.58D-04

 Cycle   9  Pass 1  IDiag  1:
 RMSU=  2.77D-07    CP:  1.00D+00  1.76D+00  1.36D+00
 E= -2902.87839537856     Delta-E=       -0.000000057571 Rises=F Damp=F
 DIIS: error= 3.62D-06 at cycle   4 NSaved=   4.
 NSaved= 4 IEnMin= 4 EnMin= -2902.87839537856     IErMin= 4 ErrMin= 3.62D-06
 ErrMax= 3.62D-06 EMaxC= 1.00D-01 BMatC= 2.62D-09 BMatP= 2.16D-08
 IDIUse=1 WtCom= 1.00D+00 WtEn= 0.00D+00
 Coeff-Com: -0.798D-01-0.566D-01 0.253D+00 0.884D+00
 Coeff:     -0.798D-01-0.566D-01 0.253D+00 0.884D+00
 Gap=     0.501 Goal=   None    Shift=    0.000
 RMSDP=3.70D-07 MaxDP=8.11D-06 DE=-5.76D-08 OVMax= 5.61D-05

 Cycle  10  Pass 1  IDiag  1:
 RMSU=  1.30D-07    CP:  1.00D+00  1.86D+00  1.54D+00  1.30D+00
 E= -2902.87839538596     Delta-E=       -0.000000007398 Rises=F Damp=F
 DIIS: error= 1.76D-06 at cycle   5 NSaved=   5.
 NSaved= 5 IEnMin= 5 EnMin= -2902.87839538596     IErMin= 5 ErrMin= 1.76D-06
 ErrMax= 1.76D-06 EMaxC= 1.00D-01 BMatC= 7.21D-10 BMatP= 2.62D-09
 IDIUse=1 WtCom= 1.00D+00 WtEn= 0.00D+00
 Coeff-Com:  0.127D+00-0.227D-02-0.473D+00-0.459D+00 0.181D+01
 Coeff:      0.127D+00-0.227D-02-0.473D+00-0.459D+00 0.181D+01
 Gap=     0.501 Goal=   None    Shift=    0.000
 RMSDP=4.09D-07 MaxDP=1.00D-05 DE=-7.40D-09 OVMax= 6.64D-05

 Cycle  11  Pass 1  IDiag  1:
 RMSU=  4.29D-08    CP:  1.00D+00  1.93D+00  1.71D+00  1.97D+00  1.98D+00
 E= -2902.87839538989     Delta-E=       -0.000000003937 Rises=F Damp=F
 DIIS: error= 5.39D-07 at cycle   6 NSaved=   6.
 NSaved= 6 IEnMin= 6 EnMin= -2902.87839538989     IErMin= 6 ErrMin= 5.39D-07
 ErrMax= 5.39D-07 EMaxC= 1.00D-01 BMatC= 5.45D-11 BMatP= 7.21D-10
 IDIUse=1 WtCom= 1.00D+00 WtEn= 0.00D+00
 Coeff-Com:  0.153D-01 0.652D-02-0.455D-01-0.131D+00 0.114D-01 0.114D+01
 Coeff:      0.153D-01 0.652D-02-0.455D-01-0.131D+00 0.114D-01 0.114D+01
 Gap=     0.501 Goal=   None    Shift=    0.000
 RMSDP=1.10D-07 MaxDP=2.69D-06 DE=-3.94D-09 OVMax= 1.78D-05

 Cycle  12  Pass 1  IDiag  1:
 RMSU=  1.57D-08    CP:  1.00D+00  1.95D+00  1.75D+00  2.13D+00  2.29D+00
                    CP:  1.45D+00
 E= -2902.87839539017     Delta-E=       -0.000000000271 Rises=F Damp=F
 DIIS: error= 1.59D-07 at cycle   7 NSaved=   7.
 NSaved= 7 IEnMin= 7 EnMin= -2902.87839539017     IErMin= 7 ErrMin= 1.59D-07
 ErrMax= 1.59D-07 EMaxC= 1.00D-01 BMatC= 6.29D-12 BMatP= 5.45D-11
 IDIUse=1 WtCom= 1.00D+00 WtEn= 0.00D+00
 Coeff-Com: -0.141D-01-0.221D-03 0.545D-01 0.432D-01-0.202D+00 0.901D-01
 Coeff-Com:  0.103D+01
 Coeff:     -0.141D-01-0.221D-03 0.545D-01 0.432D-01-0.202D+00 0.901D-01
 Coeff:      0.103D+01
 Gap=     0.501 Goal=   None    Shift=    0.000
 RMSDP=2.08D-08 MaxDP=4.88D-07 DE=-2.71D-10 OVMax= 2.90D-06

 Cycle  13  Pass 1  IDiag  1:
 RMSU=  4.85D-09    CP:  1.00D+00  1.95D+00  1.76D+00  2.15D+00  2.34D+00
                    CP:  1.64D+00  1.30D+00
 E= -2902.87839539018     Delta-E=       -0.000000000015 Rises=F Damp=F
 DIIS: error= 5.49D-08 at cycle   8 NSaved=   8.
 NSaved= 8 IEnMin= 8 EnMin= -2902.87839539018     IErMin= 8 ErrMin= 5.49D-08
 ErrMax= 5.49D-08 EMaxC= 1.00D-01 BMatC= 7.19D-13 BMatP= 6.29D-12
 IDIUse=1 WtCom= 1.00D+00 WtEn= 0.00D+00
 Coeff-Com: -0.502D-02-0.108D-02 0.176D-01 0.242D-01-0.311D-01-0.154D+00
 Coeff-Com:  0.331D-01 0.112D+01
 Coeff:     -0.502D-02-0.108D-02 0.176D-01 0.242D-01-0.311D-01-0.154D+00
 Coeff:      0.331D-01 0.112D+01
 Gap=     0.501 Goal=   None    Shift=    0.000
 RMSDP=7.79D-09 MaxDP=1.52D-07 DE=-1.46D-11 OVMax= 8.62D-07

 SCF Done:  E(RHF) =  -2902.87839539     A.U. after   13 cycles
             Convg  =    0.7787D-08             -V/T =  2.0001
 KE= 2.902625867852D+03 PE=-7.237540708597D+03 EE= 1.283557667204D+03
 Leave Link  502 at Thu Dec 12 08:56:04 2019, MaxMem=  268435456 cpu:     100.1
 (Enter /home/matheus/.gaussian/g09/l801.exe)
 Windowed orbitals will be sorted by symmetry type.
 ExpMin= 2.53D-02 ExpMax= 1.17D+07 ExpMxC= 1.33D+04 IAcc=3 IRadAn=         5 AccDes= 0.00D+00
 HarFok:  IExCor=  205 AccDes= 0.00D+00 IRadAn=         5 IDoV=-2
 ScaDFX=  1.000000  1.000000  1.000000  1.000000
 DSYEVD returned Info=          93 IAlg= 4 N=    46 NDim=    46 NE2=     4547561 trying DSYEV.
 DSYEVD returned Info=          89 IAlg= 4 N=    59 NDim=    59 NE2=     4547561 trying DSYEV.
 Largest valence mixing into a core orbital is  1.44D-04
 Largest core mixing into a valence orbital is  2.59D-05
 Range of M.O.s used for correlation:    12   197
 NBasis=   197 NAE=    27 NBE=    27 NFC=    11 NFV=     0
 NROrb=    186 NOA=    16 NOB=    16 NVA=   170 NVB=   170

 **** Warning!!: The largest alpha MO coefficient is  0.12679765D+02

 Leave Link  801 at Thu Dec 12 08:56:04 2019, MaxMem=  268435456 cpu:       0.2
 (Enter /home/matheus/.gaussian/g09/l804.exe)
 Closed-shell transformation, MDV=   268435456 ITran=4 ISComp=1.
 Semi-Direct transformation.
 ModeAB=           2 MOrb=            16 LenV=     267326990
 LASXX=     48528660 LTotXX=    48528660 LenRXX=    48528660
 LTotAB=    49298776 MaxLAS=    78372960 LenRXY=    78372960
 NonZer=    97057320 LenScr=   146313216 LnRSAI=           0
 LnScr1=           0 LExtra=           0 Total=    273214836
 MaxDsk=          -1 SrtSym=           F ITran=            4
 DoSDTr:  NPSUse=  2
 JobTyp=0 Pass  1:  I=   1 to  16.
 (rs|ai) integrals will be sorted in core.
 Complete sort for first half transformation.
 First half transformation complete.
 Begin second half transformation for I=  10.
 Begin second half transformation for I=  10.
 Complete sort for second half transformation.
 Second half transformation complete.
 SymMOI:  orbitals are not symmetric.
 Spin components of T(2) and E(2):
     alpha-alpha T2 =       0.2594661516D-01 E2=     -0.9993347114D-01
     alpha-beta  T2 =       0.1418746913D+00 E2=     -0.5564941169D+00
     beta-beta   T2 =       0.2594661516D-01 E2=     -0.9993347114D-01
 ANorm=    0.1092596871D+01
 E2 =    -0.7563610591D+00 EUMP2 =    -0.29036347564493D+04
 Leave Link  804 at Thu Dec 12 08:56:26 2019, MaxMem=  268435456 cpu:      43.9
 (Enter /home/matheus/.gaussian/g09/l913.exe)
 CIDS:  MDV=   268435456.
 Frozen-core window:  NFC=  11 NFV=   0.
 IFCWin=0 IBDFC=1 NFBD=     0     0 NFCmp=     0     0 NFFFC=     0     0
 Using DD3R+UMP44R for 1st iteration, S=T.
 Using DD4RQ for 2nd and later iterations.
 Would need an additional       431206676 words for in-memory AO integral storage.
 MP4(SDTQ)
 =========
 DD1Dir will call FoFDir   1 times, MxPair=       272
 NAB=   136 NAA=     0 NBB=     0 NumPrc=  2.
 Integrals replicated using symmetry in FoFDir.
 MinBra= 0 MaxBra= 3 Meth= 1.
 IRaf=       0 NMat= 272 IRICut=     340 DoRegI=T DoRafI=T ISym2E= 2 JSym2E=2.
 MP4(D)= -0.14963255D-01
 MP4(S)= -0.64351362D-02
 MP4(R+Q)=  0.15377353D-01
 T4(AAA)= -0.10411258D-02
 T4(AAB)= -0.14160559D-01
 Time for triples=     1270.42 seconds.
 MP4(T)=   -0.30403369D-01
 E3=       -0.11279493D-01        EUMP3=      -0.29036460359D+04
 E4(DQ)=    0.41409750D-03        UMP4(DQ)=   -0.29036456218D+04
 E4(SDQ)=  -0.60210387D-02        UMP4(SDQ)=  -0.29036520570D+04
 E4(SDTQ)= -0.36424408D-01        UMP4(SDTQ)= -0.29036824604D+04
 VARIATIONAL ENERGIES WITH THE FIRST-ORDER WAVEFUNCTION:
 E(VAR1)=  -0.29035214354D+04     E(CISD,4)=  -0.29035208758D+04
 Largest amplitude= 2.19D-02
 Leave Link  913 at Thu Dec 12 09:07:47 2019, MaxMem=  268435456 cpu:    1357.8
 (Enter /home/matheus/.gaussian/g09/l601.exe)
 Copying SCF densities to generalized density rwf, IOpCl= 0 IROHF=0.

 **********************************************************************

            Population analysis using the SCF density.

 **********************************************************************

 Orbital symmetries:
       Occupied  (A) (A) (A) (A) (A) (A) (A) (A) (A) (A) (A) (A)
                 (A) (A) (A) (A) (A) (A) (A) (A) (A) (A) (A) (A)
                 (A) (A) (A)
       Virtual   (A) (A) (A) (A) (A) (A) (A) (A) (A) (A) (A) (A)
                 (A) (A) (A) (A) (A) (A) (A) (A) (A) (A) (A) (A)
                 (A) (A) (A) (A) (A) (A) (A) (A) (A) (A) (A) (A)
                 (A) (A) (A) (A) (A) (A) (A) (A) (A) (A) (A) (A)
                 (A) (A) (A) (A) (A) (A) (A) (A) (A) (A) (A) (A)
                 (A) (A) (A) (A) (A) (A) (A) (A) (A) (A) (A) (A)
                 (A) (A) (A) (A) (A) (A) (A) (A) (A) (A) (A) (A)
                 (A) (A) (A) (A) (A) (A) (A) (A) (A) (A) (A) (A)
                 (A) (A) (A) (A) (A) (A) (A) (A) (A) (A) (A) (A)
                 (A) (A) (A) (A) (A) (A) (A) (A) (A) (A) (A) (A)
                 (A) (A) (A) (A) (A) (A) (A) (A) (A) (A) (A) (A)
                 (A) (A) (A) (A) (A) (A) (A) (A) (A) (A) (A) (A)
                 (A) (A) (A) (A) (A) (A) (A) (A) (A) (A) (A) (A)
                 (A) (A) (A) (A) (A) (A) (A) (A) (A) (A) (A) (A)
                 (A) (A)
 The electronic state is 1-A.
 Alpha  occ. eigenvalues -- -520.17344 -69.91099 -63.01758 -63.01755 -63.01752
 Alpha  occ. eigenvalues --  -20.62799 -20.62474 -10.85763  -8.33987  -8.33961
 Alpha  occ. eigenvalues --   -8.33945  -3.83367  -3.83362  -3.83340  -3.83313
 Alpha  occ. eigenvalues --   -3.83310  -1.46519  -1.21718  -1.16351  -0.71318
 Alpha  occ. eigenvalues --   -0.70900  -0.61571  -0.54217  -0.53267  -0.52823
 Alpha  occ. eigenvalues --   -0.51398  -0.46565
 Alpha virt. eigenvalues --    0.03556   0.04508   0.08906   0.10375   0.11498
 Alpha virt. eigenvalues --    0.12482   0.15224   0.15929   0.17305   0.18419
 Alpha virt. eigenvalues --    0.19392   0.21342   0.24093   0.25926   0.26663
 Alpha virt. eigenvalues --    0.28226   0.28715   0.31676   0.33959   0.36048
 Alpha virt. eigenvalues --    0.36594   0.37202   0.38438   0.41914   0.42837
 Alpha virt. eigenvalues --    0.45097   0.45631   0.51931   0.56885   0.59904
 Alpha virt. eigenvalues --    0.61316   0.64152   0.68234   0.71331   0.73183
 Alpha virt. eigenvalues --    0.76859   0.77447   0.78015   0.79024   0.81593
 Alpha virt. eigenvalues --    0.83580   0.84882   0.85780   0.87377   0.87757
 Alpha virt. eigenvalues --    0.90800   0.91531   0.93073   0.95336   0.98284
 Alpha virt. eigenvalues --    0.99768   1.00264   1.02708   1.03234   1.05286
 Alpha virt. eigenvalues --    1.08441   1.09778   1.13047   1.15125   1.17931
 Alpha virt. eigenvalues --    1.18376   1.20833   1.23459   1.26145   1.29259
 Alpha virt. eigenvalues --    1.34243   1.40243   1.43167   1.48115   1.50165
 Alpha virt. eigenvalues --    1.51966   1.59489   1.62328   1.65090   1.71071
 Alpha virt. eigenvalues --    1.73597   1.88296   1.97182   1.98323   2.07920
 Alpha virt. eigenvalues --    2.13774   2.16925   2.20529   2.28642   2.30622
 Alpha virt. eigenvalues --    2.35148   2.37521   2.39436   2.40232   2.40998
 Alpha virt. eigenvalues --    2.42885   2.47179   2.52460   2.53384   2.54046
 Alpha virt. eigenvalues --    2.55469   2.57754   2.62226   2.64788   2.68222
 Alpha virt. eigenvalues --    2.69411   2.69700   2.70675   2.73977   2.75610
 Alpha virt. eigenvalues --    2.78773   2.80056   2.83559   2.85456   2.86292
 Alpha virt. eigenvalues --    2.92979   2.95155   2.99462   3.03658   3.07872
 Alpha virt. eigenvalues --    3.11093   3.25257   3.29195   3.34355   3.82256
 Alpha virt. eigenvalues --    3.88707   4.15107   4.18448   4.22212   4.27013
 Alpha virt. eigenvalues --    4.35243   4.38690   4.41187   4.45914   4.49532
 Alpha virt. eigenvalues --    4.66507   4.72089   4.79491   4.83889   5.02710
 Alpha virt. eigenvalues --    5.16879   5.25341   5.27643   5.35607   5.37390
 Alpha virt. eigenvalues --    5.55138   5.80379   6.16649   6.38238   6.40695
 Alpha virt. eigenvalues --    6.45007   6.66335   6.69862   6.74435   6.86736
 Alpha virt. eigenvalues --    7.01441   7.13100   7.14051   7.20923   7.22650
 Alpha virt. eigenvalues --    7.22803   7.28760   7.30937   7.33316   7.41504
 Alpha virt. eigenvalues --    7.42072   7.60739   7.63726   7.77391   8.12870
 Alpha virt. eigenvalues --    8.20680   8.46912   8.53055  14.63079  15.28935
          Condensed to atoms (all electrons):
              1          2          3          4          5
     1  O    8.111380  -0.069530   0.255629  -0.014652  -0.026718
     2  O   -0.069530   8.134269  -0.002468   0.257630  -0.011087
     3  H    0.255629  -0.002468   0.475771   0.003974   0.002240
     4  H   -0.014652   0.257630   0.003974   0.468210  -0.004605
     5  Kr  -0.026718  -0.011087   0.002240  -0.004605  36.029542
 Mulliken atomic charges:
              1
     1  O   -0.256110
     2  O   -0.308814
     3  H    0.264853
     4  H    0.289443
     5  Kr   0.010628
 Sum of Mulliken atomic charges =   0.00000
 Mulliken charges with hydrogens summed into heavy atoms:
              1
     1  O    0.008744
     2  O   -0.019372
     5  Kr   0.010628
 Sum of Mulliken charges with hydrogens summed into heavy atoms =   0.00000
 Electronic spatial extent (au):  <R**2>=            490.4557
 Charge=              0.0000 electrons
 Dipole moment (field-independent basis, Debye):
    X=              0.5083    Y=             -0.3262    Z=              1.0542  Tot=              1.2150
 Quadrupole moment (field-independent basis, Debye-Ang):
   XX=            -28.5149   YY=            -28.1609   ZZ=            -29.8558
   XY=              3.7384   XZ=             -3.1170   YZ=             -1.1523
 Traceless Quadrupole moment (field-independent basis, Debye-Ang):
   XX=              0.3290   YY=              0.6830   ZZ=             -1.0119
   XY=              3.7384   XZ=             -3.1170   YZ=             -1.1523
 Octapole moment (field-independent basis, Debye-Ang**2):
  XXX=              8.2294  YYY=             -0.7745  ZZZ=              0.6137  XYY=              3.9794
  XXY=            -14.9277  XXZ=              8.7882  XZZ=              6.4296  YZZ=             -0.9120
  YYZ=              1.3884  XYZ=              3.3445
 Hexadecapole moment (field-independent basis, Debye-Ang**3):
 XXXX=           -373.1236 YYYY=            -62.8882 ZZZZ=            -29.0357 XXXY=             44.2782
 XXXZ=            -25.4187 YYYX=              5.7754 YYYZ=             -1.5116 ZZZX=             -1.9084
 ZZZY=             -0.8560 XXYY=            -75.3116 XXZZ=            -74.4006 YYZZ=            -16.5752
 XXYZ=             -9.5434 YYXZ=             -3.8072 ZZXY=              2.0592
 N-N= 1.484787781510D+02 E-N=-7.237540708315D+03  KE= 2.902625867852D+03
 Leave Link  601 at Thu Dec 12 09:07:47 2019, MaxMem=  268435456 cpu:       0.1
 (Enter /home/matheus/.gaussian/g09/l108.exe)
 Variable Step   Value    
 -------- ---- -----------
     1       1    5.858151
 Leave Link  108 at Thu Dec 12 09:07:48 2019, MaxMem=  268435456 cpu:       0.0
 (Enter /home/matheus/.gaussian/g09/l202.exe)
 ---------------------------------------------------------------------------------------------------
                            Z-MATRIX (ANGSTROMS AND DEGREES)
   CD    Cent   Atom    N1       Length/X        N2       Alpha/Y        N3        Beta/Z          J
 ---------------------------------------------------------------------------------------------------
      1      1  O        0   0.000000          0.000000          0.725000
      2      2  O        0   0.000000          0.000000         -0.725000
      3      3  H        0  -0.590542         -0.703781          1.023510
      4      4  H        0   0.000000          0.918721         -1.023510
      5      5  Kr       0   0.000000          3.100000          0.000000
 ---------------------------------------------------------------------------------------------------
                         Z-Matrix orientation:                         
 ---------------------------------------------------------------------
 Center     Atomic      Atomic             Coordinates (Angstroms)
 Number     Number       Type             X           Y           Z
 ---------------------------------------------------------------------
      1          8           0        0.000000    0.000000    0.725000
      2          8           0        0.000000    0.000000   -0.725000
      3          1           0       -0.590542   -0.703781    1.023510
      4          1           0        0.000000    0.918721   -1.023510
      5         36           0        0.000000    3.100000    0.000000
 ---------------------------------------------------------------------
                    Distance matrix (angstroms):
                    1          2          3          4          5
     1  O    0.000000
     2  O    1.450000   0.000000
     3  H    0.966000   1.975180   0.000000
     4  H    1.975180   0.966000   2.677974   0.000000
     5  Kr   3.183650   3.183650   3.983097   2.409472   0.000000
 Stoichiometry    H2KrO2
 Framework group  C1[X(H2KrO2)]
 Deg. of freedom     9
 Full point group                 C1      NOp   1
 RotChk:  IX=0 Diff= 1.88D-03
 Largest Abelian subgroup         C1      NOp   1
 Largest concise Abelian subgroup C1      NOp   1
                         Standard orientation:                         
 ---------------------------------------------------------------------
 Center     Atomic      Atomic             Coordinates (Angstroms)
 Number     Number       Type             X           Y           Z
 ---------------------------------------------------------------------
      1          8           0       -2.081509   -0.688678   -0.079786
      2          8           0       -2.058531    0.758792    0.002685
      3          1           0       -2.798286   -1.008419    0.483377
      4          1           0       -1.135289    1.041502    0.031924
      5         36           0        1.029275   -0.016500    0.002820
 ---------------------------------------------------------------------
 Rotational constants (GHZ):     26.2553722      2.1663424      2.0062482
 Leave Link  202 at Thu Dec 12 09:07:48 2019, MaxMem=  268435456 cpu:       0.0
 (Enter /home/matheus/.gaussian/g09/l301.exe)
 Standard basis: Aug-CC-pVTZ (5D, 7F)
 Ernie: Thresh=  0.10000D-02 Tol=  0.10000D-05 Strict=F.
 Ernie:  38 primitive shells out of 205 were deleted.
 There are   197 symmetry adapted basis functions of A   symmetry.
 Integral buffers will be    131072 words long.
 Raffenetti 1 integral format.
 Two-electron integral symmetry is turned on.
   197 basis functions,   415 primitive gaussians,   229 cartesian basis functions
    27 alpha electrons       27 beta electrons
       nuclear repulsion energy       145.0361916629 Hartrees.
 IExCor=    0 DFT=F Ex=HF Corr=None ExCW=0 ScaHFX=  1.000000
 ScaDFX=  1.000000  1.000000  1.000000  1.000000 ScalE2=  1.000000  1.000000
 IRadAn=      5 IRanWt=     -1 IRanGd=            0 ICorTp=0
 NAtoms=    5 NActive=    5 NUniq=    5 SFac= 1.00D+00 NAtFMM=   60 NAOKFM=F Big=F
 Leave Link  301 at Thu Dec 12 09:07:48 2019, MaxMem=  268435456 cpu:       0.1
 (Enter /home/matheus/.gaussian/g09/l302.exe)
 NPDir=0 NMtPBC=     1 NCelOv=     1 NCel=       1 NClECP=     1 NCelD=      1
         NCelK=      1 NCelE2=     1 NClLst=     1 CellRange=     0.0.
 One-electron integrals computed using PRISM.
 NBasis=   197 RedAO= T  NBF=   197
 NBsUse=   197 1.00D-06 NBFU=   197
 Leave Link  302 at Thu Dec 12 09:07:48 2019, MaxMem=  268435456 cpu:       0.2
 (Enter /home/matheus/.gaussian/g09/l303.exe)
 DipDrv:  MaxL=1.
 Leave Link  303 at Thu Dec 12 09:07:48 2019, MaxMem=  268435456 cpu:       0.1
 (Enter /home/matheus/.gaussian/g09/l401.exe)
 Initial guess read from the read-write file.
 B after Tr=     0.000000    0.000000    0.000000
         Rot=    1.000000    0.000000    0.000000    0.000000 Ang=   0.00 deg.
 Guess basis will be translated and rotated to current coordinates.
 Initial guess orbital symmetries:
       Occupied  (A) (A) (A) (A) (A) (A) (A) (A) (A) (A) (A) (A)
                 (A) (A) (A) (A) (A) (A) (A) (A) (A) (A) (A) (A)
                 (A) (A) (A)
       Virtual   (A) (A) (A) (A) (A) (A) (A) (A) (A) (A) (A) (A)
                 (A) (A) (A) (A) (A) (A) (A) (A) (A) (A) (A) (A)
                 (A) (A) (A) (A) (A) (A) (A) (A) (A) (A) (A) (A)
                 (A) (A) (A) (A) (A) (A) (A) (A) (A) (A) (A) (A)
                 (A) (A) (A) (A) (A) (A) (A) (A) (A) (A) (A) (A)
                 (A) (A) (A) (A) (A) (A) (A) (A) (A) (A) (A) (A)
                 (A) (A) (A) (A) (A) (A) (A) (A) (A) (A) (A) (A)
                 (A) (A) (A) (A) (A) (A) (A) (A) (A) (A) (A) (A)
                 (A) (A) (A) (A) (A) (A) (A) (A) (A) (A) (A) (A)
                 (A) (A) (A) (A) (A) (A) (A) (A) (A) (A) (A) (A)
                 (A) (A) (A) (A) (A) (A) (A) (A) (A) (A) (A) (A)
                 (A) (A) (A) (A) (A) (A) (A) (A) (A) (A) (A) (A)
                 (A) (A) (A) (A) (A) (A) (A) (A) (A) (A) (A) (A)
                 (A) (A) (A) (A) (A) (A) (A) (A) (A) (A) (A) (A)
                 (A) (A)
 The electronic state of the initial guess is 1-A.
 Generating alternative initial guess.
 Harris functional with IExCor=  205 diagonalized for initial guess.
 ExpMin= 2.53D-02 ExpMax= 1.17D+07 ExpMxC= 1.33D+04 IAcc=3 IRadAn=         5 AccDes= 0.00D+00
 HarFok:  IExCor=  205 AccDes= 0.00D+00 IRadAn=         5 IDoV= 1
 ScaDFX=  1.000000  1.000000  1.000000  1.000000
 FoFCou: FMM=F IPFlag=           0 FMFlag=      100000 FMFlg1=           0
         NFxFlg=           0 DoJE=T BraDBF=F KetDBF=T FulRan=T
         Omega=  0.000000  0.000000  1.000000  0.000000  0.000000 ICntrl=     500 IOpCl=  0
         NMat0=    1 NMatS0=    1 NMatT0=    0 NMatD0=    1 NMtDS0=    0 NMtDT0=    0
         I1Cent=           4 NGrid=           0.
 Petite list used in FoFCou.
 Harris En= -2901.93202854561    
 Leave Link  401 at Thu Dec 12 09:07:48 2019, MaxMem=  268435456 cpu:       1.2
 (Enter /home/matheus/.gaussian/g09/l502.exe)
 Closed shell SCF:
 Requested convergence on RMS density matrix=1.00D-08 within 128 cycles.
 Requested convergence on MAX density matrix=1.00D-06.
 Requested convergence on             energy=1.00D-06.
 No special actions if energy rises.
 Using DIIS extrapolation, IDIIS=  1040.
 Integral symmetry usage will be decided dynamically.
 IEnd=      178489 IEndB=      178489 NGot=   268435456 MDV=   268326278
 LenX=   268326278 LenY=   268273396
 Fock matrices will be formed incrementally for  20 cycles.

 Cycle   1  Pass 0  IDiag  1:
 FoFCou: FMM=F IPFlag=           0 FMFlag=      100000 FMFlg1=           0
         NFxFlg=           0 DoJE=F BraDBF=F KetDBF=F FulRan=T
         Omega=  0.000000  0.000000  1.000000  0.000000  0.000000 ICntrl=       0 IOpCl=  0
         NMat0=    1 NMatS0=    1 NMatT0=    0 NMatD0=    1 NMtDS0=    0 NMtDT0=    0
         I1Cent=           0 NGrid=           0.
 Symmetry not used in FoFCou.
 E= -2902.88074348940    
 DIIS: error= 5.04D-04 at cycle   1 NSaved=   1.
 NSaved= 1 IEnMin= 1 EnMin= -2902.88074348940     IErMin= 1 ErrMin= 5.04D-04
 ErrMax= 5.04D-04 EMaxC= 1.00D-01 BMatC= 6.85D-05 BMatP= 6.85D-05
 IDIUse=3 WtCom= 9.95D-01 WtEn= 5.04D-03
 Coeff-Com:  0.100D+01
 Coeff-En:   0.100D+01
 Coeff:      0.100D+01
 Gap=     0.503 Goal=   None    Shift=    0.000
 RMSDP=7.11D-05 MaxDP=3.21D-03              OVMax= 3.04D-03

 Cycle   2  Pass 0  IDiag  1:
 RMSU=  5.02D-05    CP:  1.00D+00
 E= -2902.88082452019     Delta-E=       -0.000081030787 Rises=F Damp=F
 DIIS: error= 1.00D-04 at cycle   2 NSaved=   2.
 NSaved= 2 IEnMin= 2 EnMin= -2902.88082452019     IErMin= 2 ErrMin= 1.00D-04
 ErrMax= 1.00D-04 EMaxC= 1.00D-01 BMatC= 2.39D-06 BMatP= 6.85D-05
 IDIUse=3 WtCom= 9.99D-01 WtEn= 1.00D-03
 Coeff-Com: -0.787D-01 0.108D+01
 Coeff-En:   0.000D+00 0.100D+01
 Coeff:     -0.786D-01 0.108D+01
 Gap=     0.502 Goal=   None    Shift=    0.000
 RMSDP=1.36D-05 MaxDP=4.85D-04 DE=-8.10D-05 OVMax= 6.05D-04

 Cycle   3  Pass 0  IDiag  1:
 RMSU=  6.25D-06    CP:  1.00D+00  1.15D+00
 E= -2902.88082797974     Delta-E=       -0.000003459556 Rises=F Damp=F
 DIIS: error= 3.34D-05 at cycle   3 NSaved=   3.
 NSaved= 3 IEnMin= 3 EnMin= -2902.88082797974     IErMin= 3 ErrMin= 3.34D-05
 ErrMax= 3.34D-05 EMaxC= 1.00D-01 BMatC= 4.12D-07 BMatP= 2.39D-06
 IDIUse=1 WtCom= 1.00D+00 WtEn= 0.00D+00
 Coeff-Com: -0.448D-01 0.273D+00 0.772D+00
 Coeff:     -0.448D-01 0.273D+00 0.772D+00
 Gap=     0.502 Goal=   None    Shift=    0.000
 RMSDP=2.60D-06 MaxDP=7.20D-05 DE=-3.46D-06 OVMax= 1.75D-04

 Initial convergence to 1.0D-05 achieved.  Increase integral accuracy.
 Cycle   4  Pass 1  IDiag  1:
 E= -2902.88082835728     Delta-E=       -0.000000377533 Rises=F Damp=F
 DIIS: error= 1.42D-05 at cycle   1 NSaved=   1.
 NSaved= 1 IEnMin= 1 EnMin= -2902.88082835728     IErMin= 1 ErrMin= 1.42D-05
 ErrMax= 1.42D-05 EMaxC= 1.00D-01 BMatC= 4.65D-08 BMatP= 4.65D-08
 IDIUse=1 WtCom= 1.00D+00 WtEn= 0.00D+00
 Coeff-Com:  0.100D+01
 Coeff:      0.100D+01
 Gap=     0.502 Goal=   None    Shift=    0.000
 RMSDP=2.60D-06 MaxDP=7.20D-05 DE=-3.78D-07 OVMax= 9.56D-05

 Cycle   5  Pass 1  IDiag  1:
 RMSU=  9.18D-07    CP:  1.00D+00
 E= -2902.88082841300     Delta-E=       -0.000000055721 Rises=F Damp=F
 DIIS: error= 9.35D-06 at cycle   2 NSaved=   2.
 NSaved= 2 IEnMin= 2 EnMin= -2902.88082841300     IErMin= 2 ErrMin= 9.35D-06
 ErrMax= 9.35D-06 EMaxC= 1.00D-01 BMatC= 1.90D-08 BMatP= 4.65D-08
 IDIUse=1 WtCom= 1.00D+00 WtEn= 0.00D+00
 Coeff-Com:  0.344D+00 0.656D+00
 Coeff:      0.344D+00 0.656D+00
 Gap=     0.502 Goal=   None    Shift=    0.000
 RMSDP=4.10D-07 MaxDP=1.80D-05 DE=-5.57D-08 OVMax= 3.87D-05

 Cycle   6  Pass 1  IDiag  1:
 RMSU=  2.85D-07    CP:  1.00D+00  1.06D+00
 E= -2902.88082843037     Delta-E=       -0.000000017375 Rises=F Damp=F
 DIIS: error= 3.34D-06 at cycle   3 NSaved=   3.
 NSaved= 3 IEnMin= 3 EnMin= -2902.88082843037     IErMin= 3 ErrMin= 3.34D-06
 ErrMax= 3.34D-06 EMaxC= 1.00D-01 BMatC= 2.54D-09 BMatP= 1.90D-08
 IDIUse=1 WtCom= 1.00D+00 WtEn= 0.00D+00
 Coeff-Com: -0.351D+00-0.150D+00 0.150D+01
 Coeff:     -0.351D+00-0.150D+00 0.150D+01
 Gap=     0.502 Goal=   None    Shift=    0.000
 RMSDP=5.08D-07 MaxDP=1.36D-05 DE=-1.74D-08 OVMax= 4.22D-05

 Cycle   7  Pass 1  IDiag  1:
 RMSU=  1.08D-07    CP:  1.00D+00  1.40D+00  1.45D+00
 E= -2902.88082843691     Delta-E=       -0.000000006535 Rises=F Damp=F
 DIIS: error= 5.69D-07 at cycle   4 NSaved=   4.
 NSaved= 4 IEnMin= 4 EnMin= -2902.88082843691     IErMin= 4 ErrMin= 5.69D-07
 ErrMax= 5.69D-07 EMaxC= 1.00D-01 BMatC= 8.06D-11 BMatP= 2.54D-09
 IDIUse=1 WtCom= 1.00D+00 WtEn= 0.00D+00
 Coeff-Com: -0.587D-01-0.316D-01 0.181D+00 0.909D+00
 Coeff:     -0.587D-01-0.316D-01 0.181D+00 0.909D+00
 Gap=     0.502 Goal=   None    Shift=    0.000
 RMSDP=5.68D-08 MaxDP=1.74D-06 DE=-6.54D-09 OVMax= 4.73D-06

 Cycle   8  Pass 1  IDiag  1:
 RMSU=  2.38D-08    CP:  1.00D+00  1.41D+00  1.48D+00  1.28D+00
 E= -2902.88082843706     Delta-E=       -0.000000000155 Rises=F Damp=F
 DIIS: error= 2.18D-07 at cycle   5 NSaved=   5.
 NSaved= 5 IEnMin= 5 EnMin= -2902.88082843706     IErMin= 5 ErrMin= 2.18D-07
 ErrMax= 2.18D-07 EMaxC= 1.00D-01 BMatC= 1.63D-11 BMatP= 8.06D-11
 IDIUse=1 WtCom= 1.00D+00 WtEn= 0.00D+00
 Coeff-Com:  0.660D-01 0.361D-01-0.295D+00-0.116D-01 0.120D+01
 Coeff:      0.660D-01 0.361D-01-0.295D+00-0.116D-01 0.120D+01
 Gap=     0.502 Goal=   None    Shift=    0.000
 RMSDP=3.75D-08 MaxDP=9.85D-07 DE=-1.55D-10 OVMax= 3.02D-06

 Cycle   9  Pass 1  IDiag  1:
 RMSU=  1.07D-08    CP:  1.00D+00  1.41D+00  1.48D+00  1.49D+00  1.36D+00
 E= -2902.88082843711     Delta-E=       -0.000000000045 Rises=F Damp=F
 DIIS: error= 8.20D-08 at cycle   6 NSaved=   6.
 NSaved= 6 IEnMin= 6 EnMin= -2902.88082843711     IErMin= 6 ErrMin= 8.20D-08
 ErrMax= 8.20D-08 EMaxC= 1.00D-01 BMatC= 1.31D-12 BMatP= 1.63D-11
 IDIUse=1 WtCom= 1.00D+00 WtEn= 0.00D+00
 Coeff-Com: -0.500D-02-0.356D-03 0.243D-01-0.614D-01-0.150D+00 0.119D+01
 Coeff:     -0.500D-02-0.356D-03 0.243D-01-0.614D-01-0.150D+00 0.119D+01
 Gap=     0.502 Goal=   None    Shift=    0.000
 RMSDP=9.67D-09 MaxDP=2.13D-07 DE=-4.46D-11 OVMax= 1.14D-06

 SCF Done:  E(RHF) =  -2902.88082844     A.U. after    9 cycles
             Convg  =    0.9672D-08             -V/T =  2.0001
 KE= 2.902607767520D+03 PE=-7.230641536679D+03 EE= 1.280116749059D+03
 Leave Link  502 at Thu Dec 12 09:08:22 2019, MaxMem=  268435456 cpu:      66.8
 (Enter /home/matheus/.gaussian/g09/l801.exe)
 Windowed orbitals will be sorted by symmetry type.
 ExpMin= 2.53D-02 ExpMax= 1.17D+07 ExpMxC= 1.33D+04 IAcc=3 IRadAn=         5 AccDes= 0.00D+00
 HarFok:  IExCor=  205 AccDes= 0.00D+00 IRadAn=         5 IDoV=-2
 ScaDFX=  1.000000  1.000000  1.000000  1.000000
 DSYEVD returned Info=          93 IAlg= 4 N=    46 NDim=    46 NE2=     4547561 trying DSYEV.
 DSYEVD returned Info=          89 IAlg= 4 N=    59 NDim=    59 NE2=     4547561 trying DSYEV.
 Largest valence mixing into a core orbital is  1.44D-04
 Largest core mixing into a valence orbital is  2.59D-05
 Range of M.O.s used for correlation:    12   197
 NBasis=   197 NAE=    27 NBE=    27 NFC=    11 NFV=     0
 NROrb=    186 NOA=    16 NOB=    16 NVA=   170 NVB=   170

 **** Warning!!: The largest alpha MO coefficient is  0.12770002D+02

 Leave Link  801 at Thu Dec 12 09:08:22 2019, MaxMem=  268435456 cpu:       0.2
 (Enter /home/matheus/.gaussian/g09/l804.exe)
 Closed-shell transformation, MDV=   268435456 ITran=4 ISComp=1.
 Semi-Direct transformation.
 ModeAB=           2 MOrb=            16 LenV=     267328018
 LASXX=     48528660 LTotXX=    48528660 LenRXX=    48528660
 LTotAB=    49298776 MaxLAS=    78372960 LenRXY=    78372960
 NonZer=    97057320 LenScr=   146313216 LnRSAI=           0
 LnScr1=           0 LExtra=           0 Total=    273214836
 MaxDsk=          -1 SrtSym=           F ITran=            4
 DoSDTr:  NPSUse=  2
 JobTyp=0 Pass  1:  I=   1 to  16.
 (rs|ai) integrals will be sorted in core.
 Complete sort for first half transformation.
 First half transformation complete.
 Begin second half transformation for I=  10.
 Begin second half transformation for I=  10.
 Complete sort for second half transformation.
 Second half transformation complete.
 SymMOI:  orbitals are not symmetric.
 Spin components of T(2) and E(2):
     alpha-alpha T2 =       0.2587243015D-01 E2=     -0.9967721710D-01
     alpha-beta  T2 =       0.1417776392D+00 E2=     -0.5559102827D+00
     beta-beta   T2 =       0.2587243015D-01 E2=     -0.9967721710D-01
 ANorm=    0.1092484553D+01
 E2 =    -0.7552647169D+00 EUMP2 =    -0.29036360931540D+04
 Leave Link  804 at Thu Dec 12 09:08:45 2019, MaxMem=  268435456 cpu:      45.3
 (Enter /home/matheus/.gaussian/g09/l913.exe)
 CIDS:  MDV=   268435456.
 Frozen-core window:  NFC=  11 NFV=   0.
 IFCWin=0 IBDFC=1 NFBD=     0     0 NFCmp=     0     0 NFFFC=     0     0
 Using DD3R+UMP44R for 1st iteration, S=T.
 Using DD4RQ for 2nd and later iterations.
 Would need an additional       431206676 words for in-memory AO integral storage.
 MP4(SDTQ)
 =========
 DD1Dir will call FoFDir   1 times, MxPair=       272
 NAB=   136 NAA=     0 NBB=     0 NumPrc=  2.
 Integrals replicated using symmetry in FoFDir.
 MinBra= 0 MaxBra= 3 Meth= 1.
 IRaf=       0 NMat= 272 IRICut=     340 DoRegI=T DoRafI=T ISym2E= 2 JSym2E=2.
 MP4(D)= -0.14960832D-01
 MP4(S)= -0.64075209D-02
 MP4(R+Q)=  0.15308412D-01
 T4(AAA)= -0.10314622D-02
 T4(AAB)= -0.14097839D-01
 Time for triples=     1277.60 seconds.
 MP4(T)=   -0.30258603D-01
 E3=       -0.11436546D-01        EUMP3=      -0.29036475297D+04
 E4(DQ)=    0.34758026D-03        UMP4(DQ)=   -0.29036471821D+04
 E4(SDQ)=  -0.60599407D-02        UMP4(SDQ)=  -0.29036535896D+04
 E4(SDTQ)= -0.36318544D-01        UMP4(SDTQ)= -0.29036838482D+04
 VARIATIONAL ENERGIES WITH THE FIRST-ORDER WAVEFUNCTION:
 E(VAR1)=  -0.29035232137D+04     E(CISD,4)=  -0.29035227373D+04
 Largest amplitude= 2.51D-02
 Leave Link  913 at Thu Dec 12 09:20:10 2019, MaxMem=  268435456 cpu:    1367.6
 (Enter /home/matheus/.gaussian/g09/l108.exe)
 Variable Step   Value    
 -------- ---- -----------
     1       2    6.047124
 Leave Link  108 at Thu Dec 12 09:20:10 2019, MaxMem=  268435456 cpu:       0.0
 (Enter /home/matheus/.gaussian/g09/l202.exe)
 ---------------------------------------------------------------------------------------------------
                            Z-MATRIX (ANGSTROMS AND DEGREES)
   CD    Cent   Atom    N1       Length/X        N2       Alpha/Y        N3        Beta/Z          J
 ---------------------------------------------------------------------------------------------------
      1      1  O        0   0.000000          0.000000          0.725000
      2      2  O        0   0.000000          0.000000         -0.725000
      3      3  H        0  -0.590542         -0.703781          1.023510
      4      4  H        0   0.000000          0.918721         -1.023510
      5      5  Kr       0   0.000000          3.200000          0.000000
 ---------------------------------------------------------------------------------------------------
                         Z-Matrix orientation:                         
 ---------------------------------------------------------------------
 Center     Atomic      Atomic             Coordinates (Angstroms)
 Number     Number       Type             X           Y           Z
 ---------------------------------------------------------------------
      1          8           0        0.000000    0.000000    0.725000
      2          8           0        0.000000    0.000000   -0.725000
      3          1           0       -0.590542   -0.703781    1.023510
      4          1           0        0.000000    0.918721   -1.023510
      5         36           0        0.000000    3.200000    0.000000
 ---------------------------------------------------------------------
                    Distance matrix (angstroms):
                    1          2          3          4          5
     1  O    0.000000
     2  O    1.450000   0.000000
     3  H    0.966000   1.975180   0.000000
     4  H    1.975180   0.966000   2.677974   0.000000
     5  Kr   3.281101   3.281101   4.078703   2.500362   0.000000
 Stoichiometry    H2KrO2
 Framework group  C1[X(H2KrO2)]
 Deg. of freedom     9
 Full point group                 C1      NOp   1
 RotChk:  IX=0 Diff= 1.70D-03
 Largest Abelian subgroup         C1      NOp   1
 Largest concise Abelian subgroup C1      NOp   1
                         Standard orientation:                         
 ---------------------------------------------------------------------
 Center     Atomic      Atomic             Coordinates (Angstroms)
 Number     Number       Type             X           Y           Z
 ---------------------------------------------------------------------
      1          8           0       -2.147450   -0.689904   -0.079670
      2          8           0       -2.126009    0.757583    0.002921
      3          1           0       -2.863597   -1.010476    0.483821
      4          1           0       -1.203061    1.041297    0.031726
      5         36           0        1.062620   -0.015896    0.002735
 ---------------------------------------------------------------------
 Rotational constants (GHZ):     26.2539147      2.0337160      1.8919777
 Leave Link  202 at Thu Dec 12 09:20:10 2019, MaxMem=  268435456 cpu:       0.0
 (Enter /home/matheus/.gaussian/g09/l301.exe)
 Standard basis: Aug-CC-pVTZ (5D, 7F)
 Ernie: Thresh=  0.10000D-02 Tol=  0.10000D-05 Strict=F.
 Ernie:  38 primitive shells out of 205 were deleted.
 There are   197 symmetry adapted basis functions of A   symmetry.
 Integral buffers will be    131072 words long.
 Raffenetti 1 integral format.
 Two-electron integral symmetry is turned on.
   197 basis functions,   415 primitive gaussians,   229 cartesian basis functions
    27 alpha electrons       27 beta electrons
       nuclear repulsion energy       141.7930818138 Hartrees.
 IExCor=    0 DFT=F Ex=HF Corr=None ExCW=0 ScaHFX=  1.000000
 ScaDFX=  1.000000  1.000000  1.000000  1.000000 ScalE2=  1.000000  1.000000
 IRadAn=      5 IRanWt=     -1 IRanGd=            0 ICorTp=0
 NAtoms=    5 NActive=    5 NUniq=    5 SFac= 1.00D+00 NAtFMM=   60 NAOKFM=F Big=F
 Leave Link  301 at Thu Dec 12 09:20:10 2019, MaxMem=  268435456 cpu:       0.1
 (Enter /home/matheus/.gaussian/g09/l302.exe)
 NPDir=0 NMtPBC=     1 NCelOv=     1 NCel=       1 NClECP=     1 NCelD=      1
         NCelK=      1 NCelE2=     1 NClLst=     1 CellRange=     0.0.
 One-electron integrals computed using PRISM.
 NBasis=   197 RedAO= T  NBF=   197
 NBsUse=   197 1.00D-06 NBFU=   197
 Leave Link  302 at Thu Dec 12 09:20:11 2019, MaxMem=  268435456 cpu:       0.2
 (Enter /home/matheus/.gaussian/g09/l303.exe)
 DipDrv:  MaxL=1.
 Leave Link  303 at Thu Dec 12 09:20:11 2019, MaxMem=  268435456 cpu:       0.0
 (Enter /home/matheus/.gaussian/g09/l401.exe)
 Initial guess read from the read-write file.
 B after Tr=     0.000000    0.000000    0.000000
         Rot=    1.000000    0.000000    0.000000    0.000000 Ang=   0.00 deg.
 Guess basis will be translated and rotated to current coordinates.
 Initial guess orbital symmetries:
       Occupied  (A) (A) (A) (A) (A) (A) (A) (A) (A) (A) (A) (A)
                 (A) (A) (A) (A) (A) (A) (A) (A) (A) (A) (A) (A)
                 (A) (A) (A)
       Virtual   (A) (A) (A) (A) (A) (A) (A) (A) (A) (A) (A) (A)
                 (A) (A) (A) (A) (A) (A) (A) (A) (A) (A) (A) (A)
                 (A) (A) (A) (A) (A) (A) (A) (A) (A) (A) (A) (A)
                 (A) (A) (A) (A) (A) (A) (A) (A) (A) (A) (A) (A)
                 (A) (A) (A) (A) (A) (A) (A) (A) (A) (A) (A) (A)
                 (A) (A) (A) (A) (A) (A) (A) (A) (A) (A) (A) (A)
                 (A) (A) (A) (A) (A) (A) (A) (A) (A) (A) (A) (A)
                 (A) (A) (A) (A) (A) (A) (A) (A) (A) (A) (A) (A)
                 (A) (A) (A) (A) (A) (A) (A) (A) (A) (A) (A) (A)
                 (A) (A) (A) (A) (A) (A) (A) (A) (A) (A) (A) (A)
                 (A) (A) (A) (A) (A) (A) (A) (A) (A) (A) (A) (A)
                 (A) (A) (A) (A) (A) (A) (A) (A) (A) (A) (A) (A)
                 (A) (A) (A) (A) (A) (A) (A) (A) (A) (A) (A) (A)
                 (A) (A) (A) (A) (A) (A) (A) (A) (A) (A) (A) (A)
                 (A) (A)
 The electronic state of the initial guess is 1-A.
 Generating alternative initial guess.
 Harris functional with IExCor=  205 diagonalized for initial guess.
 ExpMin= 2.53D-02 ExpMax= 1.17D+07 ExpMxC= 1.33D+04 IAcc=3 IRadAn=         5 AccDes= 0.00D+00
 HarFok:  IExCor=  205 AccDes= 0.00D+00 IRadAn=         5 IDoV= 1
 ScaDFX=  1.000000  1.000000  1.000000  1.000000
 FoFCou: FMM=F IPFlag=           0 FMFlag=      100000 FMFlg1=           0
         NFxFlg=           0 DoJE=T BraDBF=F KetDBF=T FulRan=T
         Omega=  0.000000  0.000000  1.000000  0.000000  0.000000 ICntrl=     500 IOpCl=  0
         NMat0=    1 NMatS0=    1 NMatT0=    0 NMatD0=    1 NMtDS0=    0 NMtDT0=    0
         I1Cent=           4 NGrid=           0.
 Petite list used in FoFCou.
 Harris En= -2901.93264977841    
 Leave Link  401 at Thu Dec 12 09:20:11 2019, MaxMem=  268435456 cpu:       1.2
 (Enter /home/matheus/.gaussian/g09/l502.exe)
 Closed shell SCF:
 Requested convergence on RMS density matrix=1.00D-08 within 128 cycles.
 Requested convergence on MAX density matrix=1.00D-06.
 Requested convergence on             energy=1.00D-06.
 No special actions if energy rises.
 Using DIIS extrapolation, IDIIS=  1040.
 Integral symmetry usage will be decided dynamically.
 IEnd=      178489 IEndB=      178489 NGot=   268435456 MDV=   268326278
 LenX=   268326278 LenY=   268273396
 Fock matrices will be formed incrementally for  20 cycles.

 Cycle   1  Pass 0  IDiag  1:
 FoFCou: FMM=F IPFlag=           0 FMFlag=      100000 FMFlg1=           0
         NFxFlg=           0 DoJE=F BraDBF=F KetDBF=F FulRan=T
         Omega=  0.000000  0.000000  1.000000  0.000000  0.000000 ICntrl=       0 IOpCl=  0
         NMat0=    1 NMatS0=    1 NMatT0=    0 NMatD0=    1 NMtDS0=    0 NMtDT0=    0
         I1Cent=           0 NGrid=           0.
 Symmetry not used in FoFCou.
 E= -2902.88249121953    
 DIIS: error= 4.42D-04 at cycle   1 NSaved=   1.
 NSaved= 1 IEnMin= 1 EnMin= -2902.88249121953     IErMin= 1 ErrMin= 4.42D-04
 ErrMax= 4.42D-04 EMaxC= 1.00D-01 BMatC= 5.13D-05 BMatP= 5.13D-05
 IDIUse=3 WtCom= 9.96D-01 WtEn= 4.42D-03
 Coeff-Com:  0.100D+01
 Coeff-En:   0.100D+01
 Coeff:      0.100D+01
 Gap=     0.503 Goal=   None    Shift=    0.000
 RMSDP=6.30D-05 MaxDP=2.35D-03              OVMax= 2.76D-03

 Cycle   2  Pass 0  IDiag  1:
 RMSU=  4.45D-05    CP:  1.00D+00
 E= -2902.88255226363     Delta-E=       -0.000061044095 Rises=F Damp=F
 DIIS: error= 8.75D-05 at cycle   2 NSaved=   2.
 NSaved= 2 IEnMin= 2 EnMin= -2902.88255226363     IErMin= 2 ErrMin= 8.75D-05
 ErrMax= 8.75D-05 EMaxC= 1.00D-01 BMatC= 1.65D-06 BMatP= 5.13D-05
 IDIUse=1 WtCom= 1.00D+00 WtEn= 0.00D+00
 Coeff-Com: -0.839D-01 0.108D+01
 Coeff:     -0.839D-01 0.108D+01
 Gap=     0.502 Goal=   None    Shift=    0.000
 RMSDP=1.18D-05 MaxDP=3.99D-04 DE=-6.10D-05 OVMax= 5.55D-04

 Cycle   3  Pass 0  IDiag  1:
 RMSU=  5.28D-06    CP:  1.00D+00  1.14D+00
 E= -2902.88255478835     Delta-E=       -0.000002524724 Rises=F Damp=F
 DIIS: error= 2.78D-05 at cycle   3 NSaved=   3.
 NSaved= 3 IEnMin= 3 EnMin= -2902.88255478835     IErMin= 3 ErrMin= 2.78D-05
 ErrMax= 2.78D-05 EMaxC= 1.00D-01 BMatC= 2.55D-07 BMatP= 1.65D-06
 IDIUse=1 WtCom= 1.00D+00 WtEn= 0.00D+00
 Coeff-Com: -0.414D-01 0.256D+00 0.786D+00
 Coeff:     -0.414D-01 0.256D+00 0.786D+00
 Gap=     0.502 Goal=   None    Shift=    0.000
 RMSDP=2.22D-06 MaxDP=6.86D-05 DE=-2.52D-06 OVMax= 1.43D-04

 Initial convergence to 1.0D-05 achieved.  Increase integral accuracy.
 Cycle   4  Pass 1  IDiag  1:
 E= -2902.88255503558     Delta-E=       -0.000000247230 Rises=F Damp=F
 DIIS: error= 1.07D-05 at cycle   1 NSaved=   1.
 NSaved= 1 IEnMin= 1 EnMin= -2902.88255503558     IErMin= 1 ErrMin= 1.07D-05
 ErrMax= 1.07D-05 EMaxC= 1.00D-01 BMatC= 3.31D-08 BMatP= 3.31D-08
 IDIUse=1 WtCom= 1.00D+00 WtEn= 0.00D+00
 Coeff-Com:  0.100D+01
 Coeff:      0.100D+01
 Gap=     0.502 Goal=   None    Shift=    0.000
 RMSDP=2.22D-06 MaxDP=6.86D-05 DE=-2.47D-07 OVMax= 8.13D-05

 Cycle   5  Pass 1  IDiag  1:
 RMSU=  7.96D-07    CP:  1.00D+00
 E= -2902.88255507533     Delta-E=       -0.000000039751 Rises=F Damp=F
 DIIS: error= 6.86D-06 at cycle   2 NSaved=   2.
 NSaved= 2 IEnMin= 2 EnMin= -2902.88255507533     IErMin= 2 ErrMin= 6.86D-06
 ErrMax= 6.86D-06 EMaxC= 1.00D-01 BMatC= 1.36D-08 BMatP= 3.31D-08
 IDIUse=1 WtCom= 1.00D+00 WtEn= 0.00D+00
 Coeff-Com:  0.346D+00 0.654D+00
 Coeff:      0.346D+00 0.654D+00
 Gap=     0.502 Goal=   None    Shift=    0.000
 RMSDP=3.47D-07 MaxDP=1.51D-05 DE=-3.98D-08 OVMax= 3.34D-05

 Cycle   6  Pass 1  IDiag  1:
 RMSU=  2.41D-07    CP:  1.00D+00  1.06D+00
 E= -2902.88255508776     Delta-E=       -0.000000012431 Rises=F Damp=F
 DIIS: error= 2.47D-06 at cycle   3 NSaved=   3.
 NSaved= 3 IEnMin= 3 EnMin= -2902.88255508776     IErMin= 3 ErrMin= 2.47D-06
 ErrMax= 2.47D-06 EMaxC= 1.00D-01 BMatC= 1.79D-09 BMatP= 1.36D-08
 IDIUse=1 WtCom= 1.00D+00 WtEn= 0.00D+00
 Coeff-Com: -0.352D+00-0.157D+00 0.151D+01
 Coeff:     -0.352D+00-0.157D+00 0.151D+01
 Gap=     0.502 Goal=   None    Shift=    0.000
 RMSDP=4.34D-07 MaxDP=1.26D-05 DE=-1.24D-08 OVMax= 3.63D-05

 Cycle   7  Pass 1  IDiag  1:
 RMSU=  9.38D-08    CP:  1.00D+00  1.40D+00  1.45D+00
 E= -2902.88255509245     Delta-E=       -0.000000004692 Rises=F Damp=F
 DIIS: error= 4.68D-07 at cycle   4 NSaved=   4.
 NSaved= 4 IEnMin= 4 EnMin= -2902.88255509245     IErMin= 4 ErrMin= 4.68D-07
 ErrMax= 4.68D-07 EMaxC= 1.00D-01 BMatC= 5.94D-11 BMatP= 1.79D-09
 IDIUse=1 WtCom= 1.00D+00 WtEn= 0.00D+00
 Coeff-Com: -0.627D-01-0.346D-01 0.200D+00 0.897D+00
 Coeff:     -0.627D-01-0.346D-01 0.200D+00 0.897D+00
 Gap=     0.502 Goal=   None    Shift=    0.000
 RMSDP=4.83D-08 MaxDP=1.50D-06 DE=-4.69D-09 OVMax= 4.06D-06

 Cycle   8  Pass 1  IDiag  1:
 RMSU=  2.02D-08    CP:  1.00D+00  1.41D+00  1.47D+00  1.28D+00
 E= -2902.88255509256     Delta-E=       -0.000000000107 Rises=F Damp=F
 DIIS: error= 1.91D-07 at cycle   5 NSaved=   5.
 NSaved= 5 IEnMin= 5 EnMin= -2902.88255509256     IErMin= 5 ErrMin= 1.91D-07
 ErrMax= 1.91D-07 EMaxC= 1.00D-01 BMatC= 1.22D-11 BMatP= 5.94D-11
 IDIUse=1 WtCom= 1.00D+00 WtEn= 0.00D+00
 Coeff-Com:  0.718D-01 0.402D-01-0.319D+00-0.162D-01 0.122D+01
 Coeff:      0.718D-01 0.402D-01-0.319D+00-0.162D-01 0.122D+01
 Gap=     0.502 Goal=   None    Shift=    0.000
 RMSDP=3.40D-08 MaxDP=9.93D-07 DE=-1.07D-10 OVMax= 2.67D-06

 Cycle   9  Pass 1  IDiag  1:
 RMSU=  9.42D-09    CP:  1.00D+00  1.40D+00  1.47D+00  1.50D+00  1.36D+00
 E= -2902.88255509261     Delta-E=       -0.000000000048 Rises=F Damp=F
 DIIS: error= 7.41D-08 at cycle   6 NSaved=   6.
 NSaved= 6 IEnMin= 6 EnMin= -2902.88255509261     IErMin= 6 ErrMin= 7.41D-08
 ErrMax= 7.41D-08 EMaxC= 1.00D-01 BMatC= 9.39D-13 BMatP= 1.22D-11
 IDIUse=1 WtCom= 1.00D+00 WtEn= 0.00D+00
 Coeff-Com: -0.166D-01-0.682D-02 0.749D-01-0.521D-01-0.343D+00 0.134D+01
 Coeff:     -0.166D-01-0.682D-02 0.749D-01-0.521D-01-0.343D+00 0.134D+01
 Gap=     0.502 Goal=   None    Shift=    0.000
 RMSDP=9.57D-09 MaxDP=2.19D-07 DE=-4.77D-11 OVMax= 1.05D-06

 SCF Done:  E(RHF) =  -2902.88255509     A.U. after    9 cycles
             Convg  =    0.9574D-08             -V/T =  2.0001
 KE= 2.902594444066D+03 PE=-7.224147667310D+03 EE= 1.276877586338D+03
 Leave Link  502 at Thu Dec 12 09:20:44 2019, MaxMem=  268435456 cpu:      64.8
 (Enter /home/matheus/.gaussian/g09/l801.exe)
 Windowed orbitals will be sorted by symmetry type.
 ExpMin= 2.53D-02 ExpMax= 1.17D+07 ExpMxC= 1.33D+04 IAcc=3 IRadAn=         5 AccDes= 0.00D+00
 HarFok:  IExCor=  205 AccDes= 0.00D+00 IRadAn=         5 IDoV=-2
 ScaDFX=  1.000000  1.000000  1.000000  1.000000
 DSYEVD returned Info=          93 IAlg= 4 N=    46 NDim=    46 NE2=     4547561 trying DSYEV.
 DSYEVD returned Info=          93 IAlg= 4 N=    46 NDim=    46 NE2=     4547561 trying DSYEV.
 DSYEVD returned Info=          89 IAlg= 4 N=    59 NDim=    59 NE2=     4547561 trying DSYEV.
 Largest valence mixing into a core orbital is  1.44D-04
 Largest core mixing into a valence orbital is  2.60D-05
 Range of M.O.s used for correlation:    12   197
 NBasis=   197 NAE=    27 NBE=    27 NFC=    11 NFV=     0
 NROrb=    186 NOA=    16 NOB=    16 NVA=   170 NVB=   170

 **** Warning!!: The largest alpha MO coefficient is  0.12309419D+02

 Leave Link  801 at Thu Dec 12 09:20:44 2019, MaxMem=  268435456 cpu:       0.2
 (Enter /home/matheus/.gaussian/g09/l804.exe)
 Closed-shell transformation, MDV=   268435456 ITran=4 ISComp=1.
 Semi-Direct transformation.
 ModeAB=           4 MOrb=            16 LenV=     267328996
 LASXX=     48528660 LTotXX=    48528660 LenRXX=    97827436
 LTotAB=    49298776 MaxLAS=    78349152 LenRXY=           0
 NonZer=   146356096 LenScr=   220395520 LnRSAI=    78349152
 LnScr1=   118292480 LExtra=           0 Total=    514864588
 MaxDsk=          -1 SrtSym=           T ITran=            4
 DoSDTr:  NPSUse=  2
 JobTyp=0 Pass  1:  I=   1 to  16.
 (rs|ai) integrals will be sorted in core.
 Complete sort for first half transformation.
 First half transformation complete.
 Begin second half transformation for I=  10.
 Complete sort for second half transformation.
 Second half transformation complete.
 SymMOI:  orbitals are not symmetric.
 Spin components of T(2) and E(2):
     alpha-alpha T2 =       0.2580890046D-01 E2=     -0.9946112675D-01
     alpha-beta  T2 =       0.1416902433D+00 E2=     -0.5554103707D+00
     beta-beta   T2 =       0.2580890046D-01 E2=     -0.9946112675D-01
 ANorm=    0.1092386399D+01
 E2 =    -0.7543326242D+00 EUMP2 =    -0.29036368877168D+04
 Leave Link  804 at Thu Dec 12 09:21:06 2019, MaxMem=  268435456 cpu:      43.5
 (Enter /home/matheus/.gaussian/g09/l913.exe)
 CIDS:  MDV=   268435456.
 Frozen-core window:  NFC=  11 NFV=   0.
 IFCWin=0 IBDFC=1 NFBD=     0     0 NFCmp=     0     0 NFFFC=     0     0
 Using DD3R+UMP44R for 1st iteration, S=T.
 Using DD4RQ for 2nd and later iterations.
 Would need an additional       431206676 words for in-memory AO integral storage.
 MP4(SDTQ)
 =========
 DD1Dir will call FoFDir   1 times, MxPair=       272
 NAB=   136 NAA=     0 NBB=     0 NumPrc=  2.
 Integrals replicated using symmetry in FoFDir.
 MinBra= 0 MaxBra= 3 Meth= 1.
 IRaf=       0 NMat= 272 IRICut=     340 DoRegI=T DoRafI=T ISym2E= 2 JSym2E=2.
 MP4(D)= -0.14959301D-01
 MP4(S)= -0.63837346D-02
 MP4(R+Q)=  0.15249094D-01
 T4(AAA)= -0.10232553D-02
 T4(AAB)= -0.14044299D-01
 Time for triples=     1274.61 seconds.
 MP4(T)=   -0.30135109D-01
 E3=       -0.11560969D-01        EUMP3=      -0.29036484487D+04
 E4(DQ)=    0.28979325D-03        UMP4(DQ)=   -0.29036481589D+04
 E4(SDQ)=  -0.60939414D-02        UMP4(SDQ)=  -0.29036545426D+04
 E4(SDTQ)= -0.36229050D-01        UMP4(SDTQ)= -0.29036846777D+04
 VARIATIONAL ENERGIES WITH THE FIRST-ORDER WAVEFUNCTION:
 E(VAR1)=  -0.29035243790D+04     E(CISD,4)=  -0.29035239732D+04
 Largest amplitude= 2.73D-02
 Leave Link  913 at Thu Dec 12 09:32:31 2019, MaxMem=  268435456 cpu:    1365.4
 (Enter /home/matheus/.gaussian/g09/l108.exe)
 Variable Step   Value    
 -------- ---- -----------
     1       3    6.236096
 Leave Link  108 at Thu Dec 12 09:32:31 2019, MaxMem=  268435456 cpu:       0.0
 (Enter /home/matheus/.gaussian/g09/l202.exe)
 ---------------------------------------------------------------------------------------------------
                            Z-MATRIX (ANGSTROMS AND DEGREES)
   CD    Cent   Atom    N1       Length/X        N2       Alpha/Y        N3        Beta/Z          J
 ---------------------------------------------------------------------------------------------------
      1      1  O        0   0.000000          0.000000          0.725000
      2      2  O        0   0.000000          0.000000         -0.725000
      3      3  H        0  -0.590542         -0.703781          1.023510
      4      4  H        0   0.000000          0.918721         -1.023510
      5      5  Kr       0   0.000000          3.300000          0.000000
 ---------------------------------------------------------------------------------------------------
                         Z-Matrix orientation:                         
 ---------------------------------------------------------------------
 Center     Atomic      Atomic             Coordinates (Angstroms)
 Number     Number       Type             X           Y           Z
 ---------------------------------------------------------------------
      1          8           0        0.000000    0.000000    0.725000
      2          8           0        0.000000    0.000000   -0.725000
      3          1           0       -0.590542   -0.703781    1.023510
      4          1           0        0.000000    0.918721   -1.023510
      5         36           0        0.000000    3.300000    0.000000
 ---------------------------------------------------------------------
                    Distance matrix (angstroms):
                    1          2          3          4          5
     1  O    0.000000
     2  O    1.450000   0.000000
     3  H    0.966000   1.975180   0.000000
     4  H    1.975180   0.966000   2.677974   0.000000
     5  Kr   3.378702   3.378702   4.174515   2.591923   0.000000
 Stoichiometry    H2KrO2
 Framework group  C1[X(H2KrO2)]
 Deg. of freedom     9
 Full point group                 C1      NOp   1
 RotChk:  IX=0 Diff= 1.54D-03
 Largest Abelian subgroup         C1      NOp   1
 Largest concise Abelian subgroup C1      NOp   1
                         Standard orientation:                         
 ---------------------------------------------------------------------
 Center     Atomic      Atomic             Coordinates (Angstroms)
 Number     Number       Type             X           Y           Z
 ---------------------------------------------------------------------
      1          8           0       -2.213462   -0.691037   -0.079560
      2          8           0       -2.193405    0.756464    0.003142
      3          1           0       -2.929033   -1.012360    0.484235
      4          1           0       -1.270724    1.041082    0.031544
      5         36           0        1.095964   -0.015337    0.002655
 ---------------------------------------------------------------------
 Rotational constants (GHZ):     26.2525927      1.9128808      1.7869594
 Leave Link  202 at Thu Dec 12 09:32:31 2019, MaxMem=  268435456 cpu:       0.0
 (Enter /home/matheus/.gaussian/g09/l301.exe)
 Standard basis: Aug-CC-pVTZ (5D, 7F)
 Ernie: Thresh=  0.10000D-02 Tol=  0.10000D-05 Strict=F.
 Ernie:  38 primitive shells out of 205 were deleted.
 There are   197 symmetry adapted basis functions of A   symmetry.
 Integral buffers will be    131072 words long.
 Raffenetti 1 integral format.
 Two-electron integral symmetry is turned on.
   197 basis functions,   415 primitive gaussians,   229 cartesian basis functions
    27 alpha electrons       27 beta electrons
       nuclear repulsion energy       138.7332063708 Hartrees.
 IExCor=    0 DFT=F Ex=HF Corr=None ExCW=0 ScaHFX=  1.000000
 ScaDFX=  1.000000  1.000000  1.000000  1.000000 ScalE2=  1.000000  1.000000
 IRadAn=      5 IRanWt=     -1 IRanGd=            0 ICorTp=0
 NAtoms=    5 NActive=    5 NUniq=    5 SFac= 1.00D+00 NAtFMM=   60 NAOKFM=F Big=F
 Leave Link  301 at Thu Dec 12 09:32:31 2019, MaxMem=  268435456 cpu:       0.0
 (Enter /home/matheus/.gaussian/g09/l302.exe)
 NPDir=0 NMtPBC=     1 NCelOv=     1 NCel=       1 NClECP=     1 NCelD=      1
         NCelK=      1 NCelE2=     1 NClLst=     1 CellRange=     0.0.
 One-electron integrals computed using PRISM.
 NBasis=   197 RedAO= T  NBF=   197
 NBsUse=   197 1.00D-06 NBFU=   197
 Leave Link  302 at Thu Dec 12 09:32:31 2019, MaxMem=  268435456 cpu:       0.2
 (Enter /home/matheus/.gaussian/g09/l303.exe)
 DipDrv:  MaxL=1.
 Leave Link  303 at Thu Dec 12 09:32:31 2019, MaxMem=  268435456 cpu:       0.1
 (Enter /home/matheus/.gaussian/g09/l401.exe)
 Initial guess read from the read-write file.
 B after Tr=     0.000000    0.000000    0.000000
         Rot=    1.000000    0.000000    0.000000    0.000000 Ang=   0.00 deg.
 Guess basis will be translated and rotated to current coordinates.
 Initial guess orbital symmetries:
       Occupied  (A) (A) (A) (A) (A) (A) (A) (A) (A) (A) (A) (A)
                 (A) (A) (A) (A) (A) (A) (A) (A) (A) (A) (A) (A)
                 (A) (A) (A)
       Virtual   (A) (A) (A) (A) (A) (A) (A) (A) (A) (A) (A) (A)
                 (A) (A) (A) (A) (A) (A) (A) (A) (A) (A) (A) (A)
                 (A) (A) (A) (A) (A) (A) (A) (A) (A) (A) (A) (A)
                 (A) (A) (A) (A) (A) (A) (A) (A) (A) (A) (A) (A)
                 (A) (A) (A) (A) (A) (A) (A) (A) (A) (A) (A) (A)
                 (A) (A) (A) (A) (A) (A) (A) (A) (A) (A) (A) (A)
                 (A) (A) (A) (A) (A) (A) (A) (A) (A) (A) (A) (A)
                 (A) (A) (A) (A) (A) (A) (A) (A) (A) (A) (A) (A)
                 (A) (A) (A) (A) (A) (A) (A) (A) (A) (A) (A) (A)
                 (A) (A) (A) (A) (A) (A) (A) (A) (A) (A) (A) (A)
                 (A) (A) (A) (A) (A) (A) (A) (A) (A) (A) (A) (A)
                 (A) (A) (A) (A) (A) (A) (A) (A) (A) (A) (A) (A)
                 (A) (A) (A) (A) (A) (A) (A) (A) (A) (A) (A) (A)
                 (A) (A) (A) (A) (A) (A) (A) (A) (A) (A) (A) (A)
                 (A) (A)
 The electronic state of the initial guess is 1-A.
 Generating alternative initial guess.
 Harris functional with IExCor=  205 diagonalized for initial guess.
 ExpMin= 2.53D-02 ExpMax= 1.17D+07 ExpMxC= 1.33D+04 IAcc=3 IRadAn=         5 AccDes= 0.00D+00
 HarFok:  IExCor=  205 AccDes= 0.00D+00 IRadAn=         5 IDoV= 1
 ScaDFX=  1.000000  1.000000  1.000000  1.000000
 FoFCou: FMM=F IPFlag=           0 FMFlag=      100000 FMFlg1=           0
         NFxFlg=           0 DoJE=T BraDBF=F KetDBF=T FulRan=T
         Omega=  0.000000  0.000000  1.000000  0.000000  0.000000 ICntrl=     500 IOpCl=  0
         NMat0=    1 NMatS0=    1 NMatT0=    0 NMatD0=    1 NMtDS0=    0 NMtDT0=    0
         I1Cent=           4 NGrid=           0.
 Petite list used in FoFCou.
 Harris En= -2901.93300196881    
 Leave Link  401 at Thu Dec 12 09:32:31 2019, MaxMem=  268435456 cpu:       1.2
 (Enter /home/matheus/.gaussian/g09/l502.exe)
 Closed shell SCF:
 Requested convergence on RMS density matrix=1.00D-08 within 128 cycles.
 Requested convergence on MAX density matrix=1.00D-06.
 Requested convergence on             energy=1.00D-06.
 No special actions if energy rises.
 Using DIIS extrapolation, IDIIS=  1040.
 Integral symmetry usage will be decided dynamically.
 IEnd=      178489 IEndB=      178489 NGot=   268435456 MDV=   268326278
 LenX=   268326278 LenY=   268273396
 Fock matrices will be formed incrementally for  20 cycles.

 Cycle   1  Pass 0  IDiag  1:
 FoFCou: FMM=F IPFlag=           0 FMFlag=      100000 FMFlg1=           0
         NFxFlg=           0 DoJE=F BraDBF=F KetDBF=F FulRan=T
         Omega=  0.000000  0.000000  1.000000  0.000000  0.000000 ICntrl=       0 IOpCl=  0
         NMat0=    1 NMatS0=    1 NMatT0=    0 NMatD0=    1 NMtDS0=    0 NMtDT0=    0
         I1Cent=           0 NGrid=           0.
 Symmetry not used in FoFCou.
 E= -2902.88372579740    
 DIIS: error= 3.71D-04 at cycle   1 NSaved=   1.
 NSaved= 1 IEnMin= 1 EnMin= -2902.88372579740     IErMin= 1 ErrMin= 3.71D-04
 ErrMax= 3.71D-04 EMaxC= 1.00D-01 BMatC= 3.87D-05 BMatP= 3.87D-05
 IDIUse=3 WtCom= 9.96D-01 WtEn= 3.71D-03
 Coeff-Com:  0.100D+01
 Coeff-En:   0.100D+01
 Coeff:      0.100D+01
 Gap=     0.503 Goal=   None    Shift=    0.000
 RMSDP=5.72D-05 MaxDP=1.64D-03              OVMax= 2.49D-03

 Cycle   2  Pass 0  IDiag  1:
 RMSU=  4.05D-05    CP:  1.00D+00
 E= -2902.88377191346     Delta-E=       -0.000046116062 Rises=F Damp=F
 DIIS: error= 7.24D-05 at cycle   2 NSaved=   2.
 NSaved= 2 IEnMin= 2 EnMin= -2902.88377191346     IErMin= 2 ErrMin= 7.24D-05
 ErrMax= 7.24D-05 EMaxC= 1.00D-01 BMatC= 1.15D-06 BMatP= 3.87D-05
 IDIUse=1 WtCom= 1.00D+00 WtEn= 0.00D+00
 Coeff-Com: -0.876D-01 0.109D+01
 Coeff:     -0.876D-01 0.109D+01
 Gap=     0.502 Goal=   None    Shift=    0.000
 RMSDP=1.03D-05 MaxDP=3.23D-04 DE=-4.61D-05 OVMax= 5.06D-04

 Cycle   3  Pass 0  IDiag  1:
 RMSU=  4.56D-06    CP:  1.00D+00  1.14D+00
 E= -2902.88377376708     Delta-E=       -0.000001853612 Rises=F Damp=F
 DIIS: error= 2.06D-05 at cycle   3 NSaved=   3.
 NSaved= 3 IEnMin= 3 EnMin= -2902.88377376708     IErMin= 3 ErrMin= 2.06D-05
 ErrMax= 2.06D-05 EMaxC= 1.00D-01 BMatC= 1.57D-07 BMatP= 1.15D-06
 IDIUse=1 WtCom= 1.00D+00 WtEn= 0.00D+00
 Coeff-Com: -0.378D-01 0.234D+00 0.804D+00
 Coeff:     -0.378D-01 0.234D+00 0.804D+00
 Gap=     0.503 Goal=   None    Shift=    0.000
 RMSDP=1.93D-06 MaxDP=6.29D-05 DE=-1.85D-06 OVMax= 1.24D-04

 Initial convergence to 1.0D-05 achieved.  Increase integral accuracy.
 Cycle   4  Pass 1  IDiag  1:
 E= -2902.88377393073     Delta-E=       -0.000000163659 Rises=F Damp=F
 DIIS: error= 7.73D-06 at cycle   1 NSaved=   1.
 NSaved= 1 IEnMin= 1 EnMin= -2902.88377393073     IErMin= 1 ErrMin= 7.73D-06
 ErrMax= 7.73D-06 EMaxC= 1.00D-01 BMatC= 2.35D-08 BMatP= 2.35D-08
 IDIUse=1 WtCom= 1.00D+00 WtEn= 0.00D+00
 Coeff-Com:  0.100D+01
 Coeff:      0.100D+01
 Gap=     0.503 Goal=   None    Shift=    0.000
 RMSDP=1.93D-06 MaxDP=6.29D-05 DE=-1.64D-07 OVMax= 6.85D-05

 Cycle   5  Pass 1  IDiag  1:
 RMSU=  6.86D-07    CP:  1.00D+00
 E= -2902.88377395890     Delta-E=       -0.000000028169 Rises=F Damp=F
 DIIS: error= 5.26D-06 at cycle   2 NSaved=   2.
 NSaved= 2 IEnMin= 2 EnMin= -2902.88377395890     IErMin= 2 ErrMin= 5.26D-06
 ErrMax= 5.26D-06 EMaxC= 1.00D-01 BMatC= 9.81D-09 BMatP= 2.35D-08
 IDIUse=1 WtCom= 1.00D+00 WtEn= 0.00D+00
 Coeff-Com:  0.349D+00 0.651D+00
 Coeff:      0.349D+00 0.651D+00
 Gap=     0.503 Goal=   None    Shift=    0.000
 RMSDP=2.93D-07 MaxDP=1.26D-05 DE=-2.82D-08 OVMax= 2.80D-05

 Cycle   6  Pass 1  IDiag  1:
 RMSU=  2.03D-07    CP:  1.00D+00  1.06D+00
 E= -2902.88377396779     Delta-E=       -0.000000008886 Rises=F Damp=F
 DIIS: error= 2.07D-06 at cycle   3 NSaved=   3.
 NSaved= 3 IEnMin= 3 EnMin= -2902.88377396779     IErMin= 3 ErrMin= 2.07D-06
 ErrMax= 2.07D-06 EMaxC= 1.00D-01 BMatC= 1.25D-09 BMatP= 9.81D-09
 IDIUse=1 WtCom= 1.00D+00 WtEn= 0.00D+00
 Coeff-Com: -0.353D+00-0.166D+00 0.152D+01
 Coeff:     -0.353D+00-0.166D+00 0.152D+01
 Gap=     0.503 Goal=   None    Shift=    0.000
 RMSDP=3.67D-07 MaxDP=1.12D-05 DE=-8.89D-09 OVMax= 3.07D-05

 Cycle   7  Pass 1  IDiag  1:
 RMSU=  8.19D-08    CP:  1.00D+00  1.39D+00  1.45D+00
 E= -2902.88377397113     Delta-E=       -0.000000003341 Rises=F Damp=F
 DIIS: error= 4.12D-07 at cycle   4 NSaved=   4.
 NSaved= 4 IEnMin= 4 EnMin= -2902.88377397113     IErMin= 4 ErrMin= 4.12D-07
 ErrMax= 4.12D-07 EMaxC= 1.00D-01 BMatC= 4.28D-11 BMatP= 1.25D-09
 IDIUse=1 WtCom= 1.00D+00 WtEn= 0.00D+00
 Coeff-Com: -0.647D-01-0.370D-01 0.211D+00 0.891D+00
 Coeff:     -0.647D-01-0.370D-01 0.211D+00 0.891D+00
 Gap=     0.503 Goal=   None    Shift=    0.000
 RMSDP=4.11D-08 MaxDP=1.27D-06 DE=-3.34D-09 OVMax= 3.46D-06

 Cycle   8  Pass 1  IDiag  1:
 RMSU=  1.71D-08    CP:  1.00D+00  1.40D+00  1.47D+00  1.28D+00
 E= -2902.88377397120     Delta-E=       -0.000000000072 Rises=F Damp=F
 DIIS: error= 1.52D-07 at cycle   5 NSaved=   5.
 NSaved= 5 IEnMin= 5 EnMin= -2902.88377397120     IErMin= 5 ErrMin= 1.52D-07
 ErrMax= 1.52D-07 EMaxC= 1.00D-01 BMatC= 9.00D-12 BMatP= 4.28D-11
 IDIUse=1 WtCom= 1.00D+00 WtEn= 0.00D+00
 Coeff-Com:  0.768D-01 0.444D-01-0.340D+00-0.228D-01 0.124D+01
 Coeff:      0.768D-01 0.444D-01-0.340D+00-0.228D-01 0.124D+01
 Gap=     0.503 Goal=   None    Shift=    0.000
 RMSDP=3.03D-08 MaxDP=1.03D-06 DE=-7.19D-11 OVMax= 2.31D-06

 Cycle   9  Pass 1  IDiag  1:
 RMSU=  8.35D-09    CP:  1.00D+00  1.39D+00  1.47D+00  1.50D+00  1.37D+00
 E= -2902.88377397124     Delta-E=       -0.000000000037 Rises=F Damp=F
 DIIS: error= 5.93D-08 at cycle   6 NSaved=   6.
 NSaved= 6 IEnMin= 6 EnMin= -2902.88377397124     IErMin= 6 ErrMin= 5.93D-08
[...]
     1  O    0.000000
     2  O    1.450000   0.000000
     3  H    0.966000   1.975180   0.000000
     4  H    1.975180   0.966000   2.677974   0.000000
     5  Kr   5.052289   5.052289   5.824897   4.207661   0.000000
 Stoichiometry    H2KrO2
 Framework group  C1[X(H2KrO2)]
 Deg. of freedom     9
 Full point group                 C1      NOp   1
 RotChk:  IX=0 Diff= 4.44D-04
 Largest Abelian subgroup         C1      NOp   1
 Largest concise Abelian subgroup C1      NOp   1
                         Standard orientation:                         
 ---------------------------------------------------------------------
 Center     Atomic      Atomic             Coordinates (Angstroms)
 Number     Number       Type             X           Y           Z
 ---------------------------------------------------------------------
      1          8           0       -3.341237   -0.702433   -0.078306
      2          8           0       -3.332893    0.745116    0.005537
      3          1           0       -4.051412   -1.030191    0.488600
      4          1           0       -2.412500    1.037421    0.029809
      5         36           0        1.662693   -0.009686    0.001770
 ---------------------------------------------------------------------
 Rotational constants (GHZ):     26.2408977      0.8351826      0.8102469
 Leave Link  202 at Thu Dec 12 13:00:21 2019, MaxMem=  268435456 cpu:       0.0
 (Enter /home/matheus/.gaussian/g09/l301.exe)
 Standard basis: Aug-CC-pVTZ (5D, 7F)
 Ernie: Thresh=  0.10000D-02 Tol=  0.10000D-05 Strict=F.
 Ernie:  38 primitive shells out of 205 were deleted.
 There are   197 symmetry adapted basis functions of A   symmetry.
 Integral buffers will be    131072 words long.
 Raffenetti 1 integral format.
 Two-electron integral symmetry is turned on.
   197 basis functions,   415 primitive gaussians,   229 cartesian basis functions
    27 alpha electrons       27 beta electrons
       nuclear repulsion energy       104.7341910466 Hartrees.
 IExCor=    0 DFT=F Ex=HF Corr=None ExCW=0 ScaHFX=  1.000000
 ScaDFX=  1.000000  1.000000  1.000000  1.000000 ScalE2=  1.000000  1.000000
 IRadAn=      5 IRanWt=     -1 IRanGd=            0 ICorTp=0
 NAtoms=    5 NActive=    5 NUniq=    5 SFac= 1.00D+00 NAtFMM=   60 NAOKFM=F Big=F
 Leave Link  301 at Thu Dec 12 13:00:21 2019, MaxMem=  268435456 cpu:       0.0
 (Enter /home/matheus/.gaussian/g09/l302.exe)
 NPDir=0 NMtPBC=     1 NCelOv=     1 NCel=       1 NClECP=     1 NCelD=      1
         NCelK=      1 NCelE2=     1 NClLst=     1 CellRange=     0.0.
 One-electron integrals computed using PRISM.
 NBasis=   197 RedAO= T  NBF=   197
 NBsUse=   197 1.00D-06 NBFU=   197
 Leave Link  302 at Thu Dec 12 13:00:21 2019, MaxMem=  268435456 cpu:       0.2
 (Enter /home/matheus/.gaussian/g09/l303.exe)
 DipDrv:  MaxL=1.
 Leave Link  303 at Thu Dec 12 13:00:21 2019, MaxMem=  268435456 cpu:       0.1
 (Enter /home/matheus/.gaussian/g09/l401.exe)
 Initial guess read from the read-write file.
 B after Tr=     0.000000    0.000000    0.000000
         Rot=    1.000000    0.000000    0.000000    0.000000 Ang=   0.00 deg.
 Guess basis will be translated and rotated to current coordinates.
 Initial guess orbital symmetries:
       Occupied  (A) (A) (A) (A) (A) (A) (A) (A) (A) (A) (A) (A)
                 (A) (A) (A) (A) (A) (A) (A) (A) (A) (A) (A) (A)
                 (A) (A) (A)
       Virtual   (A) (A) (A) (A) (A) (A) (A) (A) (A) (A) (A) (A)
                 (A) (A) (A) (A) (A) (A) (A) (A) (A) (A) (A) (A)
                 (A) (A) (A) (A) (A) (A) (A) (A) (A) (A) (A) (A)
                 (A) (A) (A) (A) (A) (A) (A) (A) (A) (A) (A) (A)
                 (A) (A) (A) (A) (A) (A) (A) (A) (A) (A) (A) (A)
                 (A) (A) (A) (A) (A) (A) (A) (A) (A) (A) (A) (A)
                 (A) (A) (A) (A) (A) (A) (A) (A) (A) (A) (A) (A)
                 (A) (A) (A) (A) (A) (A) (A) (A) (A) (A) (A) (A)
                 (A) (A) (A) (A) (A) (A) (A) (A) (A) (A) (A) (A)
                 (A) (A) (A) (A) (A) (A) (A) (A) (A) (A) (A) (A)
                 (A) (A) (A) (A) (A) (A) (A) (A) (A) (A) (A) (A)
                 (A) (A) (A) (A) (A) (A) (A) (A) (A) (A) (A) (A)
                 (A) (A) (A) (A) (A) (A) (A) (A) (A) (A) (A) (A)
                 (A) (A) (A) (A) (A) (A) (A) (A) (A) (A) (A) (A)
                 (A) (A)
 The electronic state of the initial guess is 1-A.
 Generating alternative initial guess.
 Harris functional with IExCor=  205 diagonalized for initial guess.
 ExpMin= 2.53D-02 ExpMax= 1.17D+07 ExpMxC= 1.33D+04 IAcc=3 IRadAn=         5 AccDes= 0.00D+00
 HarFok:  IExCor=  205 AccDes= 0.00D+00 IRadAn=         5 IDoV= 1
 ScaDFX=  1.000000  1.000000  1.000000  1.000000
 FoFCou: FMM=F IPFlag=           0 FMFlag=      100000 FMFlg1=           0
         NFxFlg=           0 DoJE=T BraDBF=F KetDBF=T FulRan=T
         Omega=  0.000000  0.000000  1.000000  0.000000  0.000000 ICntrl=     500 IOpCl=  0
         NMat0=    1 NMatS0=    1 NMatT0=    0 NMatD0=    1 NMtDS0=    0 NMtDT0=    0
         I1Cent=           4 NGrid=           0.
 Petite list used in FoFCou.
 Harris En= -2901.93275844555    
 Leave Link  401 at Thu Dec 12 13:00:22 2019, MaxMem=  268435456 cpu:       1.1
 (Enter /home/matheus/.gaussian/g09/l502.exe)
 Closed shell SCF:
 Requested convergence on RMS density matrix=1.00D-08 within 128 cycles.
 Requested convergence on MAX density matrix=1.00D-06.
 Requested convergence on             energy=1.00D-06.
 No special actions if energy rises.
 Using DIIS extrapolation, IDIIS=  1040.
 Integral symmetry usage will be decided dynamically.
 IEnd=      178489 IEndB=      178489 NGot=   268435456 MDV=   268326278
 LenX=   268326278 LenY=   268273396
 Fock matrices will be formed incrementally for  20 cycles.

 Cycle   1  Pass 0  IDiag  1:
 FoFCou: FMM=F IPFlag=           0 FMFlag=      100000 FMFlg1=           0
         NFxFlg=           0 DoJE=F BraDBF=F KetDBF=F FulRan=T
         Omega=  0.000000  0.000000  1.000000  0.000000  0.000000 ICntrl=       0 IOpCl=  0
         NMat0=    1 NMatS0=    1 NMatT0=    0 NMatD0=    1 NMtDS0=    0 NMtDT0=    0
         I1Cent=           0 NGrid=           0.
 Symmetry not used in FoFCou.
 E= -2902.88646534534    
 DIIS: error= 3.42D-05 at cycle   1 NSaved=   1.
 NSaved= 1 IEnMin= 1 EnMin= -2902.88646534534     IErMin= 1 ErrMin= 3.42D-05
 ErrMax= 3.42D-05 EMaxC= 1.00D-01 BMatC= 5.49D-07 BMatP= 5.49D-07
 IDIUse=1 WtCom= 1.00D+00 WtEn= 0.00D+00
 Coeff-Com:  0.100D+01
 Coeff:      0.100D+01
 Gap=     0.504 Goal=   None    Shift=    0.000
 RMSDP=1.84D-05 MaxDP=8.23D-04              OVMax= 3.09D-04

 Cycle   2  Pass 0  IDiag  1:
 RMSU=  1.30D-05    CP:  1.00D+00
 E= -2902.88646593147     Delta-E=       -0.000000586138 Rises=F Damp=F
 DIIS: error= 7.81D-06 at cycle   2 NSaved=   2.
 NSaved= 2 IEnMin= 2 EnMin= -2902.88646593147     IErMin= 2 ErrMin= 7.81D-06
 ErrMax= 7.81D-06 EMaxC= 1.00D-01 BMatC= 1.43D-08 BMatP= 5.49D-07
 IDIUse=1 WtCom= 1.00D+00 WtEn= 0.00D+00
 Coeff-Com: -0.442D-01 0.104D+01
 Coeff:     -0.442D-01 0.104D+01
 Gap=     0.504 Goal=   None    Shift=    0.000
 RMSDP=2.28D-06 MaxDP=9.87D-05 DE=-5.86D-07 OVMax= 5.38D-05

 Initial convergence to 1.0D-05 achieved.  Increase integral accuracy.
 Cycle   3  Pass 1  IDiag  1:
 E= -2902.88646595331     Delta-E=       -0.000000021841 Rises=F Damp=F
 DIIS: error= 3.47D-06 at cycle   1 NSaved=   1.
 NSaved= 1 IEnMin= 1 EnMin= -2902.88646595331     IErMin= 1 ErrMin= 3.47D-06
 ErrMax= 3.47D-06 EMaxC= 1.00D-01 BMatC= 1.38D-09 BMatP= 1.38D-09
 IDIUse=1 WtCom= 1.00D+00 WtEn= 0.00D+00
 Coeff-Com:  0.100D+01
 Coeff:      0.100D+01
 Gap=     0.504 Goal=   None    Shift=    0.000
 RMSDP=2.28D-06 MaxDP=9.87D-05 DE=-2.18D-08 OVMax= 2.02D-05

 Cycle   4  Pass 1  IDiag  1:
 RMSU=  1.94D-07    CP:  1.00D+00
 E= -2902.88646595555     Delta-E=       -0.000000002233 Rises=F Damp=F
 DIIS: error= 8.66D-07 at cycle   2 NSaved=   2.
 NSaved= 2 IEnMin= 2 EnMin= -2902.88646595555     IErMin= 2 ErrMin= 8.66D-07
 ErrMax= 8.66D-07 EMaxC= 1.00D-01 BMatC= 3.05D-10 BMatP= 1.38D-09
 IDIUse=1 WtCom= 1.00D+00 WtEn= 0.00D+00
 Coeff-Com:  0.189D+00 0.811D+00
 Coeff:      0.189D+00 0.811D+00
 Gap=     0.504 Goal=   None    Shift=    0.000
 RMSDP=7.46D-08 MaxDP=2.34D-06 DE=-2.23D-09 OVMax= 5.91D-06

 Cycle   5  Pass 1  IDiag  1:
 RMSU=  4.48D-08    CP:  1.00D+00  1.14D+00
 E= -2902.88646595595     Delta-E=       -0.000000000405 Rises=F Damp=F
 DIIS: error= 4.91D-07 at cycle   3 NSaved=   3.
 NSaved= 3 IEnMin= 3 EnMin= -2902.88646595595     IErMin= 3 ErrMin= 4.91D-07
 ErrMax= 4.91D-07 EMaxC= 1.00D-01 BMatC= 6.94D-11 BMatP= 3.05D-10
 IDIUse=1 WtCom= 1.00D+00 WtEn= 0.00D+00
 Coeff-Com: -0.155D+00 0.799D-01 0.107D+01
 Coeff:     -0.155D+00 0.799D-01 0.107D+01
 Gap=     0.504 Goal=   None    Shift=    0.000
 RMSDP=5.42D-08 MaxDP=1.69D-06 DE=-4.05D-10 OVMax= 5.34D-06

 Cycle   6  Pass 1  IDiag  1:
 RMSU=  2.28D-08    CP:  1.00D+00  1.29D+00  1.24D+00
 E= -2902.88646595609     Delta-E=       -0.000000000141 Rises=F Damp=F
 DIIS: error= 2.02D-07 at cycle   4 NSaved=   4.
 NSaved= 4 IEnMin= 4 EnMin= -2902.88646595609     IErMin= 4 ErrMin= 2.02D-07
 ErrMax= 2.02D-07 EMaxC= 1.00D-01 BMatC= 1.12D-11 BMatP= 6.94D-11
 IDIUse=1 WtCom= 1.00D+00 WtEn= 0.00D+00
 Coeff-Com: -0.743D-01-0.123D+00 0.281D+00 0.916D+00
 Coeff:     -0.743D-01-0.123D+00 0.281D+00 0.916D+00
 Gap=     0.504 Goal=   None    Shift=    0.000
 RMSDP=2.02D-08 MaxDP=4.75D-07 DE=-1.41D-10 OVMax= 2.19D-06

 Cycle   7  Pass 1  IDiag  1:
 RMSU=  7.82D-09    CP:  1.00D+00  1.33D+00  1.41D+00  1.27D+00
 E= -2902.88646595612     Delta-E=       -0.000000000026 Rises=F Damp=F
 DIIS: error= 5.87D-08 at cycle   5 NSaved=   5.
 NSaved= 5 IEnMin= 5 EnMin= -2902.88646595612     IErMin= 5 ErrMin= 5.87D-08
 ErrMax= 5.87D-08 EMaxC= 1.00D-01 BMatC= 8.46D-13 BMatP= 1.12D-11
 IDIUse=1 WtCom= 1.00D+00 WtEn= 0.00D+00
 Coeff-Com:  0.475D-01 0.551D-01-0.220D+00-0.452D+00 0.157D+01
 Coeff:      0.475D-01 0.551D-01-0.220D+00-0.452D+00 0.157D+01
 Gap=     0.504 Goal=   None    Shift=    0.000
 RMSDP=1.15D-08 MaxDP=2.52D-07 DE=-2.64D-11 OVMax= 1.39D-06

 Cycle   8  Pass 1  IDiag  1:
 RMSU=  3.43D-09    CP:  1.00D+00  1.31D+00  1.44D+00  1.48D+00  1.60D+00
 E= -2902.88646595613     Delta-E=       -0.000000000008 Rises=F Damp=F
 DIIS: error= 2.55D-08 at cycle   6 NSaved=   6.
 NSaved= 6 IEnMin= 6 EnMin= -2902.88646595613     IErMin= 6 ErrMin= 2.55D-08
 ErrMax= 2.55D-08 EMaxC= 1.00D-01 BMatC= 1.40D-13 BMatP= 8.46D-13
 IDIUse=1 WtCom= 1.00D+00 WtEn= 0.00D+00
 Coeff-Com:  0.124D-01 0.172D-01-0.485D-01-0.133D+00 0.151D+00 0.100D+01
 Coeff:      0.124D-01 0.172D-01-0.485D-01-0.133D+00 0.151D+00 0.100D+01
 Gap=     0.504 Goal=   None    Shift=    0.000
 RMSDP=3.06D-09 MaxDP=7.34D-08 DE=-8.19D-12 OVMax= 4.71D-07

 SCF Done:  E(RHF) =  -2902.88646596     A.U. after    8 cycles
             Convg  =    0.3057D-08             -V/T =  2.0001
 KE= 2.902563887766D+03 PE=-7.150148088582D+03 EE= 1.239963543814D+03
 Leave Link  502 at Thu Dec 12 13:00:42 2019, MaxMem=  268435456 cpu:      40.0
 (Enter /home/matheus/.gaussian/g09/l801.exe)
 Windowed orbitals will be sorted by symmetry type.
 ExpMin= 2.53D-02 ExpMax= 1.17D+07 ExpMxC= 1.33D+04 IAcc=3 IRadAn=         5 AccDes= 0.00D+00
 HarFok:  IExCor=  205 AccDes= 0.00D+00 IRadAn=         5 IDoV=-2
 ScaDFX=  1.000000  1.000000  1.000000  1.000000
 DSYEVD returned Info=          93 IAlg= 4 N=    46 NDim=    46 NE2=     4547561 trying DSYEV.
 Largest valence mixing into a core orbital is  1.47D-04
 Largest core mixing into a valence orbital is  2.60D-05
 Range of M.O.s used for correlation:    12   197
 NBasis=   197 NAE=    27 NBE=    27 NFC=    11 NFV=     0
 NROrb=    186 NOA=    16 NOB=    16 NVA=   170 NVB=   170

 **** Warning!!: The largest alpha MO coefficient is  0.12323557D+02

 Leave Link  801 at Thu Dec 12 13:00:42 2019, MaxMem=  268435456 cpu:       0.2
 (Enter /home/matheus/.gaussian/g09/l804.exe)
 Closed-shell transformation, MDV=   268435456 ITran=4 ISComp=1.
 Semi-Direct transformation.
 ModeAB=           4 MOrb=            16 LenV=     267351066
 LASXX=     48528660 LTotXX=    48528660 LenRXX=    97827436
 LTotAB=    49298776 MaxLAS=    72182880 LenRXY=           0
 NonZer=   146356096 LenScr=   220395520 LnRSAI=    72182880
 LnScr1=   109029376 LExtra=           0 Total=    499435212
 MaxDsk=          -1 SrtSym=           T ITran=            4
 DoSDTr:  NPSUse=  2
 JobTyp=0 Pass  1:  I=   1 to  16.
 (rs|ai) integrals will be sorted in core.
 Complete sort for first half transformation.
 First half transformation complete.
 Begin second half transformation for I=  10.
 Complete sort for second half transformation.
 Second half transformation complete.
 SymMOI:  orbitals are not symmetric.
 Spin components of T(2) and E(2):
     alpha-alpha T2 =       0.2545213081D-01 E2=     -0.9833677149D-01
     alpha-beta  T2 =       0.1410616491D+00 E2=     -0.5525768821D+00
     beta-beta   T2 =       0.2545213081D-01 E2=     -0.9833677149D-01
 ANorm=    0.1091771913D+01
 E2 =    -0.7492504251D+00 EUMP2 =    -0.29036357163812D+04
 Leave Link  804 at Thu Dec 12 13:01:01 2019, MaxMem=  268435456 cpu:      38.9
 (Enter /home/matheus/.gaussian/g09/l913.exe)
 CIDS:  MDV=   268435456.
 Frozen-core window:  NFC=  11 NFV=   0.
 IFCWin=0 IBDFC=1 NFBD=     0     0 NFCmp=     0     0 NFFFC=     0     0
 Using DD3R+UMP44R for 1st iteration, S=T.
 Using DD4RQ for 2nd and later iterations.
 Would need an additional       431206676 words for in-memory AO integral storage.
 MP4(SDTQ)
 =========
 DD1Dir will call FoFDir   1 times, MxPair=       272
 NAB=   136 NAA=     0 NBB=     0 NumPrc=  2.
 Integrals replicated using symmetry in FoFDir.
 MinBra= 0 MaxBra= 3 Meth= 1.
 IRaf=       0 NMat= 272 IRICut=     340 DoRegI=T DoRafI=T ISym2E= 2 JSym2E=2.
 MP4(D)= -0.14945270D-01
 MP4(S)= -0.62417178D-02
 MP4(R+Q)=  0.14937728D-01
 T4(AAA)= -0.97995060D-03
 T4(AAB)= -0.13752497D-01
 Time for triples=     1270.84 seconds.
 MP4(T)=   -0.29464896D-01
 E3=       -0.12112484D-01        EUMP3=      -0.29036478289D+04
 E4(DQ)=   -0.75423841D-05        UMP4(DQ)=   -0.29036478364D+04
 E4(SDQ)=  -0.62492602D-02        UMP4(SDQ)=  -0.29036540781D+04
 E4(SDTQ)= -0.35714156D-01        UMP4(SDTQ)= -0.29036835430D+04
 VARIATIONAL ENERGIES WITH THE FIRST-ORDER WAVEFUNCTION:
 E(VAR1)=  -0.29035252115D+04     E(CISD,4)=  -0.29035251853D+04
 Largest amplitude= 1.79D-02
 Leave Link  913 at Thu Dec 12 13:12:17 2019, MaxMem=  268435456 cpu:    1347.5
 (Enter /home/matheus/.gaussian/g09/l108.exe)
 Scan completed.

 Summary of the potential surface scan:
   N      R1          SCF          MP2          MP3         MP4DQ       MP4SDQ       MP4SDTQ  
 ----  ---------  -----------  -----------  -----------  -----------  -----------  -----------
    1     3.0000  -2902.87840  -2903.63476  -2903.64604  -2903.64562  -2903.65206  -2903.68246
    2     3.1000  -2902.88083  -2903.63609  -2903.64753  -2903.64718  -2903.65359  -2903.68385
    3     3.2000  -2902.88256  -2903.63689  -2903.64845  -2903.64816  -2903.65454  -2903.68468
    4     3.3000  -2902.88377  -2903.63731  -2903.64897  -2903.64873  -2903.65509  -2903.68512
    5     3.4000  -2902.88463  -2903.63748  -2903.64922  -2903.64903  -2903.65537  -2903.68531
    6     3.5000  -2902.88523  -2903.63750  -2903.64930  -2903.64914  -2903.65547  -2903.68533
    7     3.6000  -2902.88564  -2903.63741  -2903.64927  -2903.64913  -2903.65545  -2903.68525
    8     3.7000  -2902.88592  -2903.63727  -2903.64917  -2903.64906  -2903.65536  -2903.68510
    9     3.8000  -2902.88612  -2903.63710  -2903.64903  -2903.64895  -2903.65524  -2903.68494
   10     3.9000  -2902.88624  -2903.63692  -2903.64889  -2903.64882  -2903.65511  -2903.68476
   11     4.0000  -2902.88633  -2903.63675  -2903.64874  -2903.64869  -2903.65497  -2903.68458
   12     4.1000  -2902.88639  -2903.63659  -2903.64860  -2903.64856  -2903.65483  -2903.68442
   13     4.2000  -2902.88642  -2903.63644  -2903.64847  -2903.64844  -2903.65471  -2903.68427
   14     4.3000  -2902.88644  -2903.63631  -2903.64836  -2903.64833  -2903.65459  -2903.68414
   15     4.4000  -2902.88646  -2903.63619  -2903.64825  -2903.64824  -2903.65449  -2903.68402
   16     4.5000  -2902.88646  -2903.63608  -2903.64816  -2903.64815  -2903.65440  -2903.68391
   17     4.6000  -2902.88647  -2903.63599  -2903.64808  -2903.64807  -2903.65432  -2903.68382
   18     4.7000  -2902.88647  -2903.63591  -2903.64800  -2903.64800  -2903.65425  -2903.68374
   19     4.8000  -2902.88647  -2903.63584  -2903.64794  -2903.64794  -2903.65419  -2903.68366
   20     4.9000  -2902.88647  -2903.63577  -2903.64788  -2903.64789  -2903.65413  -2903.68360
   21     5.0000  -2902.88647  -2903.63572  -2903.64783  -2903.64784  -2903.65408  -2903.68354
 ----  ---------  -----------  -----------  -----------  -----------  -----------  -----------
  
 Leave Link  108 at Thu Dec 12 13:12:17 2019, MaxMem=  268435456 cpu:       0.0
 (Enter /home/matheus/.gaussian/g09/l9999.exe)
 1\1\GINC-REDGIANT\Scan\RMP4SDTQ-FC\Aug-CC-pVTZ\H2Kr1O2\ROOT\12-Dec-201
 9\1\\#p mp4/aug-cc-PVTz int=ultrafine Scan\\PTCC\\0,1\O,0,0.,0.,0.725\
 O,0,0.,0.,-0.725\H,0,-0.5905422151,-0.7037808064,1.0235104166\H,0,0.,0
 .9187205947,-1.0235104166\Kr,0,0.,R1,0.\\R1=3.,s,20,0.1\\Version=EM64L
 -G09RevC.01\State=1-A\HF=-2902.8783954,-2902.8808284,-2902.8825551,-29
 02.883774,-2902.8846296,-2902.8852264,-2902.8856396,-2902.8859231,-290
 2.8861155,-2902.8862445,-2902.8863297,-2902.8863851,-2902.8864206,-290
 2.8864428,-2902.8864563,-2902.886464,-2902.8864679,-2902.8864692,-2902
 .8864689,-2902.8864677,-2902.886466\MP2=-2903.6347564,-2903.6360932,-2
 903.6368877,-2903.6373105,-2903.637484,-2903.6374961,-2903.6374089,-29
 03.6372658,-2903.6370962,-2903.6369192,-2903.6367467,-2903.6365852,-29
 03.6364379,-2903.6363057,-2903.636188,-2903.6360838,-2903.6359915,-290
 3.6359097,-2903.6358373,-2903.6357732,-2903.6357164\MP3=-2903.6460359,
 -2903.6475297,-2903.6484487,-2903.6489706,-2903.6492238,-2903.6493004,
 -2903.6492661,-2903.6491667,-2903.6490335,-2903.6488871,-2903.6487402,
 -2903.6486005,-2903.6484716,-2903.6483551,-2903.6482508,-2903.648158,-
 2903.6480756,-2903.6480024,-2903.6479375,-2903.6478799,-2903.6478289\M
 P4D=-2903.6609992,-2903.6624905,-2903.663408,-2903.6639287,-2903.66418
 08,-2903.6642563,-2903.6642208,-2903.6641204,-2903.6639862,-2903.66383
 88,-2903.6636911,-2903.6635506,-2903.6634211,-2903.6633039,-2903.66319
 9,-2903.6631056,-2903.6630227,-2903.662949,-2903.6628836,-2903.6628256
 ,-2903.6627741\MP4DQ=-2903.6456218,-2903.6471821,-2903.6481589,-2903.6
 487305,-2903.6490261,-2903.6491386,-2903.6491345,-2903.6490606,-2903.6
 489487,-2903.64882,-2903.6486879,-2903.6485604,-2903.6484416,-2903.648
 3335,-2903.6482361,-2903.648149,-2903.6480712,-2903.6480019,-2903.6479
 402,-2903.6478852,-2903.6478364\MP4SDQ=-2903.652057,-2903.6535896,-290
 3.6545426,-2903.6550937,-2903.6553713,-2903.6554682,-2903.6554506,-290
 3.6553649,-2903.6552428,-2903.6551053,-2903.6549657,-2903.6548316,-290
 3.6547073,-2903.6545943,-2903.6544928,-2903.6544021,-2903.6543214,-290
 3.6542494,-2903.6541855,-2903.6541286,-2903.6540781\MP4SDTQ=-2903.6824
 604,-2903.6838482,-2903.6846777,-2903.6851232,-2903.6853106,-2903.6853
 303,-2903.6852468,-2903.685105,-2903.6849352,-2903.6847573,-2903.68458
 34,-2903.6844205,-2903.6842718,-2903.6841382,-2903.6840192,-2903.68391
 38,-2903.6838205,-2903.6837379,-2903.6836648,-2903.6836002,-2903.68354
 3\RMSD=7.787e-09,9.672e-09,9.574e-09,9.873e-09,2.843e-09,9.860e-09,9.2
 48e-09,8.138e-09,6.908e-09,7.038e-09,7.784e-09,7.950e-09,7.409e-09,6.5
 94e-09,5.732e-09,4.943e-09,4.312e-09,3.853e-09,3.523e-09,3.270e-09,3.0
 57e-09\PG=C01 [X(H2Kr1O2)]\\@


 There ain't no surer way to find out whether you
 like people or hate them than to travel with them.
                                     -- Mark Twain
 Job cpu time:  0 days  8 hours 32 minutes  1.3 seconds.
 File lengths (MBytes):  RWF=   3955 Int=      0 D2E=      0 Chk=      4 Scr=      1
 Normal termination of Gaussian 09 at Thu Dec 12 13:12:17 2019.
