 Entering Gaussian System, Link 0=g09
 Input=/home/matheus/.ptcc/Inputs/H2O2-Kr_0.com
 Output=/home/matheus/.ptcc/Inputs/H2O2-Kr_0.log
 Initial command:
 /home/matheus/.gaussian/g09/l1.exe /home/matheus/.gaussian/g09/scratch/Gau-5660.inp -scrdir=/home/matheus/.gaussian/g09/scratch/
 Entering Link 1 = /home/matheus/.gaussian/g09/l1.exe PID=      5663.
  
 Copyright (c) 1988,1990,1992,1993,1995,1998,2003,2009,2011,
            Gaussian, Inc.  All Rights Reserved.
  
 This is part of the Gaussian(R) 09 program.  It is based on
 the Gaussian(R) 03 system (copyright 2003, Gaussian, Inc.),
 the Gaussian(R) 98 system (copyright 1998, Gaussian, Inc.),
 the Gaussian(R) 94 system (copyright 1995, Gaussian, Inc.),
 the Gaussian 92(TM) system (copyright 1992, Gaussian, Inc.),
 the Gaussian 90(TM) system (copyright 1990, Gaussian, Inc.),
 the Gaussian 88(TM) system (copyright 1988, Gaussian, Inc.),
 the Gaussian 86(TM) system (copyright 1986, Carnegie Mellon
 University), and the Gaussian 82(TM) system (copyright 1983,
 Carnegie Mellon University). Gaussian is a federally registered
 trademark of Gaussian, Inc.
  
 This software contains proprietary and confidential information,
 including trade secrets, belonging to Gaussian, Inc.
  
 This software is provided under written license and may be
 used, copied, transmitted, or stored only in accord with that
 written license.
  
 The following legend is applicable only to US Government
 contracts under FAR:
  
                    RESTRICTED RIGHTS LEGEND
  
 Use, reproduction and disclosure by the US Government is
 subject to restrictions as set forth in subparagraphs (a)
 and (c) of the Commercial Computer Software - Restricted
 Rights clause in FAR 52.227-19.
  
 Gaussian, Inc.
 340 Quinnipiac St., Bldg. 40, Wallingford CT 06492
  
  
 ---------------------------------------------------------------
 Warning -- This program may not be used in any manner that
 competes with the business of Gaussian, Inc. or will provide
 assistance to any competitor of Gaussian, Inc.  The licensee
 of this program is prohibited from giving any competitor of
 Gaussian, Inc. access to this program.  By using this program,
 the user acknowledges that Gaussian, Inc. is engaged in the
 business of creating and licensing software in the field of
 computational chemistry and represents and warrants to the
 licensee that it is not a competitor of Gaussian, Inc. and that
 it will not use this program in any manner prohibited above.
 ---------------------------------------------------------------
  

 Cite this work as:
 Gaussian 09, Revision C.01,
 M. J. Frisch, G. W. Trucks, H. B. Schlegel, G. E. Scuseria, 
 M. A. Robb, J. R. Cheeseman, G. Scalmani, V. Barone, B. Mennucci, 
 G. A. Petersson, H. Nakatsuji, M. Caricato, X. Li, H. P. Hratchian, 
 A. F. Izmaylov, J. Bloino, G. Zheng, J. L. Sonnenberg, M. Hada, 
 M. Ehara, K. Toyota, R. Fukuda, J. Hasegawa, M. Ishida, T. Nakajima, 
 Y. Honda, O. Kitao, H. Nakai, T. Vreven, J. A. Montgomery, Jr., 
 J. E. Peralta, F. Ogliaro, M. Bearpark, J. J. Heyd, E. Brothers, 
 K. N. Kudin, V. N. Staroverov, T. Keith, R. Kobayashi, J. Normand, 
 K. Raghavachari, A. Rendell, J. C. Burant, S. S. Iyengar, J. Tomasi, 
 M. Cossi, N. Rega, J. M. Millam, M. Klene, J. E. Knox, J. B. Cross, 
 V. Bakken, C. Adamo, J. Jaramillo, R. Gomperts, R. E. Stratmann, 
 O. Yazyev, A. J. Austin, R. Cammi, C. Pomelli, J. W. Ochterski, 
 R. L. Martin, K. Morokuma, V. G. Zakrzewski, G. A. Voth, 
 P. Salvador, J. J. Dannenberg, S. Dapprich, A. D. Daniels, 
 O. Farkas, J. B. Foresman, J. V. Ortiz, J. Cioslowski, 
 and D. J. Fox, Gaussian, Inc., Wallingford CT, 2010.
 
 ******************************************
 Gaussian 09:  EM64L-G09RevC.01 23-Sep-2011
                14-Nov-2019 
 ******************************************
 %mem=2GB
 %nproc=2
 Will use up to    2 processors via shared memory.
 -------------------------------------
 #p mp4/aug-cc-PVTz int=ultrafine Scan
 -------------------------------------
 1/38=1,60=1/1,8;
 2/12=2,17=6,18=5,29=3,40=1/2;
 3/5=16,6=1,7=10,11=9,16=1,25=1,30=1,75=-5/1,2,3;
 4//1;
 5/5=2,38=5/2;
 8/6=4,9=120000,10=1/1,4;
 9/5=5/13;
 6/7=2,8=2,9=2,10=2,18=1/1;
 1/60=1/8(1);
 99/9=1/99;
 2/29=3/2;
 3/5=16,6=1,7=10,11=9,16=1,25=1,30=1,75=-5/1,2,3;
 4/5=5,16=3/1;
 5/5=2,38=5/2;
 8/6=4,9=120000,10=1/1,4;
 9/5=5/13;
 1/60=1/8(-6);
 99/9=1/99;
 Leave Link    1 at Thu Nov 14 09:22:30 2019, MaxMem=  268435456 cpu:       0.0
 (Enter /home/matheus/.gaussian/g09/l101.exe)
 ----
 PTCC
 ----
 Charge =  0 Multiplicity = 1
 Symbolic Z-Matrix:
 O                     0.        0.        0.725 
 O                     0.        0.       -0.725 
 H                     0.        0.91872   1.02351 
 H                     0.        0.91872  -1.02351 
 Kr                    0.       R1        0. 
       Variables:
  R1                    3.     Scan 50    0.1    
 
 NAtoms=      5 NQM=        0 NQMF=       0 NMMI=      5 NMMIF=      0
                NMic=       0 NMicF=      0.
                    Isotopes and Nuclear Properties:
 (Nuclear quadrupole moments (NQMom) in fm**2, nuclear magnetic moments (NMagM)
  in nuclear magnetons)

  Atom         1           2           3           4           5
 IAtWgt=          16          16           1           1          84
 AtmWgt=  15.9949146  15.9949146   1.0078250   1.0078250  83.9115064
 NucSpn=           0           0           1           1           0
 AtZEff=   0.0000000   0.0000000   0.0000000   0.0000000   0.0000000
 NQMom=    0.0000000   0.0000000   0.0000000   0.0000000   0.0000000
 NMagM=    0.0000000   0.0000000   2.7928460   2.7928460   0.0000000
 Leave Link  101 at Thu Nov 14 09:22:30 2019, MaxMem=  268435456 cpu:       0.1
 (Enter /home/matheus/.gaussian/g09/l108.exe)
 Scan the potential surface.
 Variable   Value     No. Steps Step-Size
 -------- ----------- --------- ---------
     1       3.000000      50      0.1000
 A total of     51 points will be computed.
 Leave Link  108 at Thu Nov 14 09:22:30 2019, MaxMem=  268435456 cpu:       0.0
 (Enter /home/matheus/.gaussian/g09/l202.exe)
 ---------------------------------------------------------------------------------------------------
                            Z-MATRIX (ANGSTROMS AND DEGREES)
   CD    Cent   Atom    N1       Length/X        N2       Alpha/Y        N3        Beta/Z          J
 ---------------------------------------------------------------------------------------------------
      1      1  O        0   0.000000          0.000000          0.725000
      2      2  O        0   0.000000          0.000000         -0.725000
      3      3  H        0   0.000000          0.918721          1.023510
      4      4  H        0   0.000000          0.918721         -1.023510
      5      5  Kr       0   0.000000          3.000000          0.000000
 ---------------------------------------------------------------------------------------------------
                         Z-Matrix orientation:                         
 ---------------------------------------------------------------------
 Center     Atomic      Atomic             Coordinates (Angstroms)
 Number     Number       Type             X           Y           Z
 ---------------------------------------------------------------------
      1          8           0        0.000000    0.000000    0.725000
      2          8           0        0.000000    0.000000   -0.725000
      3          1           0        0.000000    0.918721    1.023510
      4          1           0        0.000000    0.918721   -1.023510
      5         36           0        0.000000    3.000000    0.000000
 ---------------------------------------------------------------------
                    Distance matrix (angstroms):
                    1          2          3          4          5
     1  O    0.000000
     2  O    1.450000   0.000000
     3  H    0.966000   1.975180   0.000000
     4  H    1.975180   0.966000   2.047021   0.000000
     5  Kr   3.086361   3.086361   2.319331   2.319331   0.000000
 Stoichiometry    H2KrO2
 Framework group  C2V[C2(Kr),SGV(H2O2)]
 Deg. of freedom     4
 Full point group                 C2V     NOp   4
 Largest Abelian subgroup         C2V     NOp   4
 Largest concise Abelian subgroup C2      NOp   2
                         Standard orientation:                         
 ---------------------------------------------------------------------
 Center     Atomic      Atomic             Coordinates (Angstroms)
 Number     Number       Type             X           Y           Z
 ---------------------------------------------------------------------
      1          8           0        0.000000    0.725000   -2.034027
      2          8           0        0.000000   -0.725000   -2.034027
      3          1           0        0.000000    1.023510   -1.115306
      4          1           0        0.000000   -1.023510   -1.115306
      5         36           0        0.000000    0.000000    0.965973
 ---------------------------------------------------------------------
 Rotational constants (GHZ):     26.7026195      2.3888795      2.1927141
 Leave Link  202 at Thu Nov 14 09:22:30 2019, MaxMem=  268435456 cpu:       0.0
 (Enter /home/matheus/.gaussian/g09/l301.exe)
 Standard basis: Aug-CC-pVTZ (5D, 7F)
 Ernie: Thresh=  0.10000D-02 Tol=  0.10000D-05 Strict=F.
 Ernie:  38 primitive shells out of 205 were deleted.
 There are    71 symmetry adapted basis functions of A1  symmetry.
 There are    29 symmetry adapted basis functions of A2  symmetry.
 There are    37 symmetry adapted basis functions of B1  symmetry.
 There are    60 symmetry adapted basis functions of B2  symmetry.
 Integral buffers will be    131072 words long.
 Raffenetti 1 integral format.
 Two-electron integral symmetry is turned on.
   197 basis functions,   415 primitive gaussians,   229 cartesian basis functions
    27 alpha electrons       27 beta electrons
       nuclear repulsion energy       151.8532718296 Hartrees.
 IExCor=    0 DFT=F Ex=HF Corr=None ExCW=0 ScaHFX=  1.000000
 ScaDFX=  1.000000  1.000000  1.000000  1.000000 ScalE2=  1.000000  1.000000
 IRadAn=      5 IRanWt=     -1 IRanGd=            0 ICorTp=0
 NAtoms=    5 NActive=    5 NUniq=    3 SFac= 2.78D+00 NAtFMM=   60 NAOKFM=F Big=F
 Leave Link  301 at Thu Nov 14 09:22:30 2019, MaxMem=  268435456 cpu:       0.1
 (Enter /home/matheus/.gaussian/g09/l302.exe)
 NPDir=0 NMtPBC=     1 NCelOv=     1 NCel=       1 NClECP=     1 NCelD=      1
         NCelK=      1 NCelE2=     1 NClLst=     1 CellRange=     0.0.
 One-electron integrals computed using PRISM.
 One-electron integral symmetry used in STVInt
 NBasis=   197 RedAO= T  NBF=    71    29    37    60
 NBsUse=   197 1.00D-06 NBFU=    71    29    37    60
 Leave Link  302 at Thu Nov 14 09:22:31 2019, MaxMem=  268435456 cpu:       0.2
 (Enter /home/matheus/.gaussian/g09/l303.exe)
 DipDrv:  MaxL=1.
 Leave Link  303 at Thu Nov 14 09:22:31 2019, MaxMem=  268435456 cpu:       0.1
 (Enter /home/matheus/.gaussian/g09/l401.exe)
 Harris functional with IExCor=  205 diagonalized for initial guess.
 ExpMin= 2.53D-02 ExpMax= 1.17D+07 ExpMxC= 1.33D+04 IAcc=3 IRadAn=         5 AccDes= 0.00D+00
 HarFok:  IExCor=  205 AccDes= 0.00D+00 IRadAn=         5 IDoV= 1
 ScaDFX=  1.000000  1.000000  1.000000  1.000000
 FoFCou: FMM=F IPFlag=           0 FMFlag=      100000 FMFlg1=           0
         NFxFlg=           0 DoJE=T BraDBF=F KetDBF=T FulRan=T
         Omega=  0.000000  0.000000  1.000000  0.000000  0.000000 ICntrl=     500 IOpCl=  0
         NMat0=    1 NMatS0=    1 NMatT0=    0 NMatD0=    1 NMtDS0=    0 NMtDT0=    0
         I1Cent=           4 NGrid=           0.
 Petite list used in FoFCou.
 Harris En= -2901.92335111073    
 Initial guess orbital symmetries:
       Occupied  (A1) (A1) (A1) (B2) (B1) (B2) (A1) (A1) (A1) (B2)
                 (B1) (A1) (B2) (B1) (A1) (A2) (A1) (B2) (A1) (A1)
                 (A1) (B1) (B2) (B1) (A1) (B2) (A2)
       Virtual   (B2) (A1) (B2) (A1) (B1) (B2) (A1) (A1) (B1) (B2)
                 (A1) (A2) (A1) (B1) (B2) (A1) (A2) (B2) (A1) (A1)
                 (B1) (B2) (B2) (A1) (A2) (B2) (B2) (A1) (B1) (A1)
                 (A1) (B1) (A1) (B2) (B2) (B1) (A2) (B1) (A1) (A1)
                 (B2) (A2) (A1) (A1) (A2) (B2) (A1) (B2) (B1) (B1)
                 (A2) (A1) (B2) (B1) (B2) (A1) (B1) (A1) (B2) (A2)
                 (B2) (A2) (A1) (A1) (B2) (A1) (B2) (B1) (A2) (B1)
                 (A1) (B2) (A2) (A1) (B2) (A1) (B2) (B1) (A1) (B2)
                 (A1) (B1) (A1) (A2) (B1) (A1) (B2) (B1) (B2) (A2)
                 (A1) (B2) (A2) (A1) (A1) (B1) (B2) (A1) (B1) (B2)
                 (B1) (B2) (A1) (A2) (B1) (B2) (A1) (B1) (A2) (A1)
                 (B2) (A2) (B2) (A1) (A1) (B2) (B2) (A2) (B2) (A1)
                 (B1) (B2) (B1) (A2) (A1) (B1) (A2) (A1) (B2) (A2)
                 (A1) (A1) (B2) (B2) (A1) (A1) (B1) (A1) (B2) (A2)
                 (B2) (B2) (A1) (B1) (B2) (A1) (B1) (A1) (A2) (B2)
                 (B1) (A1) (A2) (A1) (B1) (B1) (A2) (B2) (A2) (B2)
                 (A1) (A2) (A1) (B2) (B2) (A1) (B2) (B2) (A1) (B2)
 The electronic state of the initial guess is 1-A1.
 Leave Link  401 at Thu Nov 14 09:22:31 2019, MaxMem=  268435456 cpu:       0.5
 (Enter /home/matheus/.gaussian/g09/l502.exe)
 Closed shell SCF:
 Requested convergence on RMS density matrix=1.00D-08 within 128 cycles.
 Requested convergence on MAX density matrix=1.00D-06.
 Requested convergence on             energy=1.00D-06.
 No special actions if energy rises.
 Using DIIS extrapolation, IDIIS=  1040.
 Integral symmetry usage will be decided dynamically.
 IEnd=      178881 IEndB=      178881 NGot=   268435456 MDV=   268325886
 LenX=   268325886 LenY=   268273004
 Fock matrices will be formed incrementally for  20 cycles.

 Cycle   1  Pass 0  IDiag  1:
 FoFCou: FMM=F IPFlag=           0 FMFlag=      100000 FMFlg1=           0
         NFxFlg=           0 DoJE=F BraDBF=F KetDBF=F FulRan=T
         Omega=  0.000000  0.000000  1.000000  0.000000  0.000000 ICntrl=       0 IOpCl=  0
         NMat0=    1 NMatS0=    1 NMatT0=    0 NMatD0=    1 NMtDS0=    0 NMtDT0=    0
         I1Cent=           0 NGrid=           0.
 Petite list used in FoFCou.
 E= -2902.74360861256    
 DIIS: error= 5.95D-02 at cycle   1 NSaved=   1.
 NSaved= 1 IEnMin= 1 EnMin= -2902.74360861256     IErMin= 1 ErrMin= 5.95D-02
 ErrMax= 5.95D-02 EMaxC= 1.00D-01 BMatC= 7.08D-01 BMatP= 7.08D-01
 IDIUse=3 WtCom= 4.05D-01 WtEn= 5.95D-01
 Coeff-Com:  0.100D+01
 Coeff-En:   0.100D+01
 Coeff:      0.100D+01
 Gap=     0.476 Goal=   None    Shift=    0.000
 GapD=    0.476 DampG=2.000 DampE=0.500 DampFc=1.0000 IDamp=-1.
 RMSDP=2.37D-03 MaxDP=1.56D-01              OVMax= 5.88D-02

 Cycle   2  Pass 0  IDiag  1:
 RMSU=  1.66D-03    CP:  1.01D+00
 E= -2902.85105831017     Delta-E=       -0.107449697608 Rises=F Damp=F
 DIIS: error= 1.07D-02 at cycle   2 NSaved=   2.
 NSaved= 2 IEnMin= 2 EnMin= -2902.85105831017     IErMin= 2 ErrMin= 1.07D-02
 ErrMax= 1.07D-02 EMaxC= 1.00D-01 BMatC= 4.49D-02 BMatP= 7.08D-01
 IDIUse=3 WtCom= 8.93D-01 WtEn= 1.07D-01
 Coeff-Com:  0.158D+00 0.842D+00
 Coeff-En:   0.000D+00 0.100D+01
 Coeff:      0.142D+00 0.858D+00
 Gap=     0.512 Goal=   None    Shift=    0.000
 RMSDP=9.05D-04 MaxDP=4.48D-02 DE=-1.07D-01 OVMax= 2.53D-02

 Cycle   3  Pass 0  IDiag  1:
 RMSU=  4.96D-04    CP:  1.01D+00  7.66D-01
 E= -2902.86671867449     Delta-E=       -0.015660364322 Rises=F Damp=F
 DIIS: error= 3.41D-03 at cycle   3 NSaved=   3.
 NSaved= 3 IEnMin= 3 EnMin= -2902.86671867449     IErMin= 3 ErrMin= 3.41D-03
 ErrMax= 3.41D-03 EMaxC= 1.00D-01 BMatC= 2.77D-03 BMatP= 4.49D-02
 IDIUse=3 WtCom= 9.66D-01 WtEn= 3.41D-02
 Coeff-Com: -0.558D-02 0.178D+00 0.828D+00
 Coeff-En:   0.000D+00 0.000D+00 0.100D+01
 Coeff:     -0.539D-02 0.172D+00 0.833D+00
 Gap=     0.486 Goal=   None    Shift=    0.000
 RMSDP=1.43D-04 MaxDP=5.41D-03 DE=-1.57D-02 OVMax= 7.88D-03

 Cycle   4  Pass 0  IDiag  1:
 RMSU=  5.22D-05    CP:  1.01D+00  7.99D-01  8.71D-01
 E= -2902.86808536162     Delta-E=       -0.001366687131 Rises=F Damp=F
 DIIS: error= 7.60D-04 at cycle   4 NSaved=   4.
 NSaved= 4 IEnMin= 4 EnMin= -2902.86808536162     IErMin= 4 ErrMin= 7.60D-04
 ErrMax= 7.60D-04 EMaxC= 1.00D-01 BMatC= 5.79D-05 BMatP= 2.77D-03
 IDIUse=3 WtCom= 9.92D-01 WtEn= 7.60D-03
 Coeff-Com: -0.467D-02 0.140D-01 0.165D+00 0.825D+00
 Coeff-En:   0.000D+00 0.000D+00 0.000D+00 0.100D+01
 Coeff:     -0.464D-02 0.139D-01 0.164D+00 0.827D+00
 Gap=     0.491 Goal=   None    Shift=    0.000
 RMSDP=2.52D-05 MaxDP=7.05D-04 DE=-1.37D-03 OVMax= 1.85D-03

 Cycle   5  Pass 0  IDiag  1:
 RMSU=  1.40D-05    CP:  1.01D+00  8.00D-01  8.91D-01  9.33D-01
 E= -2902.86813140466     Delta-E=       -0.000046043035 Rises=F Damp=F
 DIIS: error= 1.39D-04 at cycle   5 NSaved=   5.
 NSaved= 5 IEnMin= 5 EnMin= -2902.86813140466     IErMin= 5 ErrMin= 1.39D-04
 ErrMax= 1.39D-04 EMaxC= 1.00D-01 BMatC= 3.57D-06 BMatP= 5.79D-05
 IDIUse=3 WtCom= 9.99D-01 WtEn= 1.39D-03
 Coeff-Com:  0.845D-03-0.153D-01-0.714D-01 0.264D-02 0.108D+01
 Coeff-En:   0.000D+00 0.000D+00 0.000D+00 0.000D+00 0.100D+01
 Coeff:      0.844D-03-0.152D-01-0.713D-01 0.264D-02 0.108D+01
 Gap=     0.490 Goal=   None    Shift=    0.000
 RMSDP=1.08D-05 MaxDP=3.15D-04 DE=-4.60D-05 OVMax= 6.99D-04

 Cycle   6  Pass 0  IDiag  1:
 RMSU=  4.81D-06    CP:  1.01D+00  7.99D-01  8.88D-01  1.01D+00  1.23D+00
 E= -2902.86813632155     Delta-E=       -0.000004916893 Rises=F Damp=F
 DIIS: error= 3.82D-05 at cycle   6 NSaved=   6.
 NSaved= 6 IEnMin= 6 EnMin= -2902.86813632155     IErMin= 6 ErrMin= 3.82D-05
 ErrMax= 3.82D-05 EMaxC= 1.00D-01 BMatC= 1.65D-07 BMatP= 3.57D-06
 IDIUse=1 WtCom= 1.00D+00 WtEn= 0.00D+00
 Coeff-Com:  0.152D-03 0.502D-03-0.448D-02-0.438D-01-0.613D-01 0.111D+01
 Coeff:      0.152D-03 0.502D-03-0.448D-02-0.438D-01-0.613D-01 0.111D+01
 Gap=     0.491 Goal=   None    Shift=    0.000
 RMSDP=2.90D-06 MaxDP=8.96D-05 DE=-4.92D-06 OVMax= 1.71D-04

 Initial convergence to 1.0D-05 achieved.  Increase integral accuracy.
 Cycle   7  Pass 1  IDiag  1:
 E= -2902.86813666388     Delta-E=       -0.000000342328 Rises=F Damp=F
 DIIS: error= 8.91D-06 at cycle   1 NSaved=   1.
 NSaved= 1 IEnMin= 1 EnMin= -2902.86813666388     IErMin= 1 ErrMin= 8.91D-06
 ErrMax= 8.91D-06 EMaxC= 1.00D-01 BMatC= 1.04D-08 BMatP= 1.04D-08
 IDIUse=1 WtCom= 1.00D+00 WtEn= 0.00D+00
 Coeff-Com:  0.100D+01
 Coeff:      0.100D+01
 Gap=     0.491 Goal=   None    Shift=    0.000
 RMSDP=2.90D-06 MaxDP=8.96D-05 DE=-3.42D-07 OVMax= 5.45D-05

 Cycle   8  Pass 1  IDiag  1:
 RMSU=  5.54D-07    CP:  1.00D+00
 E= -2902.86813668951     Delta-E=       -0.000000025635 Rises=F Damp=F
 DIIS: error= 4.49D-06 at cycle   2 NSaved=   2.
 NSaved= 2 IEnMin= 2 EnMin= -2902.86813668951     IErMin= 2 ErrMin= 4.49D-06
 ErrMax= 4.49D-06 EMaxC= 1.00D-01 BMatC= 2.35D-09 BMatP= 1.04D-08
 IDIUse=1 WtCom= 1.00D+00 WtEn= 0.00D+00
 Coeff-Com: -0.555D+00 0.155D+01
 Coeff:     -0.555D+00 0.155D+01
 Gap=     0.491 Goal=   None    Shift=    0.000
 RMSDP=5.23D-07 MaxDP=1.46D-05 DE=-2.56D-08 OVMax= 4.15D-05

 Cycle   9  Pass 1  IDiag  1:
 RMSU=  8.22D-08    CP:  1.00D+00  1.65D+00
 E= -2902.86813669706     Delta-E=       -0.000000007544 Rises=F Damp=F
 DIIS: error= 1.17D-06 at cycle   3 NSaved=   3.
 NSaved= 3 IEnMin= 3 EnMin= -2902.86813669706     IErMin= 3 ErrMin= 1.17D-06
 ErrMax= 1.17D-06 EMaxC= 1.00D-01 BMatC= 1.94D-10 BMatP= 2.35D-09
 IDIUse=1 WtCom= 1.00D+00 WtEn= 0.00D+00
 Coeff-Com: -0.161D+00 0.173D+00 0.989D+00
 Coeff:     -0.161D+00 0.173D+00 0.989D+00
 Gap=     0.491 Goal=   None    Shift=    0.000
 RMSDP=1.48D-07 MaxDP=4.86D-06 DE=-7.54D-09 OVMax= 1.18D-05

 Cycle  10  Pass 1  IDiag  1:
 RMSU=  3.27D-08    CP:  1.00D+00  1.82D+00  1.20D+00
 E= -2902.86813669756     Delta-E=       -0.000000000506 Rises=F Damp=F
 DIIS: error= 4.19D-07 at cycle   4 NSaved=   4.
 NSaved= 4 IEnMin= 4 EnMin= -2902.86813669756     IErMin= 4 ErrMin= 4.19D-07
 ErrMax= 4.19D-07 EMaxC= 1.00D-01 BMatC= 2.10D-11 BMatP= 1.94D-10
 IDIUse=1 WtCom= 1.00D+00 WtEn= 0.00D+00
 Coeff-Com:  0.644D-01-0.138D+00-0.136D+00 0.121D+01
 Coeff:      0.644D-01-0.138D+00-0.136D+00 0.121D+01
 Gap=     0.491 Goal=   None    Shift=    0.000
 RMSDP=3.78D-08 MaxDP=8.18D-07 DE=-5.06D-10 OVMax= 3.93D-06

 Cycle  11  Pass 1  IDiag  1:
 RMSU=  1.13D-08    CP:  1.00D+00  1.85D+00  1.38D+00  1.39D+00
 E= -2902.86813669762     Delta-E=       -0.000000000059 Rises=F Damp=F
 DIIS: error= 1.66D-07 at cycle   5 NSaved=   5.
 NSaved= 5 IEnMin= 5 EnMin= -2902.86813669762     IErMin= 5 ErrMin= 1.66D-07
 ErrMax= 1.66D-07 EMaxC= 1.00D-01 BMatC= 3.84D-12 BMatP= 2.10D-11
 IDIUse=1 WtCom= 1.00D+00 WtEn= 0.00D+00
 Coeff-Com:  0.337D-01-0.490D-01-0.175D+00 0.186D+00 0.100D+01
 Coeff:      0.337D-01-0.490D-01-0.175D+00 0.186D+00 0.100D+01
 Gap=     0.491 Goal=   None    Shift=    0.000
 RMSDP=1.63D-08 MaxDP=4.36D-07 DE=-5.91D-11 OVMax= 1.62D-06

 Cycle  12  Pass 1  IDiag  1:
 RMSU=  2.82D-09    CP:  1.00D+00  1.86D+00  1.43D+00  1.60D+00  1.32D+00
 E= -2902.86813669762     Delta-E=        0.000000000001 Rises=F Damp=F
 DIIS: error= 4.98D-08 at cycle   6 NSaved=   6.
 NSaved= 6 IEnMin= 5 EnMin= -2902.86813669762     IErMin= 6 ErrMin= 4.98D-08
 ErrMax= 4.98D-08 EMaxC= 1.00D-01 BMatC= 2.96D-13 BMatP= 3.84D-12
 IDIUse=1 WtCom= 1.00D+00 WtEn= 0.00D+00
 Coeff-Com: -0.948D-02 0.168D-01 0.424D-01-0.141D+00-0.214D+00 0.131D+01
 Coeff:     -0.948D-02 0.168D-01 0.424D-01-0.141D+00-0.214D+00 0.131D+01
 Gap=     0.491 Goal=   None    Shift=    0.000
 RMSDP=5.11D-09 MaxDP=1.12D-07 DE= 1.36D-12 OVMax= 5.41D-07

 SCF Done:  E(RHF) =  -2902.86813670     A.U. after   12 cycles
             Convg  =    0.5107D-08             -V/T =  2.0001
 KE= 2.902675081751D+03 PE=-7.243157999259D+03 EE= 1.285761508981D+03
 Leave Link  502 at Thu Nov 14 09:22:57 2019, MaxMem=  268435456 cpu:      52.1
 (Enter /home/matheus/.gaussian/g09/l801.exe)
 Windowed orbitals will be sorted by symmetry type.
 ExpMin= 2.53D-02 ExpMax= 1.17D+07 ExpMxC= 1.33D+04 IAcc=3 IRadAn=         5 AccDes= 0.00D+00
 HarFok:  IExCor=  205 AccDes= 0.00D+00 IRadAn=         5 IDoV=-2
 ScaDFX=  1.000000  1.000000  1.000000  1.000000
 DSYEVD returned Info=          93 IAlg= 4 N=    46 NDim=    46 NE2=     4547561 trying DSYEV.
 DSYEVD returned Info=          93 IAlg= 4 N=    46 NDim=    46 NE2=     4547561 trying DSYEV.
 Largest valence mixing into a core orbital is  1.47D-04
 Largest core mixing into a valence orbital is  2.63D-05
 Range of M.O.s used for correlation:    12   197
 NBasis=   197 NAE=    27 NBE=    27 NFC=    11 NFV=     0
 NROrb=    186 NOA=    16 NOB=    16 NVA=   170 NVB=   170

 **** Warning!!: The largest alpha MO coefficient is  0.16769148D+02

 Leave Link  801 at Thu Nov 14 09:22:58 2019, MaxMem=  268435456 cpu:       0.3
 (Enter /home/matheus/.gaussian/g09/l804.exe)
 Closed-shell transformation, MDV=   268435456 ITran=4 ISComp=2.
 Semi-Direct transformation.
 ModeAB=           4 MOrb=            16 LenV=     267338576
 LASXX=     12259514 LTotXX=    12259514 LenRXX=    24734919
 LTotAB=    12475405 MaxLAS=    44205504 LenRXY=           0
 NonZer=    36994433 LenScr=    56254464 LnRSAI=    44205504
 LnScr1=    67060736 LExtra=           0 Total=    192255623
 MaxDsk=          -1 SrtSym=           T ITran=            4
 DoSDTr:  NPSUse=  2
 JobTyp=0 Pass  1:  I=   1 to  16.
 (rs|ai) integrals will be sorted in core.
 Complete sort for first half transformation.
 First half transformation complete.
 Begin second half transformation for I=  10.
 Complete sort for second half transformation.
 Second half transformation complete.
 Spin components of T(2) and E(2):
     alpha-alpha T2 =       0.2625147997D-01 E2=     -0.1006669973D+00
     alpha-beta  T2 =       0.1425071969D+00 E2=     -0.5584042000D+00
     beta-beta   T2 =       0.2625147997D-01 E2=     -0.1006669973D+00
 ANorm=    0.1093165201D+01
 E2 =    -0.7597381947D+00 EUMP2 =    -0.29036278748924D+04
 Leave Link  804 at Thu Nov 14 09:23:09 2019, MaxMem=  268435456 cpu:      21.1
 (Enter /home/matheus/.gaussian/g09/l913.exe)
 CIDS:  MDV=   268435456.
 Frozen-core window:  NFC=  11 NFV=   0.
 IFCWin=0 IBDFC=1 NFBD=     0     0 NFCmp=     0     0 NFFFC=     0     0
 Using DD3R+UMP44R for 1st iteration, S=T.
 Using DD4RQ for 2nd and later iterations.
 Would need an additional       431206676 words for in-memory AO integral storage.
 MP4(SDTQ)
 =========
 DD1Dir will call FoFDir   1 times, MxPair=       272
 NAB=   136 NAA=     0 NBB=     0 NumPrc=  2.
 Petite list used in FoFDir.
 MinBra= 0 MaxBra= 3 Meth= 1.
 IRaf=       0 NMat= 272 IRICut=     340 DoRegI=T DoRafI=T ISym2E=-1 JSym2E=1.
 MP4(D)= -0.14911789D-01
 MP4(S)= -0.65954035D-02
 MP4(R+Q)=  0.15705996D-01
 IPart=  1 IA=   10   10.34% done.
 IPart=  2 IA=   19   20.11% done.
 IPart=  2 IA=   29   30.31% done.
 IPart=  2 IA=   40   40.72% done.
 IPart=  1 IA=   51   50.30% done.
 IPart=  1 IA=   64   60.52% done.
 IPart=  1 IA=   78   70.22% done.
 IPart=  1 IA=   95   80.16% done.
 IPart=  2 IA=  117   90.04% done.
 Time for triples=      448.47 seconds.
 MP4(T)=   -0.31035618D-01
 E3=       -0.10900371D-01        EUMP3=      -0.29036387753D+04
 E4(DQ)=    0.79420761D-03        UMP4(DQ)=   -0.29036379811D+04
 E4(SDQ)=  -0.58011959D-02        UMP4(SDQ)=  -0.29036445765D+04
 E4(SDTQ)= -0.36836814D-01        UMP4(SDTQ)= -0.29036756121D+04
 VARIATIONAL ENERGIES WITH THE FIRST-ORDER WAVEFUNCTION:
 E(VAR1)=  -0.29035130170D+04     E(CISD,4)=  -0.29035121258D+04
 Largest amplitude= 3.95D-02
 Leave Link  913 at Thu Nov 14 09:27:08 2019, MaxMem=  268435456 cpu:     476.0
 (Enter /home/matheus/.gaussian/g09/l601.exe)
 Copying SCF densities to generalized density rwf, IOpCl= 0 IROHF=0.

 **********************************************************************

            Population analysis using the SCF density.

 **********************************************************************

 Orbital symmetries:
       Occupied  (A1) (A1) (B2) (A1) (B1) (A1) (B2) (A1) (A1) (B2)
                 (B1) (A1) (B2) (B1) (A2) (A1) (A1) (B2) (A1) (A1)
                 (B1) (A1) (B2) (B1) (A1) (B2) (A2)
       Virtual   (A1) (B2) (A1) (B1) (B2) (A1) (B2) (B1) (A1) (B2)
                 (A2) (A1) (A1) (B1) (A1) (A2) (B2) (B2) (A1) (B2)
                 (A1) (B1) (A2) (A1) (B2) (B2) (B2) (A1) (B1) (A1)
                 (A1) (B2) (B1) (A1) (B2) (B1) (A2) (A1) (B1) (B2)
                 (A1) (A2) (A1) (A2) (A1) (B2) (B2) (B1) (A1) (B1)
                 (A2) (B2) (A1) (B2) (A1) (B1) (A1) (B2) (A2) (B1)
                 (B2) (A2) (A1) (B2) (A1) (B2) (A1) (B1) (A2) (B2)
                 (B1) (A1) (A2) (A1) (B2) (B2) (A1) (B1) (A1) (B2)
                 (B1) (A1) (A1) (A2) (B1) (A1) (B2) (B1) (B2) (A2)
                 (A1) (B2) (A1) (A2) (A1) (B1) (A1) (B2) (B2) (B1)
                 (B1) (B2) (A1) (A2) (B1) (B2) (A2) (B1) (A1) (B2)
                 (A2) (A1) (B2) (A1) (A1) (B2) (A2) (B2) (B2) (A1)
                 (B2) (B1) (B1) (B1) (A2) (A1) (A2) (B2) (A1) (A2)
                 (A1) (A1) (B2) (B2) (A1) (A1) (B1) (A1) (B2) (A2)
                 (B2) (B2) (A1) (B1) (B2) (A1) (B1) (A1) (A2) (B2)
                 (A1) (B1) (A2) (B1) (A1) (B1) (B2) (A2) (A2) (B2)
                 (A1) (A2) (A1) (B2) (B2) (A1) (B2) (B2) (A1) (B2)
 The electronic state is 1-A1.
 Alpha  occ. eigenvalues -- -520.20627 -69.94385 -63.05041 -63.05041 -63.05039
 Alpha  occ. eigenvalues --  -20.62501 -20.62473 -10.89050  -8.37266  -8.37252
 Alpha  occ. eigenvalues --   -8.37235  -3.86642  -3.86641  -3.86620  -3.86613
 Alpha  occ. eigenvalues --   -3.86609  -1.46658  -1.21379  -1.19789  -0.77061
 Alpha  occ. eigenvalues --   -0.62323  -0.59859  -0.59274  -0.56342  -0.55834
 Alpha  occ. eigenvalues --   -0.55023  -0.45420
 Alpha virt. eigenvalues --    0.03645   0.04616   0.08505   0.09238   0.11284
 Alpha virt. eigenvalues --    0.13523   0.14797   0.18038   0.18113   0.18580
 Alpha virt. eigenvalues --    0.19586   0.19749   0.24103   0.25257   0.25678
 Alpha virt. eigenvalues --    0.26570   0.28428   0.28848   0.33867   0.35891
 Alpha virt. eigenvalues --    0.36342   0.40167   0.40861   0.41414   0.42101
 Alpha virt. eigenvalues --    0.47064   0.50107   0.52594   0.55767   0.57127
 Alpha virt. eigenvalues --    0.64631   0.65916   0.67630   0.68630   0.69152
 Alpha virt. eigenvalues --    0.74512   0.75105   0.76535   0.78323   0.82036
 Alpha virt. eigenvalues --    0.82148   0.82771   0.86005   0.89931   0.90990
 Alpha virt. eigenvalues --    0.91250   0.92102   0.94960   0.97799   0.98030
 Alpha virt. eigenvalues --    1.00387   1.03312   1.04193   1.05544   1.09524
 Alpha virt. eigenvalues --    1.09548   1.13805   1.15671   1.16151   1.16798
 Alpha virt. eigenvalues --    1.20394   1.25934   1.29808   1.35884   1.37389
 Alpha virt. eigenvalues --    1.39247   1.43255   1.47107   1.49322   1.54745
 Alpha virt. eigenvalues --    1.55772   1.58691   1.64382   1.67564   1.69337
 Alpha virt. eigenvalues --    1.74890   1.79350   1.93091   2.08200   2.09312
 Alpha virt. eigenvalues --    2.12668   2.13267   2.27233   2.28255   2.33184
 Alpha virt. eigenvalues --    2.36463   2.38888   2.39326   2.41382   2.44400
 Alpha virt. eigenvalues --    2.48483   2.49113   2.52203   2.53092   2.55399
 Alpha virt. eigenvalues --    2.57631   2.58883   2.59394   2.65034   2.65702
 Alpha virt. eigenvalues --    2.67224   2.69729   2.77356   2.77964   2.80024
 Alpha virt. eigenvalues --    2.84266   2.86992   2.88064   2.88575   2.90179
 Alpha virt. eigenvalues --    2.91435   2.93355   2.99103   3.07229   3.11609
 Alpha virt. eigenvalues --    3.13814   3.31313   3.33449   3.36298   3.75972
 Alpha virt. eigenvalues --    3.98646   4.08858   4.18639   4.28793   4.29883
 Alpha virt. eigenvalues --    4.32372   4.37508   4.40252   4.40571   4.52178
 Alpha virt. eigenvalues --    4.59918   4.77136   4.78537   5.03696   5.04587
 Alpha virt. eigenvalues --    5.22453   5.26684   5.29461   5.32682   5.41759
 Alpha virt. eigenvalues --    5.47908   5.89510   6.14737   6.31247   6.42222
 Alpha virt. eigenvalues --    6.46803   6.66014   6.73244   6.83628   6.93536
 Alpha virt. eigenvalues --    7.05608   7.10623   7.11367   7.17757   7.18974
 Alpha virt. eigenvalues --    7.26122   7.26250   7.27604   7.30795   7.48964
 Alpha virt. eigenvalues --    7.53215   7.63240   7.67368   7.69390   8.00763
 Alpha virt. eigenvalues --    8.37504   8.47550   8.62550  14.46267  15.43655
          Condensed to atoms (all electrons):
              1          2          3          4          5
     1  O    8.140588  -0.112848   0.235628   0.020625  -0.014247
     2  O   -0.112848   8.140588   0.020625   0.235628  -0.014247
     3  H    0.235628   0.020625   0.510253  -0.018165  -0.010936
     4  H    0.020625   0.235628  -0.018165   0.510253  -0.010936
     5  Kr  -0.014247  -0.014247  -0.010936  -0.010936  36.036065
 Mulliken atomic charges:
              1
     1  O   -0.269746
     2  O   -0.269746
     3  H    0.262595
     4  H    0.262595
     5  Kr   0.014302
 Sum of Mulliken atomic charges =   0.00000
 Mulliken charges with hydrogens summed into heavy atoms:
              1
     1  O   -0.007151
     2  O   -0.007151
     5  Kr   0.014302
 Sum of Mulliken charges with hydrogens summed into heavy atoms =   0.00000
 Electronic spatial extent (au):  <R**2>=            475.4399
 Charge=              0.0000 electrons
 Dipole moment (field-independent basis, Debye):
    X=              0.0000    Y=              0.0000    Z=              3.8342  Tot=              3.8342
 Quadrupole moment (field-independent basis, Debye-Ang):
   XX=            -30.3797   YY=            -28.1099   ZZ=            -39.2833
   XY=              0.0000   XZ=              0.0000   YZ=              0.0000
 Traceless Quadrupole moment (field-independent basis, Debye-Ang):
   XX=              2.2113   YY=              4.4811   ZZ=             -6.6924
   XY=              0.0000   XZ=              0.0000   YZ=              0.0000
 Octapole moment (field-independent basis, Debye-Ang**2):
  XXX=              0.0000  YYY=              0.0000  ZZZ=             45.0733  XYY=              0.0000
  XXY=              0.0000  XXZ=              8.5367  XZZ=              0.0000  YZZ=              0.0000
  YYZ=              8.0373  XYZ=              0.0000
 Hexadecapole moment (field-independent basis, Debye-Ang**3):
 XXXX=            -28.1984 YYYY=            -62.5738 ZZZZ=           -455.0150 XXXY=              0.0000
 XXXZ=              0.0000 YYYX=              0.0000 YYYZ=              0.0000 ZZZX=              0.0000
 ZZZY=              0.0000 XXYY=            -17.0167 XXZZ=            -75.7588 YYZZ=            -86.4874
 XXYZ=              0.0000 YYXZ=              0.0000 ZZXY=              0.0000
 N-N= 1.518532718296D+02 E-N=-7.243157996683D+03  KE= 2.902675081751D+03
 Symmetry A1   KE= 2.058622255713D+03
 Symmetry A2   KE= 5.311303017184D+01
 Symmetry B1   KE= 3.631743675025D+02
 Symmetry B2   KE= 4.277654283631D+02
 Leave Link  601 at Thu Nov 14 09:27:09 2019, MaxMem=  268435456 cpu:       0.2
 (Enter /home/matheus/.gaussian/g09/l108.exe)
 Variable Step   Value    
 -------- ---- -----------
     1       1    5.858151
 Leave Link  108 at Thu Nov 14 09:27:09 2019, MaxMem=  268435456 cpu:       0.0
 (Enter /home/matheus/.gaussian/g09/l202.exe)
 ---------------------------------------------------------------------------------------------------
                            Z-MATRIX (ANGSTROMS AND DEGREES)
   CD    Cent   Atom    N1       Length/X        N2       Alpha/Y        N3        Beta/Z          J
 ---------------------------------------------------------------------------------------------------
      1      1  O        0   0.000000          0.000000          0.725000
      2      2  O        0   0.000000          0.000000         -0.725000
      3      3  H        0   0.000000          0.918721          1.023510
      4      4  H        0   0.000000          0.918721         -1.023510
      5      5  Kr       0   0.000000          3.100000          0.000000
 ---------------------------------------------------------------------------------------------------
                         Z-Matrix orientation:                         
 ---------------------------------------------------------------------
 Center     Atomic      Atomic             Coordinates (Angstroms)
 Number     Number       Type             X           Y           Z
 ---------------------------------------------------------------------
      1          8           0        0.000000    0.000000    0.725000
      2          8           0        0.000000    0.000000   -0.725000
      3          1           0        0.000000    0.918721    1.023510
      4          1           0        0.000000    0.918721   -1.023510
      5         36           0        0.000000    3.100000    0.000000
 ---------------------------------------------------------------------
                    Distance matrix (angstroms):
                    1          2          3          4          5
     1  O    0.000000
     2  O    1.450000   0.000000
     3  H    0.966000   1.975180   0.000000
     4  H    1.975180   0.966000   2.047021   0.000000
     5  Kr   3.183650   3.183650   2.409472   2.409472   0.000000
 Stoichiometry    H2KrO2
 Framework group  C2V[C2(Kr),SGV(H2O2)]
 Deg. of freedom     4
 Full point group                 C2V     NOp   4
 RotChk:  IX=0 Diff= 5.64D-18
 Largest Abelian subgroup         C2V     NOp   4
 Largest concise Abelian subgroup C2      NOp   2
                         Standard orientation:                         
 ---------------------------------------------------------------------
 Center     Atomic      Atomic             Coordinates (Angstroms)
 Number     Number       Type             X           Y           Z
 ---------------------------------------------------------------------
      1          8           0        0.000000    0.725000   -2.100693
      2          8           0        0.000000   -0.725000   -2.100693
      3          1           0        0.000000    1.023510   -1.181973
      4          1           0        0.000000   -1.023510   -1.181973
      5         36           0        0.000000    0.000000    0.999307
 ---------------------------------------------------------------------
 Rotational constants (GHZ):     26.7026195      2.2356704      2.0629504
 Leave Link  202 at Thu Nov 14 09:27:09 2019, MaxMem=  268435456 cpu:       0.0
 (Enter /home/matheus/.gaussian/g09/l301.exe)
 Standard basis: Aug-CC-pVTZ (5D, 7F)
 Ernie: Thresh=  0.10000D-02 Tol=  0.10000D-05 Strict=F.
 Ernie:  38 primitive shells out of 205 were deleted.
 There are    71 symmetry adapted basis functions of A1  symmetry.
 There are    29 symmetry adapted basis functions of A2  symmetry.
 There are    37 symmetry adapted basis functions of B1  symmetry.
 There are    60 symmetry adapted basis functions of B2  symmetry.
 Integral buffers will be    131072 words long.
 Raffenetti 1 integral format.
 Two-electron integral symmetry is turned on.
   197 basis functions,   415 primitive gaussians,   229 cartesian basis functions
    27 alpha electrons       27 beta electrons
       nuclear repulsion energy       148.2207485354 Hartrees.
 IExCor=    0 DFT=F Ex=HF Corr=None ExCW=0 ScaHFX=  1.000000
 ScaDFX=  1.000000  1.000000  1.000000  1.000000 ScalE2=  1.000000  1.000000
 IRadAn=      5 IRanWt=     -1 IRanGd=            0 ICorTp=0
 NAtoms=    5 NActive=    5 NUniq=    3 SFac= 2.78D+00 NAtFMM=   60 NAOKFM=F Big=F
 Leave Link  301 at Thu Nov 14 09:27:09 2019, MaxMem=  268435456 cpu:       0.0
 (Enter /home/matheus/.gaussian/g09/l302.exe)
 NPDir=0 NMtPBC=     1 NCelOv=     1 NCel=       1 NClECP=     1 NCelD=      1
         NCelK=      1 NCelE2=     1 NClLst=     1 CellRange=     0.0.
 One-electron integrals computed using PRISM.
 One-electron integral symmetry used in STVInt
 NBasis=   197 RedAO= T  NBF=    71    29    37    60
 NBsUse=   197 1.00D-06 NBFU=    71    29    37    60
 Leave Link  302 at Thu Nov 14 09:27:09 2019, MaxMem=  268435456 cpu:       0.2
 (Enter /home/matheus/.gaussian/g09/l303.exe)
 DipDrv:  MaxL=1.
 Leave Link  303 at Thu Nov 14 09:27:09 2019, MaxMem=  268435456 cpu:       0.0
 (Enter /home/matheus/.gaussian/g09/l401.exe)
 Initial guess read from the read-write file.
 B after Tr=     0.000000    0.000000    0.000000
         Rot=    1.000000    0.000000    0.000000    0.000000 Ang=   0.00 deg.
 Guess basis will be translated and rotated to current coordinates.
 Initial guess orbital symmetries:
       Occupied  (A1) (A1) (B2) (A1) (B1) (A1) (B2) (A1) (A1) (B2)
                 (B1) (A1) (B2) (B1) (A2) (A1) (A1) (B2) (A1) (A1)
                 (B1) (A1) (B2) (B1) (A1) (B2) (A2)
       Virtual   (A1) (B2) (A1) (B1) (B2) (A1) (B2) (B1) (A1) (B2)
                 (A2) (A1) (A1) (B1) (A1) (A2) (B2) (B2) (A1) (B2)
                 (A1) (B1) (A2) (A1) (B2) (B2) (B2) (A1) (B1) (A1)
                 (A1) (B2) (B1) (A1) (B2) (B1) (A2) (A1) (B1) (B2)
                 (A1) (A2) (A1) (A2) (A1) (B2) (B2) (B1) (A1) (B1)
                 (A2) (B2) (A1) (B2) (A1) (B1) (A1) (B2) (A2) (B1)
                 (B2) (A2) (A1) (B2) (A1) (B2) (A1) (B1) (A2) (B2)
                 (B1) (A1) (A2) (A1) (B2) (B2) (A1) (B1) (A1) (B2)
                 (B1) (A1) (A1) (A2) (B1) (A1) (B2) (B1) (B2) (A2)
                 (A1) (B2) (A1) (A2) (A1) (B1) (A1) (B2) (B2) (B1)
                 (B1) (B2) (A1) (A2) (B1) (B2) (A2) (B1) (A1) (B2)
                 (A2) (A1) (B2) (A1) (A1) (B2) (A2) (B2) (B2) (A1)
                 (B2) (B1) (B1) (B1) (A2) (A1) (A2) (B2) (A1) (A2)
                 (A1) (A1) (B2) (B2) (A1) (A1) (B1) (A1) (B2) (A2)
                 (B2) (B2) (A1) (B1) (B2) (A1) (B1) (A1) (A2) (B2)
                 (A1) (B1) (A2) (B1) (A1) (B1) (B2) (A2) (A2) (B2)
                 (A1) (A2) (A1) (B2) (B2) (A1) (B2) (B2) (A1) (B2)
 The electronic state of the initial guess is 1-A1.
 Generating alternative initial guess.
 Harris functional with IExCor=  205 diagonalized for initial guess.
 ExpMin= 2.53D-02 ExpMax= 1.17D+07 ExpMxC= 1.33D+04 IAcc=3 IRadAn=         5 AccDes= 0.00D+00
 HarFok:  IExCor=  205 AccDes= 0.00D+00 IRadAn=         5 IDoV= 1
 ScaDFX=  1.000000  1.000000  1.000000  1.000000
 FoFCou: FMM=F IPFlag=           0 FMFlag=      100000 FMFlg1=           0
         NFxFlg=           0 DoJE=T BraDBF=F KetDBF=T FulRan=T
         Omega=  0.000000  0.000000  1.000000  0.000000  0.000000 ICntrl=     500 IOpCl=  0
         NMat0=    1 NMatS0=    1 NMatT0=    0 NMatD0=    1 NMtDS0=    0 NMtDT0=    0
         I1Cent=           4 NGrid=           0.
 Petite list used in FoFCou.
 Harris En= -2901.92556331381    
 Leave Link  401 at Thu Nov 14 09:27:09 2019, MaxMem=  268435456 cpu:       0.6
 (Enter /home/matheus/.gaussian/g09/l502.exe)
 Closed shell SCF:
 Requested convergence on RMS density matrix=1.00D-08 within 128 cycles.
 Requested convergence on MAX density matrix=1.00D-06.
 Requested convergence on             energy=1.00D-06.
 No special actions if energy rises.
 Using DIIS extrapolation, IDIIS=  1040.
 Integral symmetry usage will be decided dynamically.
 IEnd=      178881 IEndB=      178881 NGot=   268435456 MDV=   268325886
 LenX=   268325886 LenY=   268273004
 Fock matrices will be formed incrementally for  20 cycles.

 Cycle   1  Pass 0  IDiag  1:
 FoFCou: FMM=F IPFlag=           0 FMFlag=      100000 FMFlg1=           0
         NFxFlg=           0 DoJE=F BraDBF=F KetDBF=F FulRan=T
         Omega=  0.000000  0.000000  1.000000  0.000000  0.000000 ICntrl=       0 IOpCl=  0
         NMat0=    1 NMatS0=    1 NMatT0=    0 NMatD0=    1 NMtDS0=    0 NMtDT0=    0
         I1Cent=           0 NGrid=           0.
 Petite list used in FoFCou.
 E= -2902.87163919795    
 DIIS: error= 7.14D-04 at cycle   1 NSaved=   1.
 NSaved= 1 IEnMin= 1 EnMin= -2902.87163919795     IErMin= 1 ErrMin= 7.14D-04
 ErrMax= 7.14D-04 EMaxC= 1.00D-01 BMatC= 1.09D-04 BMatP= 1.09D-04
 IDIUse=3 WtCom= 9.93D-01 WtEn= 7.14D-03
 Coeff-Com:  0.100D+01
 Coeff-En:   0.100D+01
 Coeff:      0.100D+01
 Gap=     0.493 Goal=   None    Shift=    0.000
 RMSDP=7.59D-05 MaxDP=2.45D-03              OVMax= 3.62D-03

 Cycle   2  Pass 0  IDiag  1:
 RMSU=  5.37D-05    CP:  1.00D+00
 E= -2902.87176512758     Delta-E=       -0.000125929625 Rises=F Damp=F
 DIIS: error= 1.61D-04 at cycle   2 NSaved=   2.
 NSaved= 2 IEnMin= 2 EnMin= -2902.87176512758     IErMin= 2 ErrMin= 1.61D-04
 ErrMax= 1.61D-04 EMaxC= 1.00D-01 BMatC= 3.58D-06 BMatP= 1.09D-04
 IDIUse=3 WtCom= 9.98D-01 WtEn= 1.61D-03
 Coeff-Com: -0.824D-01 0.108D+01
 Coeff-En:   0.000D+00 0.100D+01
 Coeff:     -0.823D-01 0.108D+01
 Gap=     0.491 Goal=   None    Shift=    0.000
 RMSDP=1.41D-05 MaxDP=4.86D-04 DE=-1.26D-04 OVMax= 8.89D-04

 Cycle   3  Pass 0  IDiag  1:
 RMSU=  7.01D-06    CP:  1.00D+00  1.13D+00
 E= -2902.87177024323     Delta-E=       -0.000005115656 Rises=F Damp=F
 DIIS: error= 5.98D-05 at cycle   3 NSaved=   3.
 NSaved= 3 IEnMin= 3 EnMin= -2902.87177024323     IErMin= 3 ErrMin= 5.98D-05
 ErrMax= 5.98D-05 EMaxC= 1.00D-01 BMatC= 4.84D-07 BMatP= 3.58D-06
 IDIUse=1 WtCom= 1.00D+00 WtEn= 0.00D+00
 Coeff-Com: -0.420D-01 0.251D+00 0.791D+00
 Coeff:     -0.420D-01 0.251D+00 0.791D+00
 Gap=     0.492 Goal=   None    Shift=    0.000
 RMSDP=3.21D-06 MaxDP=6.54D-05 DE=-5.12D-06 OVMax= 1.96D-04

 Initial convergence to 1.0D-05 achieved.  Increase integral accuracy.
 Cycle   4  Pass 1  IDiag  1:
 E= -2902.87177069839     Delta-E=       -0.000000455152 Rises=F Damp=F
 DIIS: error= 1.18D-05 at cycle   1 NSaved=   1.
 NSaved= 1 IEnMin= 1 EnMin= -2902.87177069839     IErMin= 1 ErrMin= 1.18D-05
 ErrMax= 1.18D-05 EMaxC= 1.00D-01 BMatC= 2.62D-08 BMatP= 2.62D-08
 IDIUse=1 WtCom= 1.00D+00 WtEn= 0.00D+00
 Coeff-Com:  0.100D+01
 Coeff:      0.100D+01
 Gap=     0.492 Goal=   None    Shift=    0.000
 RMSDP=3.21D-06 MaxDP=6.54D-05 DE=-4.55D-07 OVMax= 8.16D-05

 Cycle   5  Pass 1  IDiag  1:
 RMSU=  7.87D-07    CP:  1.00D+00
 E= -2902.87177074255     Delta-E=       -0.000000044161 Rises=F Damp=F
 DIIS: error= 8.38D-06 at cycle   2 NSaved=   2.
 NSaved= 2 IEnMin= 2 EnMin= -2902.87177074255     IErMin= 2 ErrMin= 8.38D-06
 ErrMax= 8.38D-06 EMaxC= 1.00D-01 BMatC= 6.15D-09 BMatP= 2.62D-08
 IDIUse=1 WtCom= 1.00D+00 WtEn= 0.00D+00
 Coeff-Com:  0.190D+00 0.810D+00
 Coeff:      0.190D+00 0.810D+00
 Gap=     0.492 Goal=   None    Shift=    0.000
 RMSDP=3.29D-07 MaxDP=7.24D-06 DE=-4.42D-08 OVMax= 2.74D-05

 Cycle   6  Pass 1  IDiag  1:
 RMSU=  1.85D-07    CP:  1.00D+00  1.18D+00
 E= -2902.87177075046     Delta-E=       -0.000000007916 Rises=F Damp=F
 DIIS: error= 2.30D-06 at cycle   3 NSaved=   3.
 NSaved= 3 IEnMin= 3 EnMin= -2902.87177075046     IErMin= 3 ErrMin= 2.30D-06
 ErrMax= 2.30D-06 EMaxC= 1.00D-01 BMatC= 1.01D-09 BMatP= 6.15D-09
 IDIUse=1 WtCom= 1.00D+00 WtEn= 0.00D+00
 Coeff-Com: -0.238D+00-0.933D-01 0.133D+01
 Coeff:     -0.238D+00-0.933D-01 0.133D+01
 Gap=     0.492 Goal=   None    Shift=    0.000
 RMSDP=3.11D-07 MaxDP=9.24D-06 DE=-7.92D-09 OVMax= 2.74D-05

 Cycle   7  Pass 1  IDiag  1:
 RMSU=  9.53D-08    CP:  1.00D+00  1.43D+00  1.17D+00
 E= -2902.87177075319     Delta-E=       -0.000000002725 Rises=F Damp=F
 DIIS: error= 5.30D-07 at cycle   4 NSaved=   4.
 NSaved= 4 IEnMin= 4 EnMin= -2902.87177075319     IErMin= 4 ErrMin= 5.30D-07
 ErrMax= 5.30D-07 EMaxC= 1.00D-01 BMatC= 2.76D-11 BMatP= 1.01D-09
 IDIUse=1 WtCom= 1.00D+00 WtEn= 0.00D+00
 Coeff-Com:  0.109D+00 0.200D-01-0.628D+00 0.150D+01
 Coeff:      0.109D+00 0.200D-01-0.628D+00 0.150D+01
 Gap=     0.492 Goal=   None    Shift=    0.000
 RMSDP=7.81D-08 MaxDP=1.61D-06 DE=-2.72D-09 OVMax= 5.91D-06

 Cycle   8  Pass 1  IDiag  1:
 RMSU=  1.32D-08    CP:  1.00D+00  1.42D+00  1.12D+00  1.55D+00
 E= -2902.87177075328     Delta-E=       -0.000000000095 Rises=F Damp=F
 DIIS: error= 1.37D-07 at cycle   5 NSaved=   5.
 NSaved= 5 IEnMin= 5 EnMin= -2902.87177075328     IErMin= 5 ErrMin= 1.37D-07
 ErrMax= 1.37D-07 EMaxC= 1.00D-01 BMatC= 2.02D-12 BMatP= 2.76D-11
 IDIUse=1 WtCom= 1.00D+00 WtEn= 0.00D+00
 Coeff-Com:  0.509D-03 0.359D-02-0.666D-02-0.167D+00 0.117D+01
 Coeff:      0.509D-03 0.359D-02-0.666D-02-0.167D+00 0.117D+01
 Gap=     0.492 Goal=   None    Shift=    0.000
 RMSDP=1.46D-08 MaxDP=4.17D-07 DE=-9.50D-11 OVMax= 1.54D-06

 Cycle   9  Pass 1  IDiag  1:
 RMSU=  4.21D-09    CP:  1.00D+00  1.42D+00  1.12D+00  1.63D+00  1.42D+00
 E= -2902.87177075330     Delta-E=       -0.000000000016 Rises=F Damp=F
 DIIS: error= 5.75D-08 at cycle   6 NSaved=   6.
 NSaved= 6 IEnMin= 6 EnMin= -2902.87177075330     IErMin= 6 ErrMin= 5.75D-08
 ErrMax= 5.75D-08 EMaxC= 1.00D-01 BMatC= 3.28D-13 BMatP= 2.02D-12
 IDIUse=1 WtCom= 1.00D+00 WtEn= 0.00D+00
 Coeff-Com: -0.195D-01-0.270D-02 0.111D+00-0.243D+00-0.122D+00 0.128D+01
 Coeff:     -0.195D-01-0.270D-02 0.111D+00-0.243D+00-0.122D+00 0.128D+01
 Gap=     0.492 Goal=   None    Shift=    0.000
 RMSDP=6.28D-09 MaxDP=1.60D-07 DE=-1.64D-11 OVMax= 6.81D-07

 SCF Done:  E(RHF) =  -2902.87177075     A.U. after    9 cycles
             Convg  =    0.6283D-08             -V/T =  2.0001
 KE= 2.902651469958D+03 PE=-7.235924987602D+03 EE= 1.282180998356D+03
 Leave Link  502 at Thu Nov 14 09:27:28 2019, MaxMem=  268435456 cpu:      38.7
 (Enter /home/matheus/.gaussian/g09/l801.exe)
 Windowed orbitals will be sorted by symmetry type.
 ExpMin= 2.53D-02 ExpMax= 1.17D+07 ExpMxC= 1.33D+04 IAcc=3 IRadAn=         5 AccDes= 0.00D+00
 HarFok:  IExCor=  205 AccDes= 0.00D+00 IRadAn=         5 IDoV=-2
 ScaDFX=  1.000000  1.000000  1.000000  1.000000
 DSYEVD returned Info=          89 IAlg= 4 N=    59 NDim=    59 NE2=     4547561 trying DSYEV.
 Largest valence mixing into a core orbital is  1.47D-04
 Largest core mixing into a valence orbital is  2.63D-05
 Range of M.O.s used for correlation:    12   197
 NBasis=   197 NAE=    27 NBE=    27 NFC=    11 NFV=     0
 NROrb=    186 NOA=    16 NOB=    16 NVA=   170 NVB=   170

 **** Warning!!: The largest alpha MO coefficient is  0.16319512D+02

 Leave Link  801 at Thu Nov 14 09:27:29 2019, MaxMem=  268435456 cpu:       0.2
 (Enter /home/matheus/.gaussian/g09/l804.exe)
 Closed-shell transformation, MDV=   268435456 ITran=4 ISComp=2.
 Semi-Direct transformation.
 ModeAB=           4 MOrb=            16 LenV=     267339634
 LASXX=     12259514 LTotXX=    12259514 LenRXX=    24734919
 LTotAB=    12475405 MaxLAS=    44015040 LenRXY=           0
 NonZer=    36994433 LenScr=    56254464 LnRSAI=    44015040
 LnScr1=    66803200 LExtra=           0 Total=    191807623
 MaxDsk=          -1 SrtSym=           T ITran=            4
 DoSDTr:  NPSUse=  2
 JobTyp=0 Pass  1:  I=   1 to  16.
 (rs|ai) integrals will be sorted in core.
 Complete sort for first half transformation.
 First half transformation complete.
 Begin second half transformation for I=  10.
 Complete sort for second half transformation.
 Second half transformation complete.
 Spin components of T(2) and E(2):
     alpha-alpha T2 =       0.2615076171D-01 E2=     -0.1003194122D+00
     alpha-beta  T2 =       0.1423839123D+00 E2=     -0.5576148070D+00
     beta-beta   T2 =       0.2615076171D-01 E2=     -0.1003194122D+00
 ANorm=    0.1093016668D+01
 E2 =    -0.7582536315D+00 EUMP2 =    -0.29036300243848D+04
 Leave Link  804 at Thu Nov 14 09:27:39 2019, MaxMem=  268435456 cpu:      21.3
 (Enter /home/matheus/.gaussian/g09/l913.exe)
 CIDS:  MDV=   268435456.
 Frozen-core window:  NFC=  11 NFV=   0.
 IFCWin=0 IBDFC=1 NFBD=     0     0 NFCmp=     0     0 NFFFC=     0     0
 Using DD3R+UMP44R for 1st iteration, S=T.
 Using DD4RQ for 2nd and later iterations.
 Would need an additional       431206676 words for in-memory AO integral storage.
 MP4(SDTQ)
 =========
 DD1Dir will call FoFDir   1 times, MxPair=       272
 NAB=   136 NAA=     0 NBB=     0 NumPrc=  2.
 Petite list used in FoFDir.
 MinBra= 0 MaxBra= 3 Meth= 1.
 IRaf=       0 NMat= 272 IRICut=     340 DoRegI=T DoRafI=T ISym2E=-1 JSym2E=1.
 MP4(D)= -0.14911925D-01
 MP4(S)= -0.65522020D-02
 MP4(R+Q)=  0.15602378D-01
 IPart=  2 IA=   10   10.34% done.
 IPart=  1 IA=   19   20.11% done.
 IPart=  1 IA=   29   30.31% done.
 IPart=  2 IA=   40   40.72% done.
 IPart=  1 IA=   51   50.30% done.
 IPart=  2 IA=   64   60.52% done.
 IPart=  2 IA=   78   70.22% done.
 IPart=  1 IA=   95   80.16% done.
 IPart=  1 IA=  117   90.04% done.
 Time for triples=      455.59 seconds.
 MP4(T)=   -0.30832617D-01
 E3=       -0.11103406D-01        EUMP3=      -0.29036411278D+04
 E4(DQ)=    0.69045291D-03        UMP4(DQ)=   -0.29036404373D+04
 E4(SDQ)=  -0.58617491D-02        UMP4(SDQ)=  -0.29036469895D+04
 E4(SDTQ)= -0.36694366D-01        UMP4(SDTQ)= -0.29036778222D+04
 VARIATIONAL ENERGIES WITH THE FIRST-ORDER WAVEFUNCTION:
 E(VAR1)=  -0.29035157537D+04     E(CISD,4)=  -0.29035149710D+04
 Largest amplitude= 4.97D-02
 Leave Link  913 at Thu Nov 14 09:31:41 2019, MaxMem=  268435456 cpu:     482.6
 (Enter /home/matheus/.gaussian/g09/l108.exe)
 Variable Step   Value    
 -------- ---- -----------
     1       2    6.047124
 Leave Link  108 at Thu Nov 14 09:31:41 2019, MaxMem=  268435456 cpu:       0.0
 (Enter /home/matheus/.gaussian/g09/l202.exe)
 ---------------------------------------------------------------------------------------------------
                            Z-MATRIX (ANGSTROMS AND DEGREES)
   CD    Cent   Atom    N1       Length/X        N2       Alpha/Y        N3        Beta/Z          J
 ---------------------------------------------------------------------------------------------------
      1      1  O        0   0.000000          0.000000          0.725000
      2      2  O        0   0.000000          0.000000         -0.725000
      3      3  H        0   0.000000          0.918721          1.023510
      4      4  H        0   0.000000          0.918721         -1.023510
      5      5  Kr       0   0.000000          3.200000          0.000000
 ---------------------------------------------------------------------------------------------------
                         Z-Matrix orientation:                         
 ---------------------------------------------------------------------
 Center     Atomic      Atomic             Coordinates (Angstroms)
 Number     Number       Type             X           Y           Z
 ---------------------------------------------------------------------
      1          8           0        0.000000    0.000000    0.725000
      2          8           0        0.000000    0.000000   -0.725000
      3          1           0        0.000000    0.918721    1.023510
      4          1           0        0.000000    0.918721   -1.023510
      5         36           0        0.000000    3.200000    0.000000
 ---------------------------------------------------------------------
                    Distance matrix (angstroms):
                    1          2          3          4          5
     1  O    0.000000
     2  O    1.450000   0.000000
     3  H    0.966000   1.975180   0.000000
     4  H    1.975180   0.966000   2.047021   0.000000
     5  Kr   3.281101   3.281101   2.500362   2.500362   0.000000
 Stoichiometry    H2KrO2
 Framework group  C2V[C2(Kr),SGV(H2O2)]
 Deg. of freedom     4
 Full point group                 C2V     NOp   4
 RotChk:  IX=0 Diff= 5.64D-18
 Largest Abelian subgroup         C2V     NOp   4
 Largest concise Abelian subgroup C2      NOp   2
                         Standard orientation:                         
 ---------------------------------------------------------------------
 Center     Atomic      Atomic             Coordinates (Angstroms)
 Number     Number       Type             X           Y           Z
 ---------------------------------------------------------------------
      1          8           0        0.000000    0.725000   -2.167360
      2          8           0        0.000000   -0.725000   -2.167360
      3          1           0        0.000000    1.023510   -1.248639
      4          1           0        0.000000   -1.023510   -1.248639
      5         36           0        0.000000    0.000000    1.032640
 ---------------------------------------------------------------------
 Rotational constants (GHZ):     26.7026195      2.0967103      1.9440611
 Leave Link  202 at Thu Nov 14 09:31:41 2019, MaxMem=  268435456 cpu:       0.0
 (Enter /home/matheus/.gaussian/g09/l301.exe)
 Standard basis: Aug-CC-pVTZ (5D, 7F)
 Ernie: Thresh=  0.10000D-02 Tol=  0.10000D-05 Strict=F.
 Ernie:  38 primitive shells out of 205 were deleted.
 There are    71 symmetry adapted basis functions of A1  symmetry.
 There are    29 symmetry adapted basis functions of A2  symmetry.
 There are    37 symmetry adapted basis functions of B1  symmetry.
 There are    60 symmetry adapted basis functions of B2  symmetry.
 Integral buffers will be    131072 words long.
 Raffenetti 1 integral format.
 Two-electron integral symmetry is turned on.
   197 basis functions,   415 primitive gaussians,   229 cartesian basis functions
    27 alpha electrons       27 beta electrons
       nuclear repulsion energy       144.8023428067 Hartrees.
 IExCor=    0 DFT=F Ex=HF Corr=None ExCW=0 ScaHFX=  1.000000
 ScaDFX=  1.000000  1.000000  1.000000  1.000000 ScalE2=  1.000000  1.000000
 IRadAn=      5 IRanWt=     -1 IRanGd=            0 ICorTp=0
 NAtoms=    5 NActive=    5 NUniq=    3 SFac= 2.78D+00 NAtFMM=   60 NAOKFM=F Big=F
 Leave Link  301 at Thu Nov 14 09:31:41 2019, MaxMem=  268435456 cpu:       0.0
 (Enter /home/matheus/.gaussian/g09/l302.exe)
 NPDir=0 NMtPBC=     1 NCelOv=     1 NCel=       1 NClECP=     1 NCelD=      1
         NCelK=      1 NCelE2=     1 NClLst=     1 CellRange=     0.0.
 One-electron integrals computed using PRISM.
 One-electron integral symmetry used in STVInt
 NBasis=   197 RedAO= T  NBF=    71    29    37    60
 NBsUse=   197 1.00D-06 NBFU=    71    29    37    60
 Leave Link  302 at Thu Nov 14 09:31:41 2019, MaxMem=  268435456 cpu:       0.2
 (Enter /home/matheus/.gaussian/g09/l303.exe)
 DipDrv:  MaxL=1.
 Leave Link  303 at Thu Nov 14 09:31:41 2019, MaxMem=  268435456 cpu:       0.0
 (Enter /home/matheus/.gaussian/g09/l401.exe)
 Initial guess read from the read-write file.
 B after Tr=     0.000000    0.000000    0.000000
         Rot=    1.000000    0.000000    0.000000    0.000000 Ang=   0.00 deg.
 Guess basis will be translated and rotated to current coordinates.
 Initial guess orbital symmetries:
       Occupied  (A1) (A1) (A1) (B2) (B1) (A1) (B2) (A1) (A1) (B2)
                 (B1) (A1) (B2) (B1) (A2) (A1) (A1) (B2) (A1) (A1)
                 (B1) (A1) (B2) (B1) (A1) (B2) (A2)
       Virtual   (A1) (B2) (A1) (B1) (B2) (A1) (B2) (B1) (A1) (B2)
                 (A2) (A1) (A1) (B1) (A1) (A2) (B2) (B2) (A1) (B2)
                 (A1) (B1) (A2) (A1) (B2) (B2) (B2) (A1) (B1) (A1)
                 (A1) (B2) (B1) (A1) (B2) (B1) (A2) (A1) (B1) (B2)
                 (A1) (A2) (A1) (A2) (A1) (B2) (B2) (B1) (A1) (B1)
                 (A2) (A1) (B2) (B2) (B1) (A1) (A1) (B2) (B1) (A2)
                 (B2) (A2) (A1) (B2) (A1) (B2) (A1) (B1) (A2) (B2)
                 (B1) (A1) (A2) (A1) (B2) (B2) (A1) (B1) (A1) (B2)
                 (B1) (A1) (A1) (A2) (B1) (A1) (B1) (B2) (B2) (A2)
                 (A1) (B2) (A1) (A2) (A1) (B1) (B2) (A1) (B1) (B2)
                 (B1) (B2) (A1) (A2) (B1) (B2) (A2) (A1) (B1) (B2)
                 (A2) (A1) (B2) (A1) (A1) (B2) (A2) (B2) (B2) (A1)
                 (B2) (B1) (B1) (B1) (A2) (A1) (A2) (B2) (A1) (A2)
                 (A1) (A1) (B2) (A1) (B2) (A1) (B1) (A1) (B2) (A2)
                 (B2) (B2) (A1) (B1) (B2) (A1) (B1) (A1) (A2) (B2)
                 (A1) (B1) (A2) (B1) (A1) (B2) (B1) (A2) (A2) (B2)
                 (A1) (A2) (A1) (B2) (B2) (A1) (B2) (B2) (A1) (B2)
 The electronic state of the initial guess is 1-A1.
 Generating alternative initial guess.
 Harris functional with IExCor=  205 diagonalized for initial guess.
 ExpMin= 2.53D-02 ExpMax= 1.17D+07 ExpMxC= 1.33D+04 IAcc=3 IRadAn=         5 AccDes= 0.00D+00
 HarFok:  IExCor=  205 AccDes= 0.00D+00 IRadAn=         5 IDoV= 1
 ScaDFX=  1.000000  1.000000  1.000000  1.000000
 FoFCou: FMM=F IPFlag=           0 FMFlag=      100000 FMFlg1=           0
         NFxFlg=           0 DoJE=T BraDBF=F KetDBF=T FulRan=T
         Omega=  0.000000  0.000000  1.000000  0.000000  0.000000 ICntrl=     500 IOpCl=  0
         NMat0=    1 NMatS0=    1 NMatT0=    0 NMatD0=    1 NMtDS0=    0 NMtDT0=    0
         I1Cent=           4 NGrid=           0.
 Petite list used in FoFCou.
 Harris En= -2901.92707803002    
 Leave Link  401 at Thu Nov 14 09:31:41 2019, MaxMem=  268435456 cpu:       0.6
 (Enter /home/matheus/.gaussian/g09/l502.exe)
 Closed shell SCF:
 Requested convergence on RMS density matrix=1.00D-08 within 128 cycles.
 Requested convergence on MAX density matrix=1.00D-06.
 Requested convergence on             energy=1.00D-06.
 No special actions if energy rises.
 Using DIIS extrapolation, IDIIS=  1040.
 Integral symmetry usage will be decided dynamically.
 IEnd=      178881 IEndB=      178881 NGot=   268435456 MDV=   268325886
 LenX=   268325886 LenY=   268273004
 Fock matrices will be formed incrementally for  20 cycles.

 Cycle   1  Pass 0  IDiag  1:
 FoFCou: FMM=F IPFlag=           0 FMFlag=      100000 FMFlg1=           0
         NFxFlg=           0 DoJE=F BraDBF=F KetDBF=F FulRan=T
         Omega=  0.000000  0.000000  1.000000  0.000000  0.000000 ICntrl=       0 IOpCl=  0
         NMat0=    1 NMatS0=    1 NMatT0=    0 NMatD0=    1 NMtDS0=    0 NMtDT0=    0
         I1Cent=           0 NGrid=           0.
 Petite list used in FoFCou.
 E= -2902.87426090793    
 DIIS: error= 6.37D-04 at cycle   1 NSaved=   1.
 NSaved= 1 IEnMin= 1 EnMin= -2902.87426090793     IErMin= 1 ErrMin= 6.37D-04
 ErrMax= 6.37D-04 EMaxC= 1.00D-01 BMatC= 8.19D-05 BMatP= 8.19D-05
 IDIUse=3 WtCom= 9.94D-01 WtEn= 6.37D-03
 Coeff-Com:  0.100D+01
 Coeff-En:   0.100D+01
 Coeff:      0.100D+01
 Gap=     0.494 Goal=   None    Shift=    0.000
 RMSDP=6.66D-05 MaxDP=1.95D-03              OVMax= 3.34D-03

 Cycle   2  Pass 0  IDiag  1:
 RMSU=  4.71D-05    CP:  1.00D+00
 E= -2902.87435627593     Delta-E=       -0.000095368004 Rises=F Damp=F
 DIIS: error= 1.31D-04 at cycle   2 NSaved=   2.
 NSaved= 2 IEnMin= 2 EnMin= -2902.87435627593     IErMin= 2 ErrMin= 1.31D-04
 ErrMax= 1.31D-04 EMaxC= 1.00D-01 BMatC= 2.44D-06 BMatP= 8.19D-05
 IDIUse=3 WtCom= 9.99D-01 WtEn= 1.31D-03
 Coeff-Com: -0.895D-01 0.109D+01
 Coeff-En:   0.000D+00 0.100D+01
 Coeff:     -0.894D-01 0.109D+01
 Gap=     0.493 Goal=   None    Shift=    0.000
 RMSDP=1.24D-05 MaxDP=4.10D-04 DE=-9.54D-05 OVMax= 7.90D-04

 Cycle   3  Pass 0  IDiag  1:
 RMSU=  5.95D-06    CP:  1.00D+00  1.14D+00
 E= -2902.87436004744     Delta-E=       -0.000003771509 Rises=F Damp=F
 DIIS: error= 4.51D-05 at cycle   3 NSaved=   3.
 NSaved= 3 IEnMin= 3 EnMin= -2902.87436004744     IErMin= 3 ErrMin= 4.51D-05
 ErrMax= 4.51D-05 EMaxC= 1.00D-01 BMatC= 2.83D-07 BMatP= 2.44D-06
 IDIUse=1 WtCom= 1.00D+00 WtEn= 0.00D+00
 Coeff-Com: -0.379D-01 0.226D+00 0.812D+00
 Coeff:     -0.379D-01 0.226D+00 0.812D+00
 Gap=     0.493 Goal=   None    Shift=    0.000
 RMSDP=2.72D-06 MaxDP=5.22D-05 DE=-3.77D-06 OVMax= 1.51D-04

 Initial convergence to 1.0D-05 achieved.  Increase integral accuracy.
 Cycle   4  Pass 1  IDiag  1:
 E= -2902.87436033980     Delta-E=       -0.000000292358 Rises=F Damp=F
 DIIS: error= 1.07D-05 at cycle   1 NSaved=   1.
 NSaved= 1 IEnMin= 1 EnMin= -2902.87436033980     IErMin= 1 ErrMin= 1.07D-05
 ErrMax= 1.07D-05 EMaxC= 1.00D-01 BMatC= 2.03D-08 BMatP= 2.03D-08
 IDIUse=1 WtCom= 1.00D+00 WtEn= 0.00D+00
 Coeff-Com:  0.100D+01
 Coeff:      0.100D+01
 Gap=     0.493 Goal=   None    Shift=    0.000
 RMSDP=2.72D-06 MaxDP=5.22D-05 DE=-2.92D-07 OVMax= 7.68D-05

 Cycle   5  Pass 1  IDiag  1:
 RMSU=  7.02D-07    CP:  1.00D+00
 E= -2902.87436037378     Delta-E=       -0.000000033981 Rises=F Damp=F
 DIIS: error= 7.46D-06 at cycle   2 NSaved=   2.
 NSaved= 2 IEnMin= 2 EnMin= -2902.87436037378     IErMin= 2 ErrMin= 7.46D-06
 ErrMax= 7.46D-06 EMaxC= 1.00D-01 BMatC= 4.86D-09 BMatP= 2.03D-08
 IDIUse=1 WtCom= 1.00D+00 WtEn= 0.00D+00
 Coeff-Com:  0.198D+00 0.802D+00
 Coeff:      0.198D+00 0.802D+00
 Gap=     0.493 Goal=   None    Shift=    0.000
 RMSDP=2.86D-07 MaxDP=6.14D-06 DE=-3.40D-08 OVMax= 2.50D-05

 Cycle   6  Pass 1  IDiag  1:
 RMSU=  1.64D-07    CP:  1.00D+00  1.17D+00
 E= -2902.87436037995     Delta-E=       -0.000000006174 Rises=F Damp=F
 DIIS: error= 2.12D-06 at cycle   3 NSaved=   3.
 NSaved= 3 IEnMin= 3 EnMin= -2902.87436037995     IErMin= 3 ErrMin= 2.12D-06
 ErrMax= 2.12D-06 EMaxC= 1.00D-01 BMatC= 7.84D-10 BMatP= 4.86D-09
 IDIUse=1 WtCom= 1.00D+00 WtEn= 0.00D+00
 Coeff-Com: -0.245D+00-0.113D+00 0.136D+01
 Coeff:     -0.245D+00-0.113D+00 0.136D+01
 Gap=     0.493 Goal=   None    Shift=    0.000
 RMSDP=2.80D-07 MaxDP=8.35D-06 DE=-6.17D-09 OVMax= 2.65D-05

 Cycle   7  Pass 1  IDiag  1:
 RMSU=  8.41D-08    CP:  1.00D+00  1.42D+00  1.19D+00
 E= -2902.87436038215     Delta-E=       -0.000000002195 Rises=F Damp=F
 DIIS: error= 4.37D-07 at cycle   4 NSaved=   4.
 NSaved= 4 IEnMin= 4 EnMin= -2902.87436038215     IErMin= 4 ErrMin= 4.37D-07
 ErrMax= 4.37D-07 EMaxC= 1.00D-01 BMatC= 1.99D-11 BMatP= 7.84D-10
 IDIUse=1 WtCom= 1.00D+00 WtEn= 0.00D+00
 Coeff-Com:  0.124D+00 0.358D-01-0.709D+00 0.155D+01
 Coeff:      0.124D+00 0.358D-01-0.709D+00 0.155D+01
 Gap=     0.493 Goal=   None    Shift=    0.000
 RMSDP=7.00D-08 MaxDP=1.42D-06 DE=-2.19D-09 OVMax= 5.60D-06

 Cycle   8  Pass 1  IDiag  1:
 RMSU=  1.15D-08    CP:  1.00D+00  1.41D+00  1.14D+00  1.56D+00
 E= -2902.87436038224     Delta-E=       -0.000000000089 Rises=F Damp=F
 DIIS: error= 1.21D-07 at cycle   5 NSaved=   5.
 NSaved= 5 IEnMin= 5 EnMin= -2902.87436038224     IErMin= 5 ErrMin= 1.21D-07
 ErrMax= 1.21D-07 EMaxC= 1.00D-01 BMatC= 1.25D-12 BMatP= 1.99D-11
 IDIUse=1 WtCom= 1.00D+00 WtEn= 0.00D+00
 Coeff-Com: -0.326D-01-0.585D-02 0.183D+00-0.541D+00 0.140D+01
 Coeff:     -0.326D-01-0.585D-02 0.183D+00-0.541D+00 0.140D+01
 Gap=     0.493 Goal=   None    Shift=    0.000
 RMSDP=1.23D-08 MaxDP=3.49D-07 DE=-8.91D-11 OVMax= 1.44D-06

 Cycle   9  Pass 1  IDiag  1:
 RMSU=  3.47D-09    CP:  1.00D+00  1.42D+00  1.14D+00  1.61D+00  1.53D+00
 E= -2902.87436038222     Delta-E=        0.000000000013 Rises=F Damp=F
 DIIS: error= 3.70D-08 at cycle   6 NSaved=   6.
 NSaved= 6 IEnMin= 5 EnMin= -2902.87436038224     IErMin= 6 ErrMin= 3.70D-08
 ErrMax= 3.70D-08 EMaxC= 1.00D-01 BMatC= 1.56D-13 BMatP= 1.25D-12
 IDIUse=1 WtCom= 1.00D+00 WtEn= 0.00D+00
 Coeff-Com: -0.186D-01-0.430D-02 0.104D+00-0.239D+00 0.797D-01 0.108D+01
 Coeff:     -0.186D-01-0.430D-02 0.104D+00-0.239D+00 0.797D-01 0.108D+01
 Gap=     0.493 Goal=   None    Shift=    0.000
 RMSDP=3.96D-09 MaxDP=9.84D-08 DE= 1.27D-11 OVMax= 4.28D-07

 SCF Done:  E(RHF) =  -2902.87436038     A.U. after    9 cycles
             Convg  =    0.3962D-08             -V/T =  2.0001
 KE= 2.902633926025D+03 PE=-7.229124845610D+03 EE= 1.278814216396D+03
 Leave Link  502 at Thu Nov 14 09:32:00 2019, MaxMem=  268435456 cpu:      37.2
 (Enter /home/matheus/.gaussian/g09/l801.exe)
 Windowed orbitals will be sorted by symmetry type.
 ExpMin= 2.53D-02 ExpMax= 1.17D+07 ExpMxC= 1.33D+04 IAcc=3 IRadAn=         5 AccDes= 0.00D+00
 HarFok:  IExCor=  205 AccDes= 0.00D+00 IRadAn=         5 IDoV=-2
 ScaDFX=  1.000000  1.000000  1.000000  1.000000
 DSYEVD returned Info=         119 IAlg= 4 N=    59 NDim=    59 NE2=     4547561 trying DSYEV.
 Largest valence mixing into a core orbital is  1.48D-04
 Largest core mixing into a valence orbital is  2.64D-05
 Range of M.O.s used for correlation:    12   197
 NBasis=   197 NAE=    27 NBE=    27 NFC=    11 NFV=     0
 NROrb=    186 NOA=    16 NOB=    16 NVA=   170 NVB=   170

 **** Warning!!: The largest alpha MO coefficient is  0.16172209D+02

 Leave Link  801 at Thu Nov 14 09:32:00 2019, MaxMem=  268435456 cpu:       0.2
 (Enter /home/matheus/.gaussian/g09/l804.exe)
 Closed-shell transformation, MDV=   268435456 ITran=4 ISComp=2.
 Semi-Direct transformation.
 ModeAB=           4 MOrb=            16 LenV=     267340688
 LASXX=     12259514 LTotXX=    12259514 LenRXX=    24734919
 LTotAB=    12475405 MaxLAS=    43913856 LenRXY=           0
 NonZer=    36994433 LenScr=    56254464 LnRSAI=    43913856
 LnScr1=    66629120 LExtra=           0 Total=    191532359
 MaxDsk=          -1 SrtSym=           T ITran=            4
 DoSDTr:  NPSUse=  2
 JobTyp=0 Pass  1:  I=   1 to  16.
 (rs|ai) integrals will be sorted in core.
 Complete sort for first half transformation.
 First half transformation complete.
 Begin second half transformation for I=  10.
 Complete sort for second half transformation.
 Second half transformation complete.
 Spin components of T(2) and E(2):
     alpha-alpha T2 =       0.2606481289D-01 E2=     -0.1000256583D+00
     alpha-beta  T2 =       0.1422725651D+00 E2=     -0.5569340106D+00
     beta-beta   T2 =       0.2606481289D-01 E2=     -0.1000256583D+00
 ANorm=    0.1092887090D+01
 E2 =    -0.7569853272D+00 EUMP2 =    -0.29036313457094D+04
 Leave Link  804 at Thu Nov 14 09:32:10 2019, MaxMem=  268435456 cpu:      21.0
 (Enter /home/matheus/.gaussian/g09/l913.exe)
 CIDS:  MDV=   268435456.
 Frozen-core window:  NFC=  11 NFV=   0.
 IFCWin=0 IBDFC=1 NFBD=     0     0 NFCmp=     0     0 NFFFC=     0     0
 Using DD3R+UMP44R for 1st iteration, S=T.
 Using DD4RQ for 2nd and later iterations.
 Would need an additional       431206676 words for in-memory AO integral storage.
 MP4(SDTQ)
 =========
 DD1Dir will call FoFDir   1 times, MxPair=       272
 NAB=   136 NAA=     0 NBB=     0 NumPrc=  2.
 Petite list used in FoFDir.
 MinBra= 0 MaxBra= 3 Meth= 1.
 IRaf=       0 NMat= 272 IRICut=     340 DoRegI=T DoRafI=T ISym2E=-1 JSym2E=1.
 MP4(D)= -0.14912184D-01
 MP4(S)= -0.65153762D-02
 MP4(R+Q)=  0.15513536D-01
 IPart=  2 IA=   10   10.34% done.
 IPart=  2 IA=   19   20.11% done.
 IPart=  2 IA=   29   30.31% done.
 IPart=  1 IA=   40   40.72% done.
 IPart=  2 IA=   51   50.30% done.
 IPart=  2 IA=   64   60.52% done.
 IPart=  2 IA=   78   70.22% done.
 IPart=  1 IA=   95   80.16% done.
 IPart=  1 IA=  117   90.04% done.
 Time for triples=      453.86 seconds.
 MP4(T)=   -0.30659820D-01
 E3=       -0.11262700D-01        EUMP3=      -0.29036426084D+04
 E4(DQ)=    0.60135279D-03        UMP4(DQ)=   -0.29036420071D+04
 E4(SDQ)=  -0.59140234D-02        UMP4(SDQ)=  -0.29036485224D+04
 E4(SDTQ)= -0.36573843D-01        UMP4(SDTQ)= -0.29036791823D+04
 VARIATIONAL ENERGIES WITH THE FIRST-ORDER WAVEFUNCTION:
 E(VAR1)=  -0.29035175675D+04     E(CISD,4)=  -0.29035168764D+04
 Largest amplitude= 4.65D-02
 Leave Link  913 at Thu Nov 14 09:36:11 2019, MaxMem=  268435456 cpu:     481.8
 (Enter /home/matheus/.gaussian/g09/l108.exe)
 Variable Step   Value    
 -------- ---- -----------
     1       3    6.236096
 Leave Link  108 at Thu Nov 14 09:36:11 2019, MaxMem=  268435456 cpu:       0.0
 (Enter /home/matheus/.gaussian/g09/l202.exe)
 ---------------------------------------------------------------------------------------------------
                            Z-MATRIX (ANGSTROMS AND DEGREES)
   CD    Cent   Atom    N1       Length/X        N2       Alpha/Y        N3        Beta/Z          J
 ---------------------------------------------------------------------------------------------------
      1      1  O        0   0.000000          0.000000          0.725000
      2      2  O        0   0.000000          0.000000         -0.725000
      3      3  H        0   0.000000          0.918721          1.023510
      4      4  H        0   0.000000          0.918721         -1.023510
      5      5  Kr       0   0.000000          3.300000          0.000000
 ---------------------------------------------------------------------------------------------------
                         Z-Matrix orientation:                         
 ---------------------------------------------------------------------
 Center     Atomic      Atomic             Coordinates (Angstroms)
 Number     Number       Type             X           Y           Z
 ---------------------------------------------------------------------
      1          8           0        0.000000    0.000000    0.725000
      2          8           0        0.000000    0.000000   -0.725000
      3          1           0        0.000000    0.918721    1.023510
      4          1           0        0.000000    0.918721   -1.023510
      5         36           0        0.000000    3.300000    0.000000
 ---------------------------------------------------------------------
                    Distance matrix (angstroms):
                    1          2          3          4          5
     1  O    0.000000
     2  O    1.450000   0.000000
     3  H    0.966000   1.975180   0.000000
     4  H    1.975180   0.966000   2.047021   0.000000
     5  Kr   3.378702   3.378702   2.591923   2.591923   0.000000
 Stoichiometry    H2KrO2
 Framework group  C2V[C2(Kr),SGV(H2O2)]
 Deg. of freedom     4
 Full point group                 C2V     NOp   4
 RotChk:  IX=0 Diff= 5.64D-18
 Largest Abelian subgroup         C2V     NOp   4
 Largest concise Abelian subgroup C2      NOp   2
                         Standard orientation:                         
 ---------------------------------------------------------------------
 Center     Atomic      Atomic             Coordinates (Angstroms)
 Number     Number       Type             X           Y           Z
 ---------------------------------------------------------------------
      1          8           0        0.000000    0.725000   -2.234027
      2          8           0        0.000000   -0.725000   -2.234027
      3          1           0        0.000000    1.023510   -1.315306
      4          1           0        0.000000   -1.023510   -1.315306
      5         36           0        0.000000    0.000000    1.065973
 ---------------------------------------------------------------------
 Rotational constants (GHZ):     26.7026195      1.9702891      1.8348986
 Leave Link  202 at Thu Nov 14 09:36:11 2019, MaxMem=  268435456 cpu:       0.0
 (Enter /home/matheus/.gaussian/g09/l301.exe)
 Standard basis: Aug-CC-pVTZ (5D, 7F)
 Ernie: Thresh=  0.10000D-02 Tol=  0.10000D-05 Strict=F.
 Ernie:  38 primitive shells out of 205 were deleted.
 There are    71 symmetry adapted basis functions of A1  symmetry.
 There are    29 symmetry adapted basis functions of A2  symmetry.
 There are    37 symmetry adapted basis functions of B1  symmetry.
 There are    60 symmetry adapted basis functions of B2  symmetry.
 Integral buffers will be    131072 words long.
 Raffenetti 1 integral format.
 Two-electron integral symmetry is turned on.
   197 basis functions,   415 primitive gaussians,   229 cartesian basis functions
    27 alpha electrons       27 beta electrons
       nuclear repulsion energy       141.5805199045 Hartrees.
 IExCor=    0 DFT=F Ex=HF Corr=None ExCW=0 ScaHFX=  1.000000
 ScaDFX=  1.000000  1.000000  1.000000  1.000000 ScalE2=  1.000000  1.000000
 IRadAn=      5 IRanWt=     -1 IRanGd=            0 ICorTp=0
 NAtoms=    5 NActive=    5 NUniq=    3 SFac= 2.78D+00 NAtFMM=   60 NAOKFM=F Big=F
 Leave Link  301 at Thu Nov 14 09:36:11 2019, MaxMem=  268435456 cpu:       0.0
 (Enter /home/matheus/.gaussian/g09/l302.exe)
 NPDir=0 NMtPBC=     1 NCelOv=     1 NCel=       1 NClECP=     1 NCelD=      1
         NCelK=      1 NCelE2=     1 NClLst=     1 CellRange=     0.0.
 One-electron integrals computed using PRISM.
 One-electron integral symmetry used in STVInt
 NBasis=   197 RedAO= T  NBF=    71    29    37    60
 NBsUse=   197 1.00D-06 NBFU=    71    29    37    60
 Leave Link  302 at Thu Nov 14 09:36:12 2019, MaxMem=  268435456 cpu:       0.2
 (Enter /home/matheus/.gaussian/g09/l303.exe)
 DipDrv:  MaxL=1.
 Leave Link  303 at Thu Nov 14 09:36:12 2019, MaxMem=  268435456 cpu:       0.0
 (Enter /home/matheus/.gaussian/g09/l401.exe)
 Initial guess read from the read-write file.
 B after Tr=     0.000000    0.000000    0.000000
         Rot=    1.000000    0.000000    0.000000    0.000000 Ang=   0.00 deg.
 Guess basis will be translated and rotated to current coordinates.
 Initial guess orbital symmetries:
       Occupied  (A1) (A1) (A1) (B2) (B1) (A1) (B2) (A1) (A1) (B2)
                 (B1) (A1) (B2) (B1) (A2) (A1) (A1) (B2) (A1) (A1)
                 (B1) (A1) (B2) (B1) (A1) (B2) (A2)
       Virtual   (A1) (B2) (A1) (B1) (B2) (A1) (B2) (B1) (A1) (B2)
                 (A1) (A2) (A1) (B1) (A1) (A2) (B2) (B2) (A1) (B2)
                 (A1) (B1) (A2) (A1) (B2) (B2) (B2) (A1) (B1) (A1)
                 (A1) (B2) (B1) (A1) (B2) (B1) (A1) (A2) (B1) (B2)
                 (A1) (A2) (A1) (A2) (A1) (B2) (B2) (B1) (A1) (B1)
                 (A2) (A1) (B2) (B2) (B1) (A1) (A1) (B2) (B1) (A2)
                 (B2) (A2) (A1) (A1) (B2) (B2) (A1) (B1) (A2) (B2)
                 (B1) (A1) (A2) (B2) (A1) (A1) (B2) (B1) (A1) (B2)
                 (B1) (A1) (A1) (A2) (B1) (A1) (B1) (B2) (B2) (A2)
                 (A1) (B2) (A1) (A2) (A1) (B1) (B2) (A1) (B1) (B2)
                 (B1) (B2) (A2) (A1) (B1) (B2) (A1) (B2) (B1) (A2)
                 (A1) (A2) (B2) (A1) (A1) (B2) (A2) (B2) (B2) (A1)
                 (B2) (B1) (B1) (B1) (A2) (A1) (A2) (B2) (A1) (A1)
                 (A2) (A1) (B2) (A1) (B2) (A1) (B1) (A1) (B2) (A2)
                 (B2) (B2) (A1) (B1) (B2) (A1) (B1) (A1) (A2) (B2)
                 (A1) (B1) (A2) (B1) (A1) (B2) (B1) (A2) (A2) (A1)
                 (B2) (A2) (A1) (B2) (B2) (A1) (B2) (B2) (A1) (B2)
 The electronic state of the initial guess is 1-A1.
 Generating alternative initial guess.
 Harris functional with IExCor=  205 diagonalized for initial guess.
 ExpMin= 2.53D-02 ExpMax= 1.17D+07 ExpMxC= 1.33D+04 IAcc=3 IRadAn=         5 AccDes= 0.00D+00
 HarFok:  IExCor=  205 AccDes= 0.00D+00 IRadAn=         5 IDoV= 1
 ScaDFX=  1.000000  1.000000  1.000000  1.000000
 FoFCou: FMM=F IPFlag=           0 FMFlag=      100000 FMFlg1=           0
         NFxFlg=           0 DoJE=T BraDBF=F KetDBF=T FulRan=T
         Omega=  0.000000  0.000000  1.000000  0.000000  0.000000 ICntrl=     500 IOpCl=  0
         NMat0=    1 NMatS0=    1 NMatT0=    0 NMatD0=    1 NMtDS0=    0 NMtDT0=    0
         I1Cent=           4 NGrid=           0.
 Petite list used in FoFCou.
 Harris En= -2901.92812157550    
 Leave Link  401 at Thu Nov 14 09:36:12 2019, MaxMem=  268435456 cpu:       0.6
 (Enter /home/matheus/.gaussian/g09/l502.exe)
 Closed shell SCF:
 Requested convergence on RMS density matrix=1.00D-08 within 128 cycles.
 Requested convergence on MAX density matrix=1.00D-06.
 Requested convergence on             energy=1.00D-06.
 No special actions if energy rises.
 Using DIIS extrapolation, IDIIS=  1040.
 Integral symmetry usage will be decided dynamically.
 IEnd=      178881 IEndB=      178881 NGot=   268435456 MDV=   268325886
 LenX=   268325886 LenY=   268273004
 Fock matrices will be formed incrementally for  20 cycles.

 Cycle   1  Pass 0  IDiag  1:
 FoFCou: FMM=F IPFlag=           0 FMFlag=      100000 FMFlg1=           0
         NFxFlg=           0 DoJE=F BraDBF=F KetDBF=F FulRan=T
         Omega=  0.000000  0.000000  1.000000  0.000000  0.000000 ICntrl=       0 IOpCl=  0
         NMat0=    1 NMatS0=    1 NMatT0=    0 NMatD0=    1 NMtDS0=    0 NMtDT0=    0
         I1Cent=           0 NGrid=           0.
 Petite list used in FoFCou.
 E= -2902.87611557375    
 DIIS: error= 5.68D-04 at cycle   1 NSaved=   1.
 NSaved= 1 IEnMin= 1 EnMin= -2902.87611557375     IErMin= 1 ErrMin= 5.68D-04
 ErrMax= 5.68D-04 EMaxC= 1.00D-01 BMatC= 6.16D-05 BMatP= 6.16D-05
 IDIUse=3 WtCom= 9.94D-01 WtEn= 5.68D-03
 Coeff-Com:  0.100D+01
 Coeff-En:   0.100D+01
 Coeff:      0.100D+01
 Gap=     0.495 Goal=   None    Shift=    0.000
 RMSDP=5.94D-05 MaxDP=1.55D-03              OVMax= 3.06D-03

 Cycle   2  Pass 0  IDiag  1:
 RMSU=  4.20D-05    CP:  1.00D+00
 E= -2902.87618813873     Delta-E=       -0.000072564980 Rises=F Damp=F
 DIIS: error= 1.05D-04 at cycle   2 NSaved=   2.
 NSaved= 2 IEnMin= 2 EnMin= -2902.87618813873     IErMin= 2 ErrMin= 1.05D-04
 ErrMax= 1.05D-04 EMaxC= 1.00D-01 BMatC= 1.70D-06 BMatP= 6.16D-05
 IDIUse=3 WtCom= 9.99D-01 WtEn= 1.05D-03
 Coeff-Com: -0.945D-01 0.109D+01
 Coeff-En:   0.000D+00 0.100D+01
 Coeff:     -0.944D-01 0.109D+01
 Gap=     0.493 Goal=   None    Shift=    0.000
 RMSDP=1.11D-05 MaxDP=3.40D-04 DE=-7.26D-05 OVMax= 7.03D-04

 Cycle   3  Pass 0  IDiag  1:
 RMSU=  5.25D-06    CP:  1.00D+00  1.14D+00
 E= -2902.87619095414     Delta-E=       -0.000002815417 Rises=F Damp=F
 DIIS: error= 3.31D-05 at cycle   3 NSaved=   3.
 NSaved= 3 IEnMin= 3 EnMin= -2902.87619095414     IErMin= 3 ErrMin= 3.31D-05
 ErrMax= 3.31D-05 EMaxC= 1.00D-01 BMatC= 1.65D-07 BMatP= 1.70D-06
 IDIUse=1 WtCom= 1.00D+00 WtEn= 0.00D+00
 Coeff-Com: -0.331D-01 0.192D+00 0.841D+00
 Coeff:     -0.331D-01 0.192D+00 0.841D+00
 Gap=     0.494 Goal=   None    Shift=    0.000
 RMSDP=2.33D-06 MaxDP=5.31D-05 DE=-2.82D-06 OVMax= 1.33D-04

 Initial convergence to 1.0D-05 achieved.  Increase integral accuracy.
 Cycle   4  Pass 1  IDiag  1:
 E= -2902.87619114715     Delta-E=       -0.000000193008 Rises=F Damp=F
 DIIS: error= 9.45D-06 at cycle   1 NSaved=   1.
 NSaved= 1 IEnMin= 1 EnMin= -2902.87619114715     IErMin= 1 ErrMin= 9.45D-06
 ErrMax= 9.45D-06 EMaxC= 1.00D-01 BMatC= 1.53D-08 BMatP= 1.53D-08
 IDIUse=1 WtCom= 1.00D+00 WtEn= 0.00D+00
 Coeff-Com:  0.100D+01
 Coeff:      0.100D+01
 Gap=     0.494 Goal=   None    Shift=    0.000
 RMSDP=2.33D-06 MaxDP=5.31D-05 DE=-1.93D-07 OVMax= 7.04D-05

 Cycle   5  Pass 1  IDiag  1:
 RMSU=  6.13D-07    CP:  1.00D+00
 E= -2902.87619117297     Delta-E=       -0.000000025821 Rises=F Damp=F
 DIIS: error= 6.46D-06 at cycle   2 NSaved=   2.
 NSaved= 2 IEnMin= 2 EnMin= -2902.87619117297     IErMin= 2 ErrMin= 6.46D-06
 ErrMax= 6.46D-06 EMaxC= 1.00D-01 BMatC= 3.70D-09 BMatP= 1.53D-08
 IDIUse=1 WtCom= 1.00D+00 WtEn= 0.00D+00
 Coeff-Com:  0.199D+00 0.801D+00
 Coeff:      0.199D+00 0.801D+00
 Gap=     0.494 Goal=   None    Shift=    0.000
 RMSDP=2.45D-07 MaxDP=5.31D-06 DE=-2.58D-08 OVMax= 2.26D-05

 Cycle   6  Pass 1  IDiag  1:
 RMSU=  1.42D-07    CP:  1.00D+00  1.16D+00
 E= -2902.87619117775     Delta-E=       -0.000000004783 Rises=F Damp=F
 DIIS: error= 1.88D-06 at cycle   3 NSaved=   3.
[...]
 ExpMin= 2.53D-02 ExpMax= 1.17D+07 ExpMxC= 1.33D+04 IAcc=3 IRadAn=         5 AccDes= 0.00D+00
 HarFok:  IExCor=  205 AccDes= 0.00D+00 IRadAn=         5 IDoV= 1
 ScaDFX=  1.000000  1.000000  1.000000  1.000000
 FoFCou: FMM=F IPFlag=           0 FMFlag=      100000 FMFlg1=           0
         NFxFlg=           0 DoJE=T BraDBF=F KetDBF=T FulRan=T
         Omega=  0.000000  0.000000  1.000000  0.000000  0.000000 ICntrl=     500 IOpCl=  0
         NMat0=    1 NMatS0=    1 NMatT0=    0 NMatD0=    1 NMtDS0=    0 NMtDT0=    0
         I1Cent=           4 NGrid=           0.
 Petite list used in FoFCou.
 Harris En= -2901.93022107409    
 Leave Link  401 at Thu Nov 14 13:06:05 2019, MaxMem=  268435456 cpu:       0.5
 (Enter /home/matheus/.gaussian/g09/l502.exe)
 Closed shell SCF:
 Requested convergence on RMS density matrix=1.00D-08 within 128 cycles.
 Requested convergence on MAX density matrix=1.00D-06.
 Requested convergence on             energy=1.00D-06.
 No special actions if energy rises.
 Using DIIS extrapolation, IDIIS=  1040.
 Integral symmetry usage will be decided dynamically.
 IEnd=      178881 IEndB=      178881 NGot=   268435456 MDV=   268325886
 LenX=   268325886 LenY=   268273004
 Fock matrices will be formed incrementally for  20 cycles.

 Cycle   1  Pass 0  IDiag  1:
 FoFCou: FMM=F IPFlag=           0 FMFlag=      100000 FMFlg1=           0
         NFxFlg=           0 DoJE=F BraDBF=F KetDBF=F FulRan=T
         Omega=  0.000000  0.000000  1.000000  0.000000  0.000000 ICntrl=       0 IOpCl=  0
         NMat0=    1 NMatS0=    1 NMatT0=    0 NMatD0=    1 NMtDS0=    0 NMtDT0=    0
         I1Cent=           0 NGrid=           0.
 Petite list used in FoFCou.
 E= -2902.87986782325    
 DIIS: error= 1.67D-05 at cycle   1 NSaved=   1.
 NSaved= 1 IEnMin= 1 EnMin= -2902.87986782325     IErMin= 1 ErrMin= 1.67D-05
 ErrMax= 1.67D-05 EMaxC= 1.00D-01 BMatC= 1.22D-08 BMatP= 1.22D-08
 IDIUse=1 WtCom= 1.00D+00 WtEn= 0.00D+00
 Coeff-Com:  0.100D+01
 Coeff:      0.100D+01
 Gap=     0.487 Goal=   None    Shift=    0.000
 RMSDP=5.29D-06 MaxDP=2.44D-04              OVMax= 7.23D-05

 Initial convergence to 1.0D-05 achieved.  Increase integral accuracy.
 Cycle   2  Pass 1  IDiag  1:
 E= -2902.87986783938     Delta-E=       -0.000000016123 Rises=F Damp=F
 DIIS: error= 3.27D-06 at cycle   1 NSaved=   1.
 NSaved= 1 IEnMin= 1 EnMin= -2902.87986783938     IErMin= 1 ErrMin= 3.27D-06
 ErrMax= 3.27D-06 EMaxC= 1.00D-01 BMatC= 6.25D-10 BMatP= 6.25D-10
 IDIUse=1 WtCom= 1.00D+00 WtEn= 0.00D+00
 Coeff-Com:  0.100D+01
 Coeff:      0.100D+01
 Gap=     0.487 Goal=   None    Shift=    0.000
 RMSDP=5.29D-06 MaxDP=2.44D-04 DE=-1.61D-08 OVMax= 1.32D-05

 Cycle   3  Pass 1  IDiag  1:
 RMSU=  3.24D-07    CP:  1.00D+00
 E= -2902.87986784011     Delta-E=       -0.000000000732 Rises=F Damp=F
 DIIS: error= 1.21D-06 at cycle   2 NSaved=   2.
 NSaved= 2 IEnMin= 2 EnMin= -2902.87986784011     IErMin= 2 ErrMin= 1.21D-06
 ErrMax= 1.21D-06 EMaxC= 1.00D-01 BMatC= 4.11D-11 BMatP= 6.25D-10
 IDIUse=1 WtCom= 1.00D+00 WtEn= 0.00D+00
 Coeff-Com:  0.140D+00 0.860D+00
 Coeff:      0.140D+00 0.860D+00
 Gap=     0.487 Goal=   None    Shift=    0.000
 RMSDP=4.92D-08 MaxDP=2.11D-06 DE=-7.32D-10 OVMax= 4.19D-06

 Cycle   4  Pass 1  IDiag  1:
 RMSU=  2.12D-08    CP:  1.00D+00  1.09D+00
 E= -2902.87986784018     Delta-E=       -0.000000000073 Rises=F Damp=F
 DIIS: error= 2.80D-07 at cycle   3 NSaved=   3.
 NSaved= 3 IEnMin= 3 EnMin= -2902.87986784018     IErMin= 3 ErrMin= 2.80D-07
 ErrMax= 2.80D-07 EMaxC= 1.00D-01 BMatC= 2.59D-12 BMatP= 4.11D-11
 IDIUse=1 WtCom= 1.00D+00 WtEn= 0.00D+00
 Coeff-Com: -0.829D-01-0.198D+00 0.128D+01
 Coeff:     -0.829D-01-0.198D+00 0.128D+01
 Gap=     0.487 Goal=   None    Shift=    0.000
 RMSDP=2.57D-08 MaxDP=1.54D-06 DE=-7.28D-11 OVMax= 2.28D-06

 Cycle   5  Pass 1  IDiag  1:
 RMSU=  8.67D-09    CP:  1.00D+00  1.13D+00  1.40D+00
 E= -2902.87986784019     Delta-E=       -0.000000000012 Rises=F Damp=F
 DIIS: error= 3.08D-08 at cycle   4 NSaved=   4.
 NSaved= 4 IEnMin= 4 EnMin= -2902.87986784019     IErMin= 4 ErrMin= 3.08D-08
 ErrMax= 3.08D-08 EMaxC= 1.00D-01 BMatC= 4.64D-14 BMatP= 2.59D-12
 IDIUse=1 WtCom= 1.00D+00 WtEn= 0.00D+00
 Coeff-Com:  0.183D-01 0.173D-01-0.270D+00 0.123D+01
 Coeff:      0.183D-01 0.173D-01-0.270D+00 0.123D+01
 Gap=     0.487 Goal=   None    Shift=    0.000
 RMSDP=4.28D-09 MaxDP=2.02D-07 DE=-1.18D-11 OVMax= 2.92D-07

 SCF Done:  E(RHF) =  -2902.87986784     A.U. after    5 cycles
             Convg  =    0.4275D-08             -V/T =  2.0001
 KE= 2.902595540375D+03 PE=-7.100405803579D+03 EE= 1.214993231220D+03
 Leave Link  502 at Thu Nov 14 13:06:11 2019, MaxMem=  268435456 cpu:      12.5
 (Enter /home/matheus/.gaussian/g09/l801.exe)
 Windowed orbitals will be sorted by symmetry type.
 ExpMin= 2.53D-02 ExpMax= 1.17D+07 ExpMxC= 1.33D+04 IAcc=3 IRadAn=         5 AccDes= 0.00D+00
 HarFok:  IExCor=  205 AccDes= 0.00D+00 IRadAn=         5 IDoV=-2
 ScaDFX=  1.000000  1.000000  1.000000  1.000000
 DSYEVD returned Info=          89 IAlg= 4 N=    59 NDim=    59 NE2=     4547561 trying DSYEV.
 Largest valence mixing into a core orbital is  1.48D-04
 Largest core mixing into a valence orbital is  2.65D-05
 Range of M.O.s used for correlation:    12   197
 NBasis=   197 NAE=    27 NBE=    27 NFC=    11 NFV=     0
 NROrb=    186 NOA=    16 NOB=    16 NVA=   170 NVB=   170

 **** Warning!!: The largest alpha MO coefficient is  0.17412126D+02

 Leave Link  801 at Thu Nov 14 13:06:11 2019, MaxMem=  268435456 cpu:       0.3
 (Enter /home/matheus/.gaussian/g09/l804.exe)
 Closed-shell transformation, MDV=   268435456 ITran=4 ISComp=2.
 Semi-Direct transformation.
 ModeAB=           4 MOrb=            16 LenV=     267386630
 LASXX=     12259514 LTotXX=    12259514 LenRXX=    24734919
 LTotAB=    12475405 MaxLAS=    34432320 LenRXY=           0
 NonZer=    36994433 LenScr=    56254464 LnRSAI=    34432320
 LnScr1=    52416512 LExtra=           0 Total=    167838215
 MaxDsk=          -1 SrtSym=           T ITran=            4
 DoSDTr:  NPSUse=  2
 JobTyp=0 Pass  1:  I=   1 to  16.
 (rs|ai) integrals will be sorted in core.
 Complete sort for first half transformation.
 First half transformation complete.
 Begin second half transformation for I=  10.
 Complete sort for second half transformation.
 Second half transformation complete.
 Spin components of T(2) and E(2):
     alpha-alpha T2 =       0.2555259256D-01 E2=     -0.9839086934D-01
     alpha-beta  T2 =       0.1413726296D+00 E2=     -0.5526955022D+00
     beta-beta   T2 =       0.2555259256D-01 E2=     -0.9839086934D-01
 ANorm=    0.1092006325D+01
 E2 =    -0.7494772409D+00 EUMP2 =    -0.29036293450811D+04
 Leave Link  804 at Thu Nov 14 13:06:20 2019, MaxMem=  268435456 cpu:      16.6
 (Enter /home/matheus/.gaussian/g09/l913.exe)
 CIDS:  MDV=   268435456.
 Frozen-core window:  NFC=  11 NFV=   0.
 IFCWin=0 IBDFC=1 NFBD=     0     0 NFCmp=     0     0 NFFFC=     0     0
 Using DD3R+UMP44R for 1st iteration, S=T.
 Using DD4RQ for 2nd and later iterations.
 Would need an additional       431206676 words for in-memory AO integral storage.
 MP4(SDTQ)
 =========
 DD1Dir will call FoFDir   1 times, MxPair=       272
 NAB=   136 NAA=     0 NBB=     0 NumPrc=  2.
 Petite list used in FoFDir.
 MinBra= 0 MaxBra= 3 Meth= 1.
 IRaf=       0 NMat= 272 IRICut=     340 DoRegI=T DoRafI=T ISym2E=-1 JSym2E=1.
 MP4(D)= -0.14897685D-01
 MP4(S)= -0.62843802D-02
 MP4(R+Q)=  0.15031246D-01
 IPart=  2 IA=   10   10.34% done.
 IPart=  1 IA=   19   20.11% done.
 IPart=  2 IA=   29   30.31% done.
 IPart=  1 IA=   40   40.72% done.
 IPart=  2 IA=   51   50.30% done.
 IPart=  2 IA=   64   60.52% done.
 IPart=  2 IA=   78   70.22% done.
 IPart=  1 IA=   95   80.16% done.
 IPart=  1 IA=  117   90.04% done.
 Time for triples=      475.61 seconds.
 MP4(T)=   -0.29664189D-01
 E3=       -0.11998501D-01        EUMP3=      -0.29036413436D+04
 E4(DQ)=    0.13356114D-03        UMP4(DQ)=   -0.29036412100D+04
 E4(SDQ)=  -0.61508191D-02        UMP4(SDQ)=  -0.29036474944D+04
 E4(SDTQ)= -0.35815008D-01        UMP4(SDTQ)= -0.29036771586D+04
 VARIATIONAL ENERGIES WITH THE FIRST-ORDER WAVEFUNCTION:
 E(VAR1)=  -0.29035184338D+04     E(CISD,4)=  -0.29035182679D+04
 Largest amplitude= 2.81D-02
 Leave Link  913 at Thu Nov 14 13:10:31 2019, MaxMem=  268435456 cpu:     497.7
 (Enter /home/matheus/.gaussian/g09/l108.exe)
 Scan completed.

 Summary of the potential surface scan:
   N      R1          SCF          MP2          MP3         MP4DQ       MP4SDQ       MP4SDTQ  
 ----  ---------  -----------  -----------  -----------  -----------  -----------  -----------
    1     3.0000  -2902.86814  -2903.62787  -2903.63878  -2903.63798  -2903.64458  -2903.67561
    2     3.1000  -2902.87177  -2903.63002  -2903.64113  -2903.64044  -2903.64699  -2903.67782
    3     3.2000  -2902.87436  -2903.63135  -2903.64261  -2903.64201  -2903.64852  -2903.67918
    4     3.3000  -2902.87619  -2903.63209  -2903.64348  -2903.64295  -2903.64943  -2903.67995
    5     3.4000  -2902.87747  -2903.63243  -2903.64392  -2903.64346  -2903.64992  -2903.68030
    6     3.5000  -2902.87836  -2903.63252  -2903.64408  -2903.64368  -2903.65011  -2903.68039
    7     3.6000  -2902.87897  -2903.63243  -2903.64406  -2903.64370  -2903.65011  -2903.68030
    8     3.7000  -2902.87938  -2903.63225  -2903.64393  -2903.64361  -2903.65000  -2903.68011
    9     3.8000  -2902.87965  -2903.63201  -2903.64374  -2903.64345  -2903.64983  -2903.67987
   10     3.9000  -2902.87983  -2903.63176  -2903.64353  -2903.64326  -2903.64963  -2903.67961
   11     4.0000  -2902.87993  -2903.63151  -2903.64331  -2903.64307  -2903.64942  -2903.67936
   12     4.1000  -2902.88000  -2903.63127  -2903.64310  -2903.64288  -2903.64922  -2903.67911
   13     4.2000  -2902.88003  -2903.63106  -2903.64290  -2903.64270  -2903.64903  -2903.67889
   14     4.3000  -2902.88005  -2903.63086  -2903.64273  -2903.64253  -2903.64886  -2903.67869
   15     4.4000  -2902.88005  -2903.63069  -2903.64257  -2903.64238  -2903.64871  -2903.67851
   16     4.5000  -2902.88005  -2903.63053  -2903.64243  -2903.64225  -2903.64857  -2903.67836
   17     4.6000  -2902.88004  -2903.63040  -2903.64231  -2903.64214  -2903.64845  -2903.67822
   18     4.7000  -2902.88002  -2903.63028  -2903.64220  -2903.64203  -2903.64834  -2903.67809
   19     4.8000  -2902.88001  -2903.63017  -2903.64210  -2903.64194  -2903.64824  -2903.67799
   20     4.9000  -2902.88000  -2903.63008  -2903.64201  -2903.64186  -2903.64816  -2903.67789
   21     5.0000  -2902.87999  -2903.62999  -2903.64194  -2903.64179  -2903.64808  -2903.67781
   22     5.1000  -2902.87998  -2903.62992  -2903.64187  -2903.64172  -2903.64802  -2903.67773
   23     5.2000  -2902.87996  -2903.62986  -2903.64181  -2903.64166  -2903.64796  -2903.67767
   24     5.3000  -2902.87995  -2903.62980  -2903.64176  -2903.64161  -2903.64791  -2903.67761
   25     5.4000  -2902.87995  -2903.62975  -2903.64171  -2903.64157  -2903.64786  -2903.67756
   26     5.5000  -2902.87994  -2903.62970  -2903.64167  -2903.64153  -2903.64782  -2903.67751
   27     5.6000  -2902.87993  -2903.62966  -2903.64163  -2903.64149  -2903.64778  -2903.67747
   28     5.7000  -2902.87992  -2903.62962  -2903.64160  -2903.64146  -2903.64775  -2903.67743
   29     5.8000  -2902.87992  -2903.62959  -2903.64157  -2903.64143  -2903.64772  -2903.67740
   30     5.9000  -2902.87991  -2903.62956  -2903.64154  -2903.64140  -2903.64769  -2903.67737
   31     6.0000  -2902.87991  -2903.62953  -2903.64151  -2903.64138  -2903.64766  -2903.67734
   32     6.1000  -2902.87990  -2903.62951  -2903.64149  -2903.64136  -2903.64764  -2903.67732
   33     6.2000  -2902.87990  -2903.62949  -2903.64147  -2903.64134  -2903.64762  -2903.67730
   34     6.3000  -2902.87989  -2903.62947  -2903.64146  -2903.64132  -2903.64761  -2903.67728
   35     6.4000  -2902.87989  -2903.62945  -2903.64144  -2903.64131  -2903.64759  -2903.67727
   36     6.5000  -2902.87989  -2903.62944  -2903.64143  -2903.64129  -2903.64758  -2903.67725
   37     6.6000  -2902.87989  -2903.62943  -2903.64142  -2903.64128  -2903.64757  -2903.67724
   38     6.7000  -2902.87988  -2903.62941  -2903.64141  -2903.64127  -2903.64756  -2903.67723
   39     6.8000  -2902.87988  -2903.62940  -2903.64140  -2903.64126  -2903.64755  -2903.67722
   40     6.9000  -2902.87988  -2903.62940  -2903.64139  -2903.64126  -2903.64754  -2903.67721
   41     7.0000  -2902.87988  -2903.62939  -2903.64138  -2903.64125  -2903.64753  -2903.67720
   42     7.1000  -2902.87988  -2903.62938  -2903.64138  -2903.64124  -2903.64753  -2903.67720
   43     7.2000  -2902.87987  -2903.62938  -2903.64137  -2903.64124  -2903.64752  -2903.67719
   44     7.3000  -2902.87987  -2903.62937  -2903.64137  -2903.64123  -2903.64752  -2903.67718
   45     7.4000  -2902.87987  -2903.62937  -2903.64136  -2903.64123  -2903.64751  -2903.67718
   46     7.5000  -2902.87987  -2903.62936  -2903.64136  -2903.64122  -2903.64751  -2903.67717
   47     7.6000  -2902.87987  -2903.62936  -2903.64135  -2903.64122  -2903.64751  -2903.67717
   48     7.7000  -2902.87987  -2903.62935  -2903.64135  -2903.64122  -2903.64750  -2903.67717
   49     7.8000  -2902.87987  -2903.62935  -2903.64135  -2903.64121  -2903.64750  -2903.67716
   50     7.9000  -2902.87987  -2903.62935  -2903.64135  -2903.64121  -2903.64750  -2903.67716
   51     8.0000  -2902.87987  -2903.62935  -2903.64134  -2903.64121  -2903.64749  -2903.67716
 ----  ---------  -----------  -----------  -----------  -----------  -----------  -----------
  
 Leave Link  108 at Thu Nov 14 13:10:31 2019, MaxMem=  268435456 cpu:       0.0
 (Enter /home/matheus/.gaussian/g09/l9999.exe)
 1\1\GINC-REDGIANT\Scan\RMP4SDTQ-FC\Aug-CC-pVTZ\H2Kr1O2\MATHEUS\14-Nov-
 2019\1\\#p mp4/aug-cc-PVTz int=ultrafine Scan\\PTCC\\0,1\O,0,0.,0.,0.7
 25\O,0,0.,0.,-0.725\H,0,0.,0.9187205947,1.0235104166\H,0,0.,0.91872059
 47,-1.0235104166\Kr,0,0.,R1,0.\\R1=3.,s,50,0.1\\Version=EM64L-G09RevC.
 01\State=1-A1\HF=-2902.8681367,-2902.8717708,-2902.8743604,-2902.87619
 12,-2902.877474,-2902.8783634,-2902.8789723,-2902.8793825,-2902.879653
 3,-2902.8798272,-2902.8799349,-2902.879998,-2902.8800317,-2902.8800465
 ,-2902.8800495,-2902.880045,-2902.8800362,-2902.8800248,-2902.8800123,
 -2902.8799995,-2902.879987,-2902.8799753,-2902.8799644,-2902.8799545,-
 2902.8799455,-2902.8799374,-2902.8799299,-2902.8799232,-2902.879917,-2
 902.8799115,-2902.8799065,-2902.8799021,-2902.8798981,-2902.8798946,-2
 902.8798914,-2902.8798885,-2902.879886,-2902.8798836,-2902.8798815,-29
 02.8798796,-2902.8798778,-2902.8798762,-2902.8798748,-2902.8798735,-29
 02.8798724,-2902.8798714,-2902.8798705,-2902.8798698,-2902.879869,-290
 2.8798684,-2902.8798678\MP2=-2903.6278749,-2903.6300244,-2903.6313457,
 -2903.6320879,-2903.6324332,-2903.632515,-2903.6324299,-2903.6322466,-
 2903.632013,-2903.6317608,-2903.6315103,-2903.6312733,-2903.6310559,-2
 903.6308601,-2903.6306858,-2903.6305316,-2903.6303953,-2903.6302751,-2
 903.630169,-2903.6300756,-2903.6299932,-2903.6299205,-2903.6298561,-29
 03.6297987,-2903.6297475,-2903.6297014,-2903.6296599,-2903.6296225,-29
 03.6295889,-2903.6295588,-2903.6295319,-2903.6295081,-2903.629487,-290
 3.6294685,-2903.6294522,-2903.6294379,-2903.6294254,-2903.6294144,-290
 3.6294047,-2903.6293961,-2903.6293885,-2903.6293818,-2903.6293758,-290
 3.6293704,-2903.6293656,-2903.6293613,-2903.6293574,-2903.6293539,-290
 3.6293507,-2903.6293477,-2903.6293451\MP3=-2903.6387753,-2903.6411278,
 -2903.6426084,-2903.6434761,-2903.6439211,-2903.6440828,-2903.6440627,
 -2903.6439329,-2903.6437437,-2903.6435288,-2903.6433097,-2903.6430993,
 -2903.6429043,-2903.6427277,-2903.6425698,-2903.6424295,-2903.6423053,
 -2903.6421955,-2903.6420985,-2903.6420129,-2903.6419374,-2903.6418708,
 -2903.6418117,-2903.6417592,-2903.6417122,-2903.64167,-2903.641632,-29
 03.6415978,-2903.6415669,-2903.6415393,-2903.6415147,-2903.6414929,-29
 03.6414736,-2903.6414566,-2903.6414417,-2903.6414286,-2903.6414171,-29
 03.641407,-2903.6413981,-2903.6413903,-2903.6413833,-2903.6413771,-290
 3.6413716,-2903.6413667,-2903.6413623,-2903.6413583,-2903.6413548,-290
 3.6413516,-2903.6413487,-2903.641346,-2903.6413436\MP4D=-2903.6536871,
 -2903.6560397,-2903.6575206,-2903.6583882,-2903.6588326,-2903.6589935,
 -2903.6589723,-2903.6588414,-2903.6586512,-2903.6584353,-2903.6582154,
 -2903.6580043,-2903.6578088,-2903.6576317,-2903.6574732,-2903.6573325,
 -2903.6572078,-2903.6570975,-2903.6570001,-2903.6569142,-2903.6568383,
 -2903.6567713,-2903.656712,-2903.6566592,-2903.6566119,-2903.6565695,-
 2903.6565312,-2903.6564968,-2903.6564658,-2903.656438,-2903.6564133,-2
 903.6563913,-2903.6563719,-2903.6563549,-2903.6563399,-2903.6563267,-2
 903.6563152,-2903.656305,-2903.6562961,-2903.6562882,-2903.6562812,-29
 03.6562749,-2903.6562694,-2903.6562645,-2903.6562601,-2903.6562561,-29
 03.6562525,-2903.6562493,-2903.6562464,-2903.6562437,-2903.6562413\MP4
 DQ=-2903.6379811,-2903.6404373,-2903.6420071,-2903.6429507,-2903.64346
 ,-2903.643676,-2903.6437015,-2903.64361,-2903.6434528,-2903.6432647,-2
 903.6430679,-2903.6428759,-2903.6426963,-2903.6425323,-2903.6423848,-2
 903.642253,-2903.6421357,-2903.6420316,-2903.6419393,-2903.6418576,-29
 03.6417853,-2903.6417213,-2903.6416645,-2903.6416138,-2903.6415685,-29
 03.6415276,-2903.6414908,-2903.6414575,-2903.6414276,-2903.6414007,-29
 03.6413767,-2903.6413554,-2903.6413366,-2903.6413201,-2903.6413055,-29
 03.6412928,-2903.6412816,-2903.6412717,-2903.6412631,-2903.6412554,-29
 03.6412486,-2903.6412426,-2903.6412373,-2903.6412325,-2903.6412282,-29
 03.6412244,-2903.6412209,-2903.6412178,-2903.641215,-2903.6412124,-290
 3.64121\MP4SDQ=-2903.6445765,-2903.6469895,-2903.6485224,-2903.6494344
 ,-2903.6499164,-2903.6501088,-2903.6501137,-2903.6500044,-2903.6498317
 ,-2903.6496302,-2903.6494218,-2903.6492199,-2903.6490317,-2903.6488604
 ,-2903.6487065,-2903.6485694,-2903.6484476,-2903.6483396,-2903.6482441
 ,-2903.6481595,-2903.6480849,-2903.6480188,-2903.6479603,-2903.6479081
 ,-2903.6478615,-2903.6478195,-2903.6477817,-2903.6477476,-2903.6477169
 ,-2903.6476894,-2903.6476649,-2903.6476431,-2903.6476239,-2903.647607,
 -2903.6475921,-2903.6475791,-2903.6475676,-2903.6475575,-2903.6475487,
 -2903.6475408,-2903.6475339,-2903.6475277,-2903.6475223,-2903.6475174,
 -2903.647513,-2903.6475091,-2903.6475055,-2903.6475023,-2903.6474994,-
 2903.6474968,-2903.6474944\MP4SDTQ=-2903.6756121,-2903.6778222,-2903.6
 791823,-2903.6799467,-2903.6803026,-2903.680387,-2903.6802997,-2903.68
 01116,-2903.6798721,-2903.6796137,-2903.6793573,-2903.6791148,-2903.67
 88924,-2903.6786922,-2903.6785141,-2903.6783565,-2903.6782174,-2903.67
 80949,-2903.6779869,-2903.6778919,-2903.6778083,-2903.6777346,-2903.67
 76695,-2903.6776116,-2903.67756,-2903.6775137,-2903.6774721,-2903.6774
 347,-2903.6774011,-2903.6773711,-2903.6773444,-2903.6773207,-2903.6772
 997,-2903.6772813,-2903.6772652,-2903.677251,-2903.6772385,-2903.67722
 76,-2903.6772179,-2903.6772094,-2903.6772018,-2903.6771951,-2903.67718
 91,-2903.6771838,-2903.677179,-2903.6771747,-2903.6771708,-2903.677167
 3,-2903.6771641,-2903.6771612,-2903.6771586\RMSD=5.107e-09,6.283e-09,3
 .962e-09,6.051e-09,2.390e-09,2.569e-09,8.340e-09,6.914e-09,5.805e-09,4
 .962e-09,4.332e-09,3.838e-09,3.387e-09,2.923e-09,8.692e-09,6.895e-09,5
 .397e-09,8.782e-09,7.426e-09,6.331e-09,5.472e-09,4.790e-09,4.248e-09,3
 .833e-09,4.349e-09,4.129e-09,3.904e-09,3.061e-09,2.872e-09,2.632e-09,2
 .373e-09,2.131e-09,1.941e-09,1.832e-09,8.300e-09,7.352e-09,7.053e-09,7
 .360e-09,7.940e-09,8.491e-09,8.850e-09,8.972e-09,8.865e-09,8.571e-09,8
 .129e-09,7.578e-09,6.953e-09,6.285e-09,5.598e-09,4.920e-09,4.275e-09\P
 G=C02V [C2(Kr1),SGV(H2O2)]\\@


 IF GOD HAD MEANT MAN TO SEE THE SUN RISE, HE
 WOULD HAVE SCHEDULED IT FOR A LATER HOUR.
 Job cpu time:  0 days  7 hours 33 minutes 45.2 seconds.
 File lengths (MBytes):  RWF=   1494 Int=      0 D2E=      0 Chk=      4 Scr=      1
 Normal termination of Gaussian 09 at Thu Nov 14 13:10:31 2019.
