 Entering Gaussian System, Link 0=g09
 Input=/home/matheus/.tcc/Inputs/Inputs-wb97xd-default/H2O2-Kr_1.com
 Output=/home/matheus/.tcc/Logs/Logs-wb97xd-default/H2O2-Kr_1.log
 Initial command:
 /home/matheus/.gaussian/g09/l1.exe /home/matheus/.gaussian/g09/scratch/Gau-17439.inp -scrdir=/home/matheus/.gaussian/g09/scratch/
 Entering Link 1 = /home/matheus/.gaussian/g09/l1.exe PID=     17443.
  
 Copyright (c) 1988,1990,1992,1993,1995,1998,2003,2009,2011,
            Gaussian, Inc.  All Rights Reserved.
  
 This is part of the Gaussian(R) 09 program.  It is based on
 the Gaussian(R) 03 system (copyright 2003, Gaussian, Inc.),
 the Gaussian(R) 98 system (copyright 1998, Gaussian, Inc.),
 the Gaussian(R) 94 system (copyright 1995, Gaussian, Inc.),
 the Gaussian 92(TM) system (copyright 1992, Gaussian, Inc.),
 the Gaussian 90(TM) system (copyright 1990, Gaussian, Inc.),
 the Gaussian 88(TM) system (copyright 1988, Gaussian, Inc.),
 the Gaussian 86(TM) system (copyright 1986, Carnegie Mellon
 University), and the Gaussian 82(TM) system (copyright 1983,
 Carnegie Mellon University). Gaussian is a federally registered
 trademark of Gaussian, Inc.
  
 This software contains proprietary and confidential information,
 including trade secrets, belonging to Gaussian, Inc.
  
 This software is provided under written license and may be
 used, copied, transmitted, or stored only in accord with that
 written license.
  
 The following legend is applicable only to US Government
 contracts under FAR:
  
                    RESTRICTED RIGHTS LEGEND
  
 Use, reproduction and disclosure by the US Government is
 subject to restrictions as set forth in subparagraphs (a)
 and (c) of the Commercial Computer Software - Restricted
 Rights clause in FAR 52.227-19.
  
 Gaussian, Inc.
 340 Quinnipiac St., Bldg. 40, Wallingford CT 06492
  
  
 ---------------------------------------------------------------
 Warning -- This program may not be used in any manner that
 competes with the business of Gaussian, Inc. or will provide
 assistance to any competitor of Gaussian, Inc.  The licensee
 of this program is prohibited from giving any competitor of
 Gaussian, Inc. access to this program.  By using this program,
 the user acknowledges that Gaussian, Inc. is engaged in the
 business of creating and licensing software in the field of
 computational chemistry and represents and warrants to the
 licensee that it is not a competitor of Gaussian, Inc. and that
 it will not use this program in any manner prohibited above.
 ---------------------------------------------------------------
  

 Cite this work as:
 Gaussian 09, Revision C.01,
 M. J. Frisch, G. W. Trucks, H. B. Schlegel, G. E. Scuseria, 
 M. A. Robb, J. R. Cheeseman, G. Scalmani, V. Barone, B. Mennucci, 
 G. A. Petersson, H. Nakatsuji, M. Caricato, X. Li, H. P. Hratchian, 
 A. F. Izmaylov, J. Bloino, G. Zheng, J. L. Sonnenberg, M. Hada, 
 M. Ehara, K. Toyota, R. Fukuda, J. Hasegawa, M. Ishida, T. Nakajima, 
 Y. Honda, O. Kitao, H. Nakai, T. Vreven, J. A. Montgomery, Jr., 
 J. E. Peralta, F. Ogliaro, M. Bearpark, J. J. Heyd, E. Brothers, 
 K. N. Kudin, V. N. Staroverov, T. Keith, R. Kobayashi, J. Normand, 
 K. Raghavachari, A. Rendell, J. C. Burant, S. S. Iyengar, J. Tomasi, 
 M. Cossi, N. Rega, J. M. Millam, M. Klene, J. E. Knox, J. B. Cross, 
 V. Bakken, C. Adamo, J. Jaramillo, R. Gomperts, R. E. Stratmann, 
 O. Yazyev, A. J. Austin, R. Cammi, C. Pomelli, J. W. Ochterski, 
 R. L. Martin, K. Morokuma, V. G. Zakrzewski, G. A. Voth, 
 P. Salvador, J. J. Dannenberg, S. Dapprich, A. D. Daniels, 
 O. Farkas, J. B. Foresman, J. V. Ortiz, J. Cioslowski, 
 and D. J. Fox, Gaussian, Inc., Wallingford CT, 2010.
 
 ******************************************
 Gaussian 09:  EM64L-G09RevC.01 23-Sep-2011
                 9-May-2020 
 ******************************************
 %mem=8GB
 %nproc=8
 Will use up to    8 processors via shared memory.
 -------------------------------------------------------
 #p wb97xd/aug-cc-PVTz int=ultrafine counterpoise=2 Scan
 -------------------------------------------------------
 1/38=1,60=1,62=2/1,8;
 2/12=2,17=6,18=5,29=3,40=1/2;
 1/38=1,53=5172,62=2/22;
 3/5=16,6=1,7=10,11=2,16=1,25=1,30=1,74=-58,75=-5/1,2,3;
 4//1;
 5/5=2,38=5/2;
 6/7=2,8=2,9=2,10=2,18=1,28=1/1;
 1/53=4052,62=2,63=1/22;
 3/5=7,6=11,7=10,11=2,16=1,25=1,30=1,74=-58,75=-5,82=7/1,2,3;
 4//1;
 5/5=2,38=5/2;
 6/7=2,8=2,9=2,10=2,18=1,28=1/1;
 1/53=3042,62=2,63=2/22;
 3/5=7,6=11,7=10,11=2,16=1,25=1,30=1,74=-58,75=-5,82=7/1,2,3;
 4//1;
 5/5=2,38=5/2;
 6/7=2,8=2,9=2,10=2,18=1,28=1/1;
 1/53=2032,62=2,63=3/22;
 3/5=7,6=11,7=10,11=2,16=1,25=1,30=1,74=-58,75=-5,82=7/1,2,3;
 4//1;
 5/5=2,38=5/2;
 6/7=2,8=2,9=2,10=2,18=1,28=1/1;
 1/53=1022,62=2,63=4/22;
 3/5=7,6=11,7=10,11=2,16=1,25=1,30=1,74=-58,75=-5,82=7/1,2,3;
 4//1;
 5/5=2,38=5/2;
 6/7=2,8=2,9=2,10=2,18=1,28=1/1;
 1/53=5014,62=2,63=5/22;
 1/60=1,62=2/8(1);
 99/9=1/99;
 2/29=3/2;
 1/53=5173,62=2/22;
 3/5=7,6=11,7=10,11=2,16=1,25=1,30=1,74=-58,75=-5,82=7/1,2,3;
 4/5=5,16=3/1;
 5/5=2,38=5/2;
 1/53=4053,62=2,63=1/22;
 3/5=7,6=11,7=10,11=2,16=1,25=1,30=1,74=-58,75=-5,82=7/1,2,3;
 4/5=5,16=3/1;
 5/5=2,38=5/2;
 1/53=3043,62=2,63=2/22;
 3/5=7,6=11,7=10,11=2,16=1,25=1,30=1,74=-58,75=-5,82=7/1,2,3;
 4/5=5,16=3/1;
 5/5=2,38=5/2;
 1/53=2033,62=2,63=3/22;
 3/5=7,6=11,7=10,11=2,16=1,25=1,30=1,74=-58,75=-5,82=7/1,2,3;
 4/5=5,16=3/1;
 5/5=2,38=5/2;
 1/53=1024,62=2,63=4/22;
 3/5=7,6=11,7=10,11=2,16=1,25=1,30=1,74=-58,75=-5,82=7/1,2,3;
 4/5=5,16=3/1;
 5/5=2,38=5/2;
 1/53=5014,62=2,63=5/22;
 1/60=1,62=2/8(-22);
 99/9=1/99;
 Leave Link    1 at Sat May  9 15:27:04 2020, MaxMem= 1073741824 cpu:       0.1
 (Enter /home/matheus/.gaussian/g09/l101.exe)
 ---
 TCC
 ---
 Charge =  0 Multiplicity = 1 in supermolecule
 Charge =  0 Multiplicity = 1 in fragment  1.
 Charge =  0 Multiplicity = 1 in fragment  2.
 Symbolic Z-Matrix:
 O(Fragment=1)         0.        0.        0.725 
 O(Fragment=1)         0.        0.       -0.725 
 H(Fragment=1)         0.15953   0.90476   1.02351 
 H(Fragment=1)         0.        0.91872  -1.02351 
 Kr(Fragment=2)        0.       R1        0. 
       Variables:
  R1                    3.     Scan 20    0.1    
 
 NAtoms=      5 NQM=        0 NQMF=       0 NMMI=      5 NMMIF=      0
                NMic=       0 NMicF=      0.
                    Isotopes and Nuclear Properties:
 (Nuclear quadrupole moments (NQMom) in fm**2, nuclear magnetic moments (NMagM)
  in nuclear magnetons)

  Atom         1           2           3           4           5
 IAtWgt=          16          16           1           1          84
 AtmWgt=  15.9949146  15.9949146   1.0078250   1.0078250  83.9115064
 NucSpn=           0           0           1           1           0
 AtZEff=   0.0000000   0.0000000   0.0000000   0.0000000   0.0000000
 NQMom=    0.0000000   0.0000000   0.0000000   0.0000000   0.0000000
 NMagM=    0.0000000   0.0000000   2.7928460   2.7928460   0.0000000
 Leave Link  101 at Sat May  9 15:27:04 2020, MaxMem= 1073741824 cpu:       0.4
 (Enter /home/matheus/.gaussian/g09/l108.exe)
 Scan the potential surface.
 Variable   Value     No. Steps Step-Size
 -------- ----------- --------- ---------
     1       3.000000      20      0.1000
 A total of     21 points will be computed.
 Leave Link  108 at Sat May  9 15:27:04 2020, MaxMem= 1073741824 cpu:       0.0
 (Enter /home/matheus/.gaussian/g09/l202.exe)
 ---------------------------------------------------------------------------------------------------
                            Z-MATRIX (ANGSTROMS AND DEGREES)
   CD    Cent   Atom    N1       Length/X        N2       Alpha/Y        N3        Beta/Z          J
 ---------------------------------------------------------------------------------------------------
      1      1  O        0   0.000000          0.000000          0.725000
      2      2  O        0   0.000000          0.000000         -0.725000
      3      3  H        0   0.159534          0.904763          1.023510
      4      4  H        0   0.000000          0.918721         -1.023510
      5      5  Kr       0   0.000000          3.000000          0.000000
 ---------------------------------------------------------------------------------------------------
                         Z-Matrix orientation:                         
 ---------------------------------------------------------------------
 Center     Atomic      Atomic             Coordinates (Angstroms)
 Number     Number       Type             X           Y           Z
 ---------------------------------------------------------------------
      1          8           0        0.000000    0.000000    0.725000
      2          8           0        0.000000    0.000000   -0.725000
      3          1           0        0.159534    0.904763    1.023510
      4          1           0        0.000000    0.918721   -1.023510
      5         36           0        0.000000    3.000000    0.000000
 ---------------------------------------------------------------------
                    Distance matrix (angstroms):
                    1          2          3          4          5
     1  O    0.000000
     2  O    1.450000   0.000000
     3  H    0.966000   1.975180   0.000000
     4  H    1.975180   0.966000   2.053275   0.000000
     5  Kr   3.086361   3.086361   2.337315   2.319331   0.000000
 Stoichiometry    H2KrO2
 Framework group  C1[X(H2KrO2)]
 Deg. of freedom     9
 Full point group                 C1      NOp   1
 Largest Abelian subgroup         C1      NOp   1
 Largest concise Abelian subgroup C1      NOp   1
                         Standard orientation:                         
 ---------------------------------------------------------------------
 Center     Atomic      Atomic             Coordinates (Angstroms)
 Number     Number       Type             X           Y           Z
 ---------------------------------------------------------------------
      1          8           0        2.033875   -0.724487   -0.017820
      2          8           0        2.033645    0.725337    0.004759
      3          1           0        1.129442   -1.025614    0.138637
      4          1           0        1.114878    1.023640    0.011023
      5         36           0       -0.966235   -0.000134   -0.001255
 ---------------------------------------------------------------------
 Rotational constants (GHZ):     26.6670558      2.3882151      2.1923671
 Leave Link  202 at Sat May  9 15:27:04 2020, MaxMem= 1073741824 cpu:       0.0
 (Enter /home/matheus/.gaussian/g09/l122.exe)
 Leave Link  122 at Sat May  9 15:27:04 2020, MaxMem= 1073741824 cpu:       0.0
 (Enter /home/matheus/.gaussian/g09/l301.exe)
 Standard basis: Aug-CC-pVTZ (5D, 7F)
 Ernie: Thresh=  0.10000D-02 Tol=  0.10000D-05 Strict=F.
 Ernie:  38 primitive shells out of 205 were deleted.
 There are   197 symmetry adapted basis functions of A   symmetry.
 Integral buffers will be    131072 words long.
 Raffenetti 2 integral format.
 Two-electron integral symmetry is turned on.
   197 basis functions,   415 primitive gaussians,   229 cartesian basis functions
    27 alpha electrons       27 beta electrons
       nuclear repulsion energy       151.7892858201 Hartrees.
 IExCor= 4639 DFT=T Ex+Corr=wB97XD ExCW=0 ScaHFX=  1.000000
 ScaDFX=  1.000000  1.000000  1.000000  1.000000 ScalE2=  1.000000  1.000000
 IRadAn=      5 IRanWt=     -1 IRanGd=            0 ICorTp=0
  HFx wShort=  0.000000 wLong=  0.200000 cFull=  0.222036 cShort=  0.000000 cLong=  0.777964
  DFx wShort=  0.000000 wLong=  0.200000 cFull=  0.000000 cShort=  0.000000 cLong=  1.000000
 NAtoms=    5 NActive=    5 NUniq=    5 SFac= 1.00D+00 NAtFMM=   60 NAOKFM=F Big=F
 R6Disp: Dispersion energy =        -0.0007570347 Hartrees.
 Nuclear repulsion after empirical dispersion term =      151.7885287854 Hartrees.
 Leave Link  301 at Sat May  9 15:27:04 2020, MaxMem= 1073741824 cpu:       0.2
 (Enter /home/matheus/.gaussian/g09/l302.exe)
 NPDir=0 NMtPBC=     1 NCelOv=     1 NCel=       1 NClECP=     1 NCelD=      1
         NCelK=      1 NCelE2=     1 NClLst=     1 CellRange=     0.0.
 One-electron integrals computed using PRISM.
 NBasis=   197 RedAO= T  NBF=   197
 NBsUse=   197 1.00D-06 NBFU=   197
 Precomputing XC quadrature grid using
 IXCGrd= 2 IRadAn=           5 IRanWt=          -1 IRanGd=           0 AccXCQ= 0.00D+00.
 NRdTot=     427 NPtTot=      123512 NUsed=      126579 NTot=      126611
 NSgBfM=   229   229   229   229   229 NAtAll=     5     5.
 Leave Link  302 at Sat May  9 15:27:05 2020, MaxMem= 1073741824 cpu:       1.2
 (Enter /home/matheus/.gaussian/g09/l303.exe)
 DipDrv:  MaxL=1.
 Leave Link  303 at Sat May  9 15:27:05 2020, MaxMem= 1073741824 cpu:       0.2
 (Enter /home/matheus/.gaussian/g09/l401.exe)
 Harris functional with IExCor= 4639 diagonalized for initial guess.
 ExpMin= 2.53D-02 ExpMax= 1.17D+07 ExpMxC= 1.33D+04 IAcc=3 IRadAn=         5 AccDes= 0.00D+00
 HarFok:  IExCor= 4639 AccDes= 0.00D+00 IRadAn=         5 IDoV= 1
 ScaDFX=  1.000000  1.000000  1.000000  1.000000
 FoFCou: FMM=F IPFlag=           0 FMFlag=      100000 FMFlg1=           0
         NFxFlg=           0 DoJE=T BraDBF=F KetDBF=T FulRan=T
         Omega=  0.000000  0.000000  1.000000  0.000000  0.000000 ICntrl=     500 IOpCl=  0
         NMat0=    1 NMatS0=    1 NMatT0=    0 NMatD0=    1 NMtDS0=    0 NMtDT0=    0
         I1Cent=           4 NGrid=           0.
 Petite list used in FoFCou.
 Harris En= -2876.47901723065    
 Initial guess orbital symmetries:
       Occupied  (A) (A) (A) (A) (A) (A) (A) (A) (A) (A) (A) (A)
                 (A) (A) (A) (A) (A) (A) (A) (A) (A) (A) (A) (A)
                 (A) (A) (A)
       Virtual   (A) (A) (A) (A) (A) (A) (A) (A) (A) (A) (A) (A)
                 (A) (A) (A) (A) (A) (A) (A) (A) (A) (A) (A) (A)
                 (A) (A) (A) (A) (A) (A) (A) (A) (A) (A) (A) (A)
                 (A) (A) (A) (A) (A) (A) (A) (A) (A) (A) (A) (A)
                 (A) (A) (A) (A) (A) (A) (A) (A) (A) (A) (A) (A)
                 (A) (A) (A) (A) (A) (A) (A) (A) (A) (A) (A) (A)
                 (A) (A) (A) (A) (A) (A) (A) (A) (A) (A) (A) (A)
                 (A) (A) (A) (A) (A) (A) (A) (A) (A) (A) (A) (A)
                 (A) (A) (A) (A) (A) (A) (A) (A) (A) (A) (A) (A)
                 (A) (A) (A) (A) (A) (A) (A) (A) (A) (A) (A) (A)
                 (A) (A) (A) (A) (A) (A) (A) (A) (A) (A) (A) (A)
                 (A) (A) (A) (A) (A) (A) (A) (A) (A) (A) (A) (A)
                 (A) (A) (A) (A) (A) (A) (A) (A) (A) (A) (A) (A)
                 (A) (A) (A) (A) (A) (A) (A) (A) (A) (A) (A) (A)
                 (A) (A)
 The electronic state of the initial guess is 1-A.
 Leave Link  401 at Sat May  9 15:27:05 2020, MaxMem= 1073741824 cpu:       4.7
 (Enter /home/matheus/.gaussian/g09/l502.exe)
 Closed shell SCF:
 Requested convergence on RMS density matrix=1.00D-08 within 128 cycles.
 Requested convergence on MAX density matrix=1.00D-06.
 Requested convergence on             energy=1.00D-06.
 No special actions if energy rises.
 Using DIIS extrapolation, IDIIS=  1040.
 Integral symmetry usage will be decided dynamically.
       126521 words used for storage of precomputed grid.
 IEnd=      305468 IEndB=      305468 NGot=  1073741824 MDV=  1073505667
 LenX=  1073505667 LenY=  1073452785
 Fock matrices will be formed incrementally for  20 cycles.

 Cycle   1  Pass 1  IDiag  1:
 FoFJK:  IHMeth= 1 ICntrl=     0 DoSepK=T KAlg= 1 I1Cent= 0 FoldK=F
 FoFCou: FMM=F IPFlag=           0 FMFlag=      100000 FMFlg1=           0
         NFxFlg=           0 DoJE=T BraDBF=F KetDBF=F FulRan=T
         Omega=  0.000000  0.000000  1.000000  0.000000  0.000000 ICntrl=     500 IOpCl=  0
         NMat0=    1 NMatS0=    1 NMatT0=    0 NMatD0=    1 NMtDS0=    0 NMtDT0=    0
         I1Cent=           0 NGrid=           0.
 Symmetry not used in FoFCou.
 E= -2904.92091793231    
 DIIS: error= 9.63D-02 at cycle   1 NSaved=   1.
 NSaved= 1 IEnMin= 1 EnMin= -2904.92091793231     IErMin= 1 ErrMin= 9.63D-02
 ErrMax= 9.63D-02 EMaxC= 1.00D-01 BMatC= 2.20D+00 BMatP= 2.20D+00
 IDIUse=3 WtCom= 3.74D-02 WtEn= 9.63D-01
 Coeff-Com:  0.100D+01
 Coeff-En:   0.100D+01
 Coeff:      0.100D+01
 Gap=     0.484 Goal=   None    Shift=    0.000
 GapD=    0.484 DampG=2.000 DampE=0.500 DampFc=1.0000 IDamp=-1.
 RMSDP=6.49D-03 MaxDP=3.79D-01              OVMax= 1.85D-01

 Cycle   2  Pass 1  IDiag  1:
 RMSU=  4.57D-03    CP:  1.02D+00
 FoFJK:  IHMeth= 1 ICntrl=     0 DoSepK=T KAlg= 1 I1Cent= 0 FoldK=F
 E= -2905.22418074270     Delta-E=       -0.303262810395 Rises=F Damp=F
 DIIS: error= 3.72D-02 at cycle   2 NSaved=   2.
 NSaved= 2 IEnMin= 2 EnMin= -2905.22418074270     IErMin= 2 ErrMin= 3.72D-02
 ErrMax= 3.72D-02 EMaxC= 1.00D-01 BMatC= 5.65D-01 BMatP= 2.20D+00
 IDIUse=3 WtCom= 6.28D-01 WtEn= 3.72D-01
 Coeff-Com:  0.329D+00 0.671D+00
 Coeff-En:   0.205D+00 0.795D+00
 Coeff:      0.283D+00 0.717D+00
 Gap=     0.435 Goal=   None    Shift=    0.000
 RMSDP=2.85D-03 MaxDP=1.65D-01 DE=-3.03D-01 OVMax= 7.92D-02

 Cycle   3  Pass 1  IDiag  1:
 RMSU=  5.75D-04    CP:  1.01D+00  5.79D-01
 FoFJK:  IHMeth= 1 ICntrl=     0 DoSepK=T KAlg= 1 I1Cent= 0 FoldK=F
 E= -2905.41244117244     Delta-E=       -0.188260429741 Rises=F Damp=F
 DIIS: error= 8.81D-03 at cycle   3 NSaved=   3.
 NSaved= 3 IEnMin= 3 EnMin= -2905.41244117244     IErMin= 3 ErrMin= 8.81D-03
 ErrMax= 8.81D-03 EMaxC= 1.00D-01 BMatC= 2.04D-02 BMatP= 5.65D-01
 IDIUse=3 WtCom= 9.12D-01 WtEn= 8.81D-02
 Coeff-Com:  0.297D-01 0.191D+00 0.779D+00
 Coeff-En:   0.000D+00 0.000D+00 0.100D+01
 Coeff:      0.271D-01 0.174D+00 0.799D+00
 Gap=     0.399 Goal=   None    Shift=    0.000
 RMSDP=5.54D-04 MaxDP=1.77D-02 DE=-1.88D-01 OVMax= 2.57D-02

 Cycle   4  Pass 1  IDiag  1:
 RMSU=  2.47D-04    CP:  1.01D+00  6.45D-01  9.23D-01
 FoFJK:  IHMeth= 1 ICntrl=     0 DoSepK=T KAlg= 1 I1Cent= 0 FoldK=F
 E= -2905.42100314045     Delta-E=       -0.008561968004 Rises=F Damp=F
 DIIS: error= 3.62D-03 at cycle   4 NSaved=   4.
 NSaved= 4 IEnMin= 4 EnMin= -2905.42100314045     IErMin= 4 ErrMin= 3.62D-03
 ErrMax= 3.62D-03 EMaxC= 1.00D-01 BMatC= 2.03D-03 BMatP= 2.04D-02
 IDIUse=3 WtCom= 9.64D-01 WtEn= 3.62D-02
 Coeff-Com: -0.164D-02 0.566D-01 0.392D+00 0.553D+00
 Coeff-En:   0.000D+00 0.000D+00 0.000D+00 0.100D+01
 Coeff:     -0.158D-02 0.546D-01 0.377D+00 0.570D+00
 Gap=     0.382 Goal=   None    Shift=    0.000
 RMSDP=1.48D-04 MaxDP=6.43D-03 DE=-8.56D-03 OVMax= 8.29D-03

 Cycle   5  Pass 1  IDiag  1:
 RMSU=  3.85D-05    CP:  1.01D+00  6.39D-01  9.42D-01  6.28D-01
 FoFJK:  IHMeth= 1 ICntrl=     0 DoSepK=T KAlg= 1 I1Cent= 0 FoldK=F
 E= -2905.42228879792     Delta-E=       -0.001285657471 Rises=F Damp=F
 DIIS: error= 1.20D-04 at cycle   5 NSaved=   5.
 NSaved= 5 IEnMin= 5 EnMin= -2905.42228879792     IErMin= 5 ErrMin= 1.20D-04
 ErrMax= 1.20D-04 EMaxC= 1.00D-01 BMatC= 4.55D-06 BMatP= 2.03D-03
 IDIUse=3 WtCom= 9.99D-01 WtEn= 1.20D-03
 Coeff-Com: -0.695D-03-0.429D-02-0.118D-01 0.152D-01 0.100D+01
 Coeff-En:   0.000D+00 0.000D+00 0.000D+00 0.000D+00 0.100D+01
 Coeff:     -0.694D-03-0.428D-02-0.118D-01 0.152D-01 0.100D+01
 Gap=     0.382 Goal=   None    Shift=    0.000
 RMSDP=1.80D-05 MaxDP=5.40D-04 DE=-1.29D-03 OVMax= 1.02D-03

 Cycle   6  Pass 1  IDiag  1:
 RMSU=  6.57D-06    CP:  1.01D+00  6.39D-01  9.53D-01  6.44D-01  1.21D+00
 FoFJK:  IHMeth= 1 ICntrl=     0 DoSepK=T KAlg= 1 I1Cent= 0 FoldK=F
 E= -2905.42229407474     Delta-E=       -0.000005276820 Rises=F Damp=F
 DIIS: error= 4.83D-05 at cycle   6 NSaved=   6.
 NSaved= 6 IEnMin= 6 EnMin= -2905.42229407474     IErMin= 6 ErrMin= 4.83D-05
 ErrMax= 4.83D-05 EMaxC= 1.00D-01 BMatC= 3.74D-07 BMatP= 4.55D-06
 IDIUse=1 WtCom= 1.00D+00 WtEn= 0.00D+00
 Coeff-Com: -0.991D-04-0.310D-02-0.171D-01-0.176D-01 0.199D+00 0.839D+00
 Coeff:     -0.991D-04-0.310D-02-0.171D-01-0.176D-01 0.199D+00 0.839D+00
 Gap=     0.382 Goal=   None    Shift=    0.000
 RMSDP=4.22D-06 MaxDP=1.26D-04 DE=-5.28D-06 OVMax= 2.59D-04

 Cycle   7  Pass 1  IDiag  1:
 RMSU=  2.05D-06    CP:  1.01D+00  6.39D-01  9.54D-01  6.45D-01  1.26D+00
                    CP:  1.11D+00
 FoFJK:  IHMeth= 1 ICntrl=     0 DoSepK=T KAlg= 1 I1Cent= 0 FoldK=F
 E= -2905.42229444083     Delta-E=       -0.000000366089 Rises=F Damp=F
 DIIS: error= 3.29D-05 at cycle   7 NSaved=   7.
 NSaved= 7 IEnMin= 7 EnMin= -2905.42229444083     IErMin= 7 ErrMin= 3.29D-05
 ErrMax= 3.29D-05 EMaxC= 1.00D-01 BMatC= 1.71D-07 BMatP= 3.74D-07
 IDIUse=1 WtCom= 1.00D+00 WtEn= 0.00D+00
 Coeff-Com: -0.131D-05-0.131D-02-0.807D-02-0.103D-01 0.273D-01 0.435D+00
 Coeff-Com:  0.558D+00
 Coeff:     -0.131D-05-0.131D-02-0.807D-02-0.103D-01 0.273D-01 0.435D+00
 Coeff:      0.558D+00
 Gap=     0.382 Goal=   None    Shift=    0.000
 RMSDP=1.48D-06 MaxDP=6.07D-05 DE=-3.66D-07 OVMax= 1.02D-04

 Cycle   8  Pass 1  IDiag  1:
 RMSU=  8.13D-07    CP:  1.01D+00  6.39D-01  9.54D-01  6.44D-01  1.27D+00
                    CP:  1.18D+00  8.72D-01
 FoFJK:  IHMeth= 1 ICntrl=     0 DoSepK=T KAlg= 1 I1Cent= 0 FoldK=F
 E= -2905.42229456191     Delta-E=       -0.000000121086 Rises=F Damp=F
 DIIS: error= 8.10D-06 at cycle   8 NSaved=   8.
 NSaved= 8 IEnMin= 8 EnMin= -2905.42229456191     IErMin= 8 ErrMin= 8.10D-06
 ErrMax= 8.10D-06 EMaxC= 1.00D-01 BMatC= 1.34D-08 BMatP= 1.71D-07
 IDIUse=1 WtCom= 1.00D+00 WtEn= 0.00D+00
 Coeff-Com:  0.205D-04 0.916D-04 0.167D-03-0.930D-03-0.326D-01 0.242D-02
 Coeff-Com:  0.214D+00 0.817D+00
 Coeff:      0.205D-04 0.916D-04 0.167D-03-0.930D-03-0.326D-01 0.242D-02
 Coeff:      0.214D+00 0.817D+00
 Gap=     0.382 Goal=   None    Shift=    0.000
 RMSDP=7.75D-07 MaxDP=2.25D-05 DE=-1.21D-07 OVMax= 5.32D-05

 Cycle   9  Pass 1  IDiag  1:
 RMSU=  2.60D-07    CP:  1.01D+00  6.39D-01  9.54D-01  6.44D-01  1.28D+00
                    CP:  1.22D+00  1.03D+00  1.12D+00
 FoFJK:  IHMeth= 1 ICntrl=     0 DoSepK=T KAlg= 1 I1Cent= 0 FoldK=F
 E= -2905.42229457698     Delta-E=       -0.000000015070 Rises=F Damp=F
 DIIS: error= 2.24D-06 at cycle   9 NSaved=   9.
 NSaved= 9 IEnMin= 9 EnMin= -2905.42229457698     IErMin= 9 ErrMin= 2.24D-06
 ErrMax= 2.24D-06 EMaxC= 1.00D-01 BMatC= 4.65D-10 BMatP= 1.34D-08
 IDIUse=1 WtCom= 1.00D+00 WtEn= 0.00D+00
 Coeff-Com:  0.131D-05 0.947D-04 0.558D-03 0.398D-03-0.459D-02-0.264D-01
 Coeff-Com: -0.225D-01 0.478D-01 0.100D+01
 Coeff:      0.131D-05 0.947D-04 0.558D-03 0.398D-03-0.459D-02-0.264D-01
 Coeff:     -0.225D-01 0.478D-01 0.100D+01
 Gap=     0.382 Goal=   None    Shift=    0.000
 RMSDP=2.39D-07 MaxDP=6.52D-06 DE=-1.51D-08 OVMax= 2.12D-05

 Cycle  10  Pass 1  IDiag  1:
 RMSU=  7.28D-08    CP:  1.01D+00  6.39D-01  9.54D-01  6.44D-01  1.28D+00
                    CP:  1.22D+00  1.06D+00  1.21D+00  1.21D+00
 FoFJK:  IHMeth= 1 ICntrl=     0 DoSepK=T KAlg= 1 I1Cent= 0 FoldK=F
 E= -2905.42229457797     Delta-E=       -0.000000000984 Rises=F Damp=F
 DIIS: error= 5.47D-07 at cycle  10 NSaved=  10.
 NSaved=10 IEnMin=10 EnMin= -2905.42229457797     IErMin=10 ErrMin= 5.47D-07
 ErrMax= 5.47D-07 EMaxC= 1.00D-01 BMatC= 3.60D-11 BMatP= 4.65D-10
 IDIUse=1 WtCom= 1.00D+00 WtEn= 0.00D+00
 Coeff-Com: -0.137D-05 0.200D-05 0.366D-04 0.880D-04 0.278D-02-0.480D-03
 Coeff-Com: -0.228D-01-0.822D-01 0.123D+00 0.980D+00
 Coeff:     -0.137D-05 0.200D-05 0.366D-04 0.880D-04 0.278D-02-0.480D-03
 Coeff:     -0.228D-01-0.822D-01 0.123D+00 0.980D+00
 Gap=     0.382 Goal=   None    Shift=    0.000
 RMSDP=6.48D-08 MaxDP=1.91D-06 DE=-9.84D-10 OVMax= 6.71D-06

 Cycle  11  Pass 1  IDiag  1:
 RMSU=  1.82D-08    CP:  1.01D+00  6.39D-01  9.54D-01  6.44D-01  1.28D+00
                    CP:  1.22D+00  1.06D+00  1.23D+00  1.32D+00  1.23D+00
 FoFJK:  IHMeth= 1 ICntrl=     0 DoSepK=T KAlg= 1 I1Cent= 0 FoldK=F
 E= -2905.42229457804     Delta-E=       -0.000000000074 Rises=F Damp=F
 DIIS: error= 1.08D-07 at cycle  11 NSaved=  11.
 NSaved=11 IEnMin=11 EnMin= -2905.42229457804     IErMin=11 ErrMin= 1.08D-07
 ErrMax= 1.08D-07 EMaxC= 1.00D-01 BMatC= 1.68D-12 BMatP= 3.60D-11
 IDIUse=1 WtCom= 1.00D+00 WtEn= 0.00D+00
 Coeff-Com:  0.312D-06-0.339D-05-0.275D-04-0.835D-05-0.954D-04 0.158D-02
 Coeff-Com:  0.282D-02 0.254D-02-0.555D-01-0.877D-01 0.114D+01
 Coeff:      0.312D-06-0.339D-05-0.275D-04-0.835D-05-0.954D-04 0.158D-02
 Coeff:      0.282D-02 0.254D-02-0.555D-01-0.877D-01 0.114D+01
 Gap=     0.382 Goal=   None    Shift=    0.000
 RMSDP=1.47D-08 MaxDP=3.29D-07 DE=-7.37D-11 OVMax= 1.49D-06

 Cycle  12  Pass 1  IDiag  1:
 RMSU=  3.27D-09    CP:  1.01D+00  6.39D-01  9.54D-01  6.44D-01  1.28D+00
                    CP:  1.22D+00  1.06D+00  1.23D+00  1.33D+00  1.32D+00
                    CP:  1.25D+00
 FoFJK:  IHMeth= 1 ICntrl=     0 DoSepK=T KAlg= 1 I1Cent= 0 FoldK=F
 E= -2905.42229457806     Delta-E=       -0.000000000023 Rises=F Damp=F
 DIIS: error= 1.67D-08 at cycle  12 NSaved=  12.
 NSaved=12 IEnMin=12 EnMin= -2905.42229457806     IErMin=12 ErrMin= 1.67D-08
 ErrMax= 1.67D-08 EMaxC= 1.00D-01 BMatC= 3.75D-14 BMatP= 1.68D-12
 IDIUse=1 WtCom= 1.00D+00 WtEn= 0.00D+00
 Coeff-Com: -0.302D-07-0.138D-06 0.276D-06-0.459D-05-0.666D-04-0.652D-04
 Coeff-Com:  0.316D-03 0.157D-02 0.329D-02-0.749D-02-0.168D+00 0.117D+01
 Coeff:     -0.302D-07-0.138D-06 0.276D-06-0.459D-05-0.666D-04-0.652D-04
 Coeff:      0.316D-03 0.157D-02 0.329D-02-0.749D-02-0.168D+00 0.117D+01
 Gap=     0.382 Goal=   None    Shift=    0.000
 RMSDP=3.05D-09 MaxDP=1.23D-07 DE=-2.27D-11 OVMax= 2.19D-07

 SCF Done:  E(RwB97XD) =  -2905.42229458     A.U. after   12 cycles
             Convg  =    0.3052D-08             -V/T =  2.0015
 KE= 2.901011936546D+03 PE=-7.240938987736D+03 EE= 1.282716227826D+03
 Leave Link  502 at Sat May  9 15:27:52 2020, MaxMem= 1073741824 cpu:     373.1
 (Enter /home/matheus/.gaussian/g09/l601.exe)
 Copying SCF densities to generalized density rwf, IOpCl= 0 IROHF=0.

 **********************************************************************

            Population analysis using the SCF density.

 **********************************************************************

 Orbital symmetries:
       Occupied  (A) (A) (A) (A) (A) (A) (A) (A) (A) (A) (A) (A)
                 (A) (A) (A) (A) (A) (A) (A) (A) (A) (A) (A) (A)
                 (A) (A) (A)
       Virtual   (A) (A) (A) (A) (A) (A) (A) (A) (A) (A) (A) (A)
                 (A) (A) (A) (A) (A) (A) (A) (A) (A) (A) (A) (A)
                 (A) (A) (A) (A) (A) (A) (A) (A) (A) (A) (A) (A)
                 (A) (A) (A) (A) (A) (A) (A) (A) (A) (A) (A) (A)
                 (A) (A) (A) (A) (A) (A) (A) (A) (A) (A) (A) (A)
                 (A) (A) (A) (A) (A) (A) (A) (A) (A) (A) (A) (A)
                 (A) (A) (A) (A) (A) (A) (A) (A) (A) (A) (A) (A)
                 (A) (A) (A) (A) (A) (A) (A) (A) (A) (A) (A) (A)
                 (A) (A) (A) (A) (A) (A) (A) (A) (A) (A) (A) (A)
                 (A) (A) (A) (A) (A) (A) (A) (A) (A) (A) (A) (A)
                 (A) (A) (A) (A) (A) (A) (A) (A) (A) (A) (A) (A)
                 (A) (A) (A) (A) (A) (A) (A) (A) (A) (A) (A) (A)
                 (A) (A) (A) (A) (A) (A) (A) (A) (A) (A) (A) (A)
                 (A) (A) (A) (A) (A) (A) (A) (A) (A) (A) (A) (A)
                 (A) (A)
 The electronic state is 1-A.
 Alpha  occ. eigenvalues -- -513.09977 -67.36649 -60.91531 -60.91524 -60.91515
 Alpha  occ. eigenvalues --  -19.31246 -19.31224  -9.81949  -7.51272  -7.51245
 Alpha  occ. eigenvalues --   -7.51215  -3.38014  -3.38011  -3.37985  -3.37964
 Alpha  occ. eigenvalues --   -3.37961  -1.22089  -1.02748  -1.00488  -0.67347
 Alpha  occ. eigenvalues --   -0.53207  -0.51758  -0.50828  -0.49503  -0.49121
 Alpha  occ. eigenvalues --   -0.46328  -0.34731
 Alpha virt. eigenvalues --    0.03503   0.04370   0.08669   0.08820   0.09509
 Alpha virt. eigenvalues --    0.11866   0.12512   0.16218   0.16714   0.17437
 Alpha virt. eigenvalues --    0.18548   0.19031   0.19792   0.21195   0.22294
 Alpha virt. eigenvalues --    0.23477   0.23949   0.25661   0.29441   0.32729
 Alpha virt. eigenvalues --    0.35402   0.36615   0.38014   0.38190   0.39183
 Alpha virt. eigenvalues --    0.42337   0.44900   0.48046   0.50500   0.52720
 Alpha virt. eigenvalues --    0.57269   0.60853   0.61216   0.62539   0.62974
 Alpha virt. eigenvalues --    0.67689   0.67783   0.69547   0.70742   0.72845
 Alpha virt. eigenvalues --    0.73468   0.75953   0.78334   0.81609   0.83741
 Alpha virt. eigenvalues --    0.84915   0.85185   0.86486   0.86887   0.89029
 Alpha virt. eigenvalues --    0.91672   0.94544   0.95589   0.97066   0.98779
 Alpha virt. eigenvalues --    1.01219   1.04326   1.05329   1.07317   1.07936
 Alpha virt. eigenvalues --    1.10283   1.17872   1.20243   1.25044   1.26373
 Alpha virt. eigenvalues --    1.28854   1.29637   1.35400   1.38339   1.45125
 Alpha virt. eigenvalues --    1.47482   1.48651   1.52933   1.54331   1.56580
 Alpha virt. eigenvalues --    1.62411   1.64320   1.76972   1.90162   1.92044
 Alpha virt. eigenvalues --    1.95122   1.98499   2.05763   2.10352   2.10643
 Alpha virt. eigenvalues --    2.16434   2.18948   2.19233   2.19875   2.24903
 Alpha virt. eigenvalues --    2.28254   2.29422   2.30072   2.31064   2.34275
 Alpha virt. eigenvalues --    2.35644   2.38529   2.40237   2.44041   2.45195
 Alpha virt. eigenvalues --    2.46302   2.46715   2.53937   2.55094   2.61379
 Alpha virt. eigenvalues --    2.61937   2.63642   2.66357   2.69528   2.69547
 Alpha virt. eigenvalues --    2.70502   2.74444   2.76942   2.85855   2.87004
 Alpha virt. eigenvalues --    2.92657   3.08669   3.09829   3.15393   3.51828
 Alpha virt. eigenvalues --    3.73859   3.81974   3.94040   4.02134   4.07990
 Alpha virt. eigenvalues --    4.08685   4.11182   4.17406   4.18341   4.23887
 Alpha virt. eigenvalues --    4.34371   4.45989   4.55303   4.69195   4.72811
 Alpha virt. eigenvalues --    4.94067   4.98386   5.00173   5.05540   5.11981
 Alpha virt. eigenvalues --    5.15597   5.52049   5.79531   5.97141   6.05098
 Alpha virt. eigenvalues --    6.11122   6.30680   6.36658   6.46491   6.55972
 Alpha virt. eigenvalues --    6.68460   6.68529   6.74603   6.76683   6.79647
 Alpha virt. eigenvalues --    6.85086   6.85717   6.87843   6.90698   7.09965
 Alpha virt. eigenvalues --    7.14371   7.18291   7.27087   7.27546   7.60060
 Alpha virt. eigenvalues --    7.95229   8.04064   8.18667  13.81724  14.75204
          Condensed to atoms (all electrons):
              1          2          3          4          5
     1  O    8.292000  -0.226436   0.150590   0.038648  -0.020400
     2  O   -0.226436   8.292212   0.039430   0.153257  -0.019453
     3  H    0.150590   0.039430   0.605062  -0.017984  -0.007706
     4  H    0.038648   0.153257  -0.017984   0.601979  -0.009674
     5  Kr  -0.020400  -0.019453  -0.007706  -0.009674  36.048201
 Mulliken atomic charges:
              1
     1  O   -0.234402
     2  O   -0.239011
     3  H    0.230607
     4  H    0.233773
     5  Kr   0.009032
 Sum of Mulliken atomic charges =   0.00000
 Mulliken charges with hydrogens summed into heavy atoms:
              1
     1  O   -0.003795
     2  O   -0.005237
     5  Kr   0.009032
 Sum of Mulliken charges with hydrogens summed into heavy atoms =   0.00000
          Condensed to fragments (all electrons):
     1      -0.009032
     2       0.009032
 Electronic spatial extent (au):  <R**2>=            475.1115
 Charge=              0.0000 electrons
 Dipole moment (field-independent basis, Debye):
    X=             -3.6583    Y=             -0.0118    Z=              0.2179  Tot=              3.6648
 Quadrupole moment (field-independent basis, Debye-Ang):
   XX=            -38.4949   YY=            -28.1077   ZZ=            -30.4582
   XY=             -0.0338   XZ=              0.2361   YZ=             -0.2966
 Traceless Quadrupole moment (field-independent basis, Debye-Ang):
   XX=             -6.1413   YY=              4.2459   ZZ=              1.8954
   XY=             -0.0338   XZ=              0.2361   YZ=             -0.2966
 Octapole moment (field-independent basis, Debye-Ang**2):
  XXX=            -44.1669  YYY=             -0.0275  ZZZ=             -0.0289  XYY=             -7.9747
  XXY=             -0.0771  XXZ=             -0.0871  XZZ=             -8.9280  YZZ=             -0.0553
  YYZ=              0.3335  XYZ=             -0.3140
 Hexadecapole moment (field-independent basis, Debye-Ang**3):
 XXXX=           -451.7805 YYYY=            -63.1974 ZZZZ=            -29.1253 XXXY=             -0.0673
 XXXZ=             -0.6513 YYYX=             -0.0608 YYYZ=             -0.3947 ZZZX=              0.0660
 ZZZY=             -0.1512 XXYY=            -85.8015 XXZZ=            -76.2690 YYZZ=            -17.3478
 XXYZ=             -0.2950 YYXZ=              0.3681 ZZXY=             -0.0719
 N-N= 1.517885287854D+02 E-N=-7.240938985093D+03  KE= 2.901011936546D+03
 No NMR shielding tensors so no spin-rotation constants.
 Leave Link  601 at Sat May  9 15:27:52 2020, MaxMem= 1073741824 cpu:       0.8
 (Enter /home/matheus/.gaussian/g09/l122.exe)
 Counterpoise: doing DCBS calculation for fragment   1 NewBq=T
 Leave Link  122 at Sat May  9 15:27:52 2020, MaxMem= 1073741824 cpu:       0.0
 (Enter /home/matheus/.gaussian/g09/l301.exe)
 Basis read from rwf:  (5D, 7F)
 No pseudopotential information found on rwf file.
 There are   197 symmetry adapted basis functions of A   symmetry.
 Integral buffers will be    131072 words long.
 Raffenetti 2 integral format.
 Two-electron integral symmetry is turned on.
   197 basis functions,   415 primitive gaussians,   229 cartesian basis functions
     9 alpha electrons        9 beta electrons
       nuclear repulsion energy        36.6659649233 Hartrees.
 IExCor= 4639 DFT=T Ex+Corr=wB97XD ExCW=0 ScaHFX=  1.000000
 ScaDFX=  1.000000  1.000000  1.000000  1.000000 ScalE2=  1.000000  1.000000
 IRadAn=      5 IRanWt=     -1 IRanGd=            0 ICorTp=0
  HFx wShort=  0.000000 wLong=  0.200000 cFull=  0.222036 cShort=  0.000000 cLong=  0.777964
  DFx wShort=  0.000000 wLong=  0.200000 cFull=  0.000000 cShort=  0.000000 cLong=  1.000000
 NAtoms=    5 NActive=    5 NUniq=    5 SFac= 1.00D+00 NAtFMM=   60 NAOKFM=F Big=F
 R6Disp: Dispersion energy =        -0.0002196121 Hartrees.
 Nuclear repulsion after empirical dispersion term =       36.6657453113 Hartrees.
 No density basis found on file   718.
 Leave Link  301 at Sat May  9 15:27:52 2020, MaxMem= 1073741824 cpu:       0.2
 (Enter /home/matheus/.gaussian/g09/l302.exe)
 NPDir=0 NMtPBC=     1 NCelOv=     1 NCel=       1 NClECP=     1 NCelD=      1
         NCelK=      1 NCelE2=     1 NClLst=     1 CellRange=     0.0.
 One-electron integrals computed using PRISM.
 NBasis=   197 RedAO= T  NBF=   197
 NBsUse=   197 1.00D-06 NBFU=   197
 Precomputing XC quadrature grid using
 IXCGrd= 2 IRadAn=           5 IRanWt=          -1 IRanGd=           0 AccXCQ= 0.00D+00.
 NRdTot=     427 NPtTot=      123512 NUsed=      126579 NTot=      126611
 NSgBfM=   229   229   229   229   229 NAtAll=     5     5.
 Leave Link  302 at Sat May  9 15:27:52 2020, MaxMem= 1073741824 cpu:       1.1
 (Enter /home/matheus/.gaussian/g09/l303.exe)
 DipDrv:  MaxL=1.
 Leave Link  303 at Sat May  9 15:27:52 2020, MaxMem= 1073741824 cpu:       0.2
 (Enter /home/matheus/.gaussian/g09/l401.exe)
 Harris functional with IExCor= 4639 diagonalized for initial guess.
 ExpMin= 2.53D-02 ExpMax= 1.17D+07 ExpMxC= 1.33D+04 IAcc=3 IRadAn=         5 AccDes= 0.00D+00
 HarFok:  IExCor= 4639 AccDes= 0.00D+00 IRadAn=         5 IDoV= 1
 ScaDFX=  1.000000  1.000000  1.000000  1.000000
 FoFCou: FMM=F IPFlag=           0 FMFlag=      100000 FMFlg1=           0
         NFxFlg=           0 DoJE=T BraDBF=F KetDBF=T FulRan=T
         Omega=  0.000000  0.000000  1.000000  0.000000  0.000000 ICntrl=     500 IOpCl=  0
         NMat0=    1 NMatS0=    1 NMatT0=    0 NMatD0=    1 NMtDS0=    0 NMtDT0=    0
         I1Cent=           4 NGrid=           0.
 Petite list used in FoFCou.
 Harris En= -146.290526482464    
 Initial guess orbital symmetries:
       Occupied  (A) (A) (A) (A) (A) (A) (A) (A) (A)
       Virtual   (A) (A) (A) (A) (A) (A) (A) (A) (A) (A) (A) (A)
                 (A) (A) (A) (A) (A) (A) (A) (A) (A) (A) (A) (A)
                 (A) (A) (A) (A) (A) (A) (A) (A) (A) (A) (A) (A)
                 (A) (A) (A) (A) (A) (A) (A) (A) (A) (A) (A) (A)
                 (A) (A) (A) (A) (A) (A) (A) (A) (A) (A) (A) (A)
                 (A) (A) (A) (A) (A) (A) (A) (A) (A) (A) (A) (A)
                 (A) (A) (A) (A) (A) (A) (A) (A) (A) (A) (A) (A)
                 (A) (A) (A) (A) (A) (A) (A) (A) (A) (A) (A) (A)
                 (A) (A) (A) (A) (A) (A) (A) (A) (A) (A) (A) (A)
                 (A) (A) (A) (A) (A) (A) (A) (A) (A) (A) (A) (A)
                 (A) (A) (A) (A) (A) (A) (A) (A) (A) (A) (A) (A)
                 (A) (A) (A) (A) (A) (A) (A) (A) (A) (A) (A) (A)
                 (A) (A) (A) (A) (A) (A) (A) (A) (A) (A) (A) (A)
                 (A) (A) (A) (A) (A) (A) (A) (A) (A) (A) (A) (A)
                 (A) (A) (A) (A) (A) (A) (A) (A) (A) (A) (A) (A)
                 (A) (A) (A) (A) (A) (A) (A) (A)
 The electronic state of the initial guess is 1-A.
 Leave Link  401 at Sat May  9 15:27:53 2020, MaxMem= 1073741824 cpu:       4.4
 (Enter /home/matheus/.gaussian/g09/l502.exe)
 Closed shell SCF:
 Requested convergence on RMS density matrix=1.00D-08 within 128 cycles.
 Requested convergence on MAX density matrix=1.00D-06.
 Requested convergence on             energy=1.00D-06.
 No special actions if energy rises.
 Using DIIS extrapolation, IDIIS=  1040.
 Integral symmetry usage will be decided dynamically.
       126521 words used for storage of precomputed grid.
 IEnd=      305468 IEndB=      305468 NGot=  1073741824 MDV=  1073505667
 LenX=  1073505667 LenY=  1073452785
 Fock matrices will be formed incrementally for  20 cycles.

 Cycle   1  Pass 1  IDiag  1:
 FoFJK:  IHMeth= 1 ICntrl=     0 DoSepK=T KAlg= 1 I1Cent= 0 FoldK=F
 FoFCou: FMM=F IPFlag=           0 FMFlag=      100000 FMFlg1=           0
         NFxFlg=           0 DoJE=T BraDBF=F KetDBF=F FulRan=T
         Omega=  0.000000  0.000000  1.000000  0.000000  0.000000 ICntrl=     500 IOpCl=  0
         NMat0=    1 NMatS0=    1 NMatT0=    0 NMatD0=    1 NMtDS0=    0 NMtDT0=    0
         I1Cent=           0 NGrid=           0.
 Symmetry not used in FoFCou.
 E= -151.471351540892    
 DIIS: error= 3.31D-02 at cycle   1 NSaved=   1.
 NSaved= 1 IEnMin= 1 EnMin= -151.471351540892     IErMin= 1 ErrMin= 3.31D-02
 ErrMax= 3.31D-02 EMaxC= 1.00D-01 BMatC= 2.99D-01 BMatP= 2.99D-01
 IDIUse=3 WtCom= 6.69D-01 WtEn= 3.31D-01
 Coeff-Com:  0.100D+01
 Coeff-En:   0.100D+01
 Coeff:      0.100D+01
 Gap=     0.484 Goal=   None    Shift=    0.000
 GapD=    0.484 DampG=2.000 DampE=0.500 DampFc=1.0000 IDamp=-1.
 RMSDP=2.62D-03 MaxDP=1.07D-01              OVMax= 1.09D-01

 Cycle   2  Pass 1  IDiag  1:
 RMSU=  1.79D-03    CP:  9.37D-01
 FoFJK:  IHMeth= 1 ICntrl=     0 DoSepK=T KAlg= 1 I1Cent= 0 FoldK=F
 E= -151.504722040045     Delta-E=       -0.033370499153 Rises=F Damp=F
 DIIS: error= 2.46D-02 at cycle   2 NSaved=   2.
 NSaved= 2 IEnMin= 2 EnMin= -151.504722040045     IErMin= 2 ErrMin= 2.46D-02
 ErrMax= 2.46D-02 EMaxC= 1.00D-01 BMatC= 8.42D-02 BMatP= 2.99D-01
 IDIUse=3 WtCom= 7.54D-01 WtEn= 2.46D-01
 Coeff-Com:  0.323D+00 0.677D+00
 Coeff-En:   0.338D+00 0.662D+00
 Coeff:      0.327D+00 0.673D+00
 Gap=     0.437 Goal=   None    Shift=    0.000
 RMSDP=1.07D-03 MaxDP=4.84D-02 DE=-3.34D-02 OVMax= 6.23D-02

 Cycle   3  Pass 1  IDiag  1:
 RMSU=  3.87D-04    CP:  9.62D-01  6.53D-01
 FoFJK:  IHMeth= 1 ICntrl=     0 DoSepK=T KAlg= 1 I1Cent= 0 FoldK=F
 E= -151.548759783018     Delta-E=       -0.044037742974 Rises=F Damp=F
 DIIS: error= 7.35D-03 at cycle   3 NSaved=   3.
 NSaved= 3 IEnMin= 3 EnMin= -151.548759783018     IErMin= 3 ErrMin= 7.35D-03
 ErrMax= 7.35D-03 EMaxC= 1.00D-01 BMatC= 7.53D-03 BMatP= 8.42D-02
 IDIUse=3 WtCom= 9.27D-01 WtEn= 7.35D-02
 Coeff-Com:  0.194D-01 0.242D+00 0.739D+00
 Coeff-En:   0.000D+00 0.000D+00 0.100D+01
 Coeff:      0.180D-01 0.224D+00 0.758D+00
 Gap=     0.379 Goal=   None    Shift=    0.000
 RMSDP=3.22D-04 MaxDP=1.10D-02 DE=-4.40D-02 OVMax= 1.85D-02

 Cycle   4  Pass 1  IDiag  1:
 RMSU=  7.28D-05    CP:  9.55D-01  7.60D-01  7.80D-01
 FoFJK:  IHMeth= 1 ICntrl=     0 DoSepK=T KAlg= 1 I1Cent= 0 FoldK=F
 E= -151.553640738425     Delta-E=       -0.004880955406 Rises=F Damp=F
 DIIS: error= 8.46D-04 at cycle   4 NSaved=   4.
 NSaved= 4 IEnMin= 4 EnMin= -151.553640738425     IErMin= 4 ErrMin= 8.46D-04
 ErrMax= 8.46D-04 EMaxC= 1.00D-01 BMatC= 1.45D-04 BMatP= 7.53D-03
 IDIUse=3 WtCom= 9.92D-01 WtEn= 8.46D-03
 Coeff-Com:  0.631D-03 0.315D-01 0.198D+00 0.770D+00
 Coeff-En:   0.000D+00 0.000D+00 0.000D+00 0.100D+01
 Coeff:      0.625D-03 0.312D-01 0.196D+00 0.772D+00
 Gap=     0.375 Goal=   None    Shift=    0.000
 RMSDP=5.16D-05 MaxDP=2.69D-03 DE=-4.88D-03 OVMax= 2.63D-03

 Cycle   5  Pass 1  IDiag  1:
 RMSU=  1.67D-05    CP:  9.57D-01  7.49D-01  8.38D-01  1.07D+00
 FoFJK:  IHMeth= 1 ICntrl=     0 DoSepK=T KAlg= 1 I1Cent= 0 FoldK=F
 E= -151.553740192168     Delta-E=       -0.000099453744 Rises=F Damp=F
 DIIS: error= 6.50D-05 at cycle   5 NSaved=   5.
 NSaved= 5 IEnMin= 5 EnMin= -151.553740192168     IErMin= 5 ErrMin= 6.50D-05
 ErrMax= 6.50D-05 EMaxC= 1.00D-01 BMatC= 8.74D-07 BMatP= 1.45D-04
 IDIUse=1 WtCom= 1.00D+00 WtEn= 0.00D+00
 Coeff-Com: -0.720D-03-0.116D-01-0.396D-01-0.829D-01 0.113D+01
 Coeff:     -0.720D-03-0.116D-01-0.396D-01-0.829D-01 0.113D+01
 Gap=     0.375 Goal=   None    Shift=    0.000
 RMSDP=1.41D-05 MaxDP=5.30D-04 DE=-9.95D-05 OVMax= 7.28D-04

 Cycle   6  Pass 1  IDiag  1:
 RMSU=  3.44D-06    CP:  9.57D-01  7.48D-01  8.52D-01  1.15D+00  1.28D+00
 FoFJK:  IHMeth= 1 ICntrl=     0 DoSepK=T KAlg= 1 I1Cent= 0 FoldK=F
 E= -151.553742236099     Delta-E=       -0.000002043931 Rises=F Damp=F
 DIIS: error= 1.61D-05 at cycle   6 NSaved=   6.
 NSaved= 6 IEnMin= 6 EnMin= -151.553742236099     IErMin= 6 ErrMin= 1.61D-05
 ErrMax= 1.61D-05 EMaxC= 1.00D-01 BMatC= 2.74D-08 BMatP= 8.74D-07
 IDIUse=1 WtCom= 1.00D+00 WtEn= 0.00D+00
 Coeff-Com:  0.563D-04-0.367D-04-0.356D-02-0.154D-01-0.678D-01 0.109D+01
 Coeff:      0.563D-04-0.367D-04-0.356D-02-0.154D-01-0.678D-01 0.109D+01
 Gap=     0.375 Goal=   None    Shift=    0.000
 RMSDP=2.51D-06 MaxDP=8.58D-05 DE=-2.04D-06 OVMax= 1.70D-04

 Cycle   7  Pass 1  IDiag  1:
 RMSU=  6.99D-07    CP:  9.57D-01  7.48D-01  8.53D-01  1.16D+00  1.33D+00
                    CP:  1.33D+00
 FoFJK:  IHMeth= 1 ICntrl=     0 DoSepK=T KAlg= 1 I1Cent= 0 FoldK=F
 E= -151.553742321811     Delta-E=       -0.000000085712 Rises=F Damp=F
 DIIS: error= 4.88D-06 at cycle   7 NSaved=   7.
 NSaved= 7 IEnMin= 7 EnMin= -151.553742321811     IErMin= 7 ErrMin= 4.88D-06
 ErrMax= 4.88D-06 EMaxC= 1.00D-01 BMatC= 2.72D-09 BMatP= 2.74D-08
 IDIUse=1 WtCom= 1.00D+00 WtEn= 0.00D+00
 Coeff-Com:  0.158D-04 0.296D-03 0.122D-02 0.172D-02-0.357D-01-0.204D-01
 Coeff-Com:  0.105D+01
 Coeff:      0.158D-04 0.296D-03 0.122D-02 0.172D-02-0.357D-01-0.204D-01
 Coeff:      0.105D+01
 Gap=     0.375 Goal=   None    Shift=    0.000
 RMSDP=5.45D-07 MaxDP=1.82D-05 DE=-8.57D-08 OVMax= 5.16D-05

 Cycle   8  Pass 1  IDiag  1:
 RMSU=  1.71D-07    CP:  9.57D-01  7.48D-01  8.53D-01  1.16D+00  1.34D+00
                    CP:  1.39D+00  1.25D+00
 FoFJK:  IHMeth= 1 ICntrl=     0 DoSepK=T KAlg= 1 I1Cent= 0 FoldK=F
 E= -151.553742326045     Delta-E=       -0.000000004234 Rises=F Damp=F
 DIIS: error= 3.70D-06 at cycle   8 NSaved=   8.
 NSaved= 8 IEnMin= 8 EnMin= -151.553742326045     IErMin= 8 ErrMin= 3.70D-06
 ErrMax= 3.70D-06 EMaxC= 1.00D-01 BMatC= 2.18D-09 BMatP= 2.72D-09
 IDIUse=1 WtCom= 1.00D+00 WtEn= 0.00D+00
 Coeff-Com:  0.125D-05 0.169D-03 0.117D-02 0.288D-02-0.100D-01-0.165D+00
 Coeff-Com:  0.630D+00 0.540D+00
 Coeff:      0.125D-05 0.169D-03 0.117D-02 0.288D-02-0.100D-01-0.165D+00
 Coeff:      0.630D+00 0.540D+00
 Gap=     0.375 Goal=   None    Shift=    0.000
 RMSDP=1.63D-07 MaxDP=7.59D-06 DE=-4.23D-09 OVMax= 1.48D-05

 Cycle   9  Pass 1  IDiag  1:
 RMSU=  7.61D-08    CP:  9.57D-01  7.48D-01  8.53D-01  1.16D+00  1.34D+00
                    CP:  1.40D+00  1.33D+00  7.78D-01
 FoFJK:  IHMeth= 1 ICntrl=     0 DoSepK=T KAlg= 1 I1Cent= 0 FoldK=F
 E= -151.553742327639     Delta-E=       -0.000000001594 Rises=F Damp=F
 DIIS: error= 4.86D-07 at cycle   9 NSaved=   9.
 NSaved= 9 IEnMin= 9 EnMin= -151.553742327639     IErMin= 9 ErrMin= 4.86D-07
 ErrMax= 4.86D-07 EMaxC= 1.00D-01 BMatC= 5.20D-11 BMatP= 2.18D-09
 IDIUse=1 WtCom= 1.00D+00 WtEn= 0.00D+00
 Coeff-Com:  0.243D-08 0.115D-04 0.957D-04 0.218D-03 0.239D-02-0.297D-01
 Coeff-Com:  0.257D-01 0.128D+00 0.874D+00
 Coeff:      0.243D-08 0.115D-04 0.957D-04 0.218D-03 0.239D-02-0.297D-01
 Coeff:      0.257D-01 0.128D+00 0.874D+00
 Gap=     0.375 Goal=   None    Shift=    0.000
 RMSDP=5.44D-08 MaxDP=1.33D-06 DE=-1.59D-09 OVMax= 5.11D-06

 Cycle  10  Pass 1  IDiag  1:
 RMSU=  1.45D-08    CP:  9.57D-01  7.48D-01  8.53D-01  1.16D+00  1.34D+00
                    CP:  1.39D+00  1.35D+00  9.09D-01  1.20D+00
 FoFJK:  IHMeth= 1 ICntrl=     0 DoSepK=T KAlg= 1 I1Cent= 0 FoldK=F
 E= -151.553742327708     Delta-E=       -0.000000000069 Rises=F Damp=F
 DIIS: error= 1.91D-07 at cycle  10 NSaved=  10.
 NSaved=10 IEnMin=10 EnMin= -151.553742327708     IErMin=10 ErrMin= 1.91D-07
 ErrMax= 1.91D-07 EMaxC= 1.00D-01 BMatC= 3.47D-12 BMatP= 5.20D-11
 IDIUse=1 WtCom= 1.00D+00 WtEn= 0.00D+00
 Coeff-Com:  0.428D-06-0.104D-04-0.113D-03-0.331D-03 0.102D-02 0.152D-01
 Coeff-Com: -0.672D-01-0.496D-01 0.399D-01 0.106D+01
 Coeff:      0.428D-06-0.104D-04-0.113D-03-0.331D-03 0.102D-02 0.152D-01
 Coeff:     -0.672D-01-0.496D-01 0.399D-01 0.106D+01
 Gap=     0.375 Goal=   None    Shift=    0.000
 RMSDP=2.23D-08 MaxDP=4.70D-07 DE=-6.86D-11 OVMax= 2.24D-06

 Cycle  11  Pass 1  IDiag  1:
 RMSU=  3.78D-09    CP:  9.57D-01  7.48D-01  8.53D-01  1.16D+00  1.34D+00
                    CP:  1.39D+00  1.36D+00  9.44D-01  1.31D+00  1.33D+00
 FoFJK:  IHMeth= 1 ICntrl=     0 DoSepK=T KAlg= 1 I1Cent= 0 FoldK=F
 E= -151.553742327715     Delta-E=       -0.000000000008 Rises=F Damp=F
 DIIS: error= 2.68D-08 at cycle  11 NSaved=  11.
 NSaved=11 IEnMin=11 EnMin= -151.553742327715     IErMin=11 ErrMin= 2.68D-08
 ErrMax= 2.68D-08 EMaxC= 1.00D-01 BMatC= 7.26D-14 BMatP= 3.47D-12
 IDIUse=1 WtCom= 1.00D+00 WtEn= 0.00D+00
 Coeff-Com: -0.164D-06-0.965D-07 0.120D-04 0.341D-04-0.142D-03-0.156D-02
 Coeff-Com:  0.963D-02 0.606D-02-0.183D-01-0.241D+00 0.125D+01
 Coeff:     -0.164D-06-0.965D-07 0.120D-04 0.341D-04-0.142D-03-0.156D-02
 Coeff:      0.963D-02 0.606D-02-0.183D-01-0.241D+00 0.125D+01
 Gap=     0.375 Goal=   None    Shift=    0.000
 RMSDP=4.59D-09 MaxDP=1.95D-07 DE=-7.50D-12 OVMax= 3.73D-07

 SCF Done:  E(RwB97XD) =  -151.553742328     A.U. after   11 cycles
             Convg  =    0.4594D-08             -V/T =  2.0057
 KE= 1.507005671102D+02 PE=-4.318051942430D+02 EE= 9.288513949388D+01
 Leave Link  502 at Sat May  9 15:28:36 2020, MaxMem= 1073741824 cpu:     342.6
 (Enter /home/matheus/.gaussian/g09/l601.exe)
 Copying SCF densities to generalized density rwf, IOpCl= 0 IROHF=0.

 **********************************************************************

            Population analysis using the SCF density.

 **********************************************************************

 Orbital symmetries:
       Occupied  (A) (A) (A) (A) (A) (A) (A) (A) (A)
       Virtual   (A) (A) (A) (A) (A) (A) (A) (A) (A) (A) (A) (A)
                 (A) (A) (A) (A) (A) (A) (A) (A) (A) (A) (A) (A)
                 (A) (A) (A) (A) (A) (A) (A) (A) (A) (A) (A) (A)
                 (A) (A) (A) (A) (A) (A) (A) (A) (A) (A) (A) (A)
                 (A) (A) (A) (A) (A) (A) (A) (A) (A) (A) (A) (A)
                 (A) (A) (A) (A) (A) (A) (A) (A) (A) (A) (A) (A)
                 (A) (A) (A) (A) (A) (A) (A) (A) (A) (A) (A) (A)
                 (A) (A) (A) (A) (A) (A) (A) (A) (A) (A) (A) (A)
                 (A) (A) (A) (A) (A) (A) (A) (A) (A) (A) (A) (A)
                 (A) (A) (A) (A) (A) (A) (A) (A) (A) (A) (A) (A)
                 (A) (A) (A) (A) (A) (A) (A) (A) (A) (A) (A) (A)
                 (A) (A) (A) (A) (A) (A) (A) (A) (A) (A) (A) (A)
                 (A) (A) (A) (A) (A) (A) (A) (A) (A) (A) (A) (A)
                 (A) (A) (A) (A) (A) (A) (A) (A) (A) (A) (A) (A)
                 (A) (A) (A) (A) (A) (A) (A) (A) (A) (A) (A) (A)
                 (A) (A) (A) (A) (A) (A) (A) (A)
 The electronic state is 1-A.
 Alpha  occ. eigenvalues --  -19.32118 -19.32113  -1.22778  -1.01185  -0.67564
 Alpha  occ. eigenvalues --   -0.52539  -0.50613  -0.47644  -0.35442
 Alpha virt. eigenvalues --    0.02052   0.03831   0.07580   0.08074   0.08640
 Alpha virt. eigenvalues --    0.09031   0.10654   0.17227   0.17490   0.18199
 Alpha virt. eigenvalues --    0.18397   0.19350   0.20157   0.21566   0.26149
 Alpha virt. eigenvalues --    0.26760   0.27960   0.29134   0.31981   0.35436
 Alpha virt. eigenvalues --    0.35635   0.36589   0.37742   0.41035   0.43054
 Alpha virt. eigenvalues --    0.44537   0.45468   0.47517   0.48986   0.53188
 Alpha virt. eigenvalues --    0.54910   0.57468   0.58788   0.62609   0.64177
 Alpha virt. eigenvalues --    0.68120   0.69523   0.75513   0.75954   0.78418
 Alpha virt. eigenvalues --    0.80598   0.82435   0.84669   0.87178   0.87920
 Alpha virt. eigenvalues --    0.93399   0.95755   0.96841   0.98236   0.99290
 Alpha virt. eigenvalues --    1.01303   1.02881   1.04639   1.09075   1.09617
 Alpha virt. eigenvalues --    1.12034   1.18269   1.21849   1.23122   1.24411
 Alpha virt. eigenvalues --    1.27479   1.28936   1.30794   1.32548   1.33764
 Alpha virt. eigenvalues --    1.34342   1.37005   1.38376   1.43020   1.46750
 Alpha virt. eigenvalues --    1.49031   1.49634   1.50975   1.53887   1.60512
 Alpha virt. eigenvalues --    1.63034   1.63954   1.70031   1.71020   1.77872
 Alpha virt. eigenvalues --    1.80779   1.85335   1.93786   1.95534   2.00250
 Alpha virt. eigenvalues --    2.01881   2.10939   2.19374   2.20826   2.24001
 Alpha virt. eigenvalues --    2.25760   2.29215   2.31801   2.32138   2.40645
 Alpha virt. eigenvalues --    2.44422   2.50543   2.51218   2.60442   2.66695
 Alpha virt. eigenvalues --    2.68639   2.71393   2.81774   2.83622   2.90103
 Alpha virt. eigenvalues --    3.06629   3.08808   3.13163   3.24430   3.34835
 Alpha virt. eigenvalues --    3.36344   3.54967   3.64242   3.68882   3.77747
 Alpha virt. eigenvalues --    3.78562   3.79462   3.81712   3.83681   3.85289
 Alpha virt. eigenvalues --    3.89723   3.90900   3.92845   3.94927   3.97284
 Alpha virt. eigenvalues --    3.99204   4.02948   4.08388   4.08813   4.11426
 Alpha virt. eigenvalues --    4.12189   4.14845   4.24016   4.24541   4.28385
 Alpha virt. eigenvalues --    4.42567   4.58470   4.58820   4.69205   4.93245
 Alpha virt. eigenvalues --    4.97906   5.00424   5.05640   5.11495   5.15369
 Alpha virt. eigenvalues --    5.51987   5.78998   5.96540   6.04713   6.10004
 Alpha virt. eigenvalues --    6.30229   6.36114   6.45930   6.55351   6.67721
 Alpha virt. eigenvalues --    6.68012   6.73793   6.75963   6.78994   6.84470
 Alpha virt. eigenvalues --    6.85075   6.87151   6.90034   7.09457   7.13886
 Alpha virt. eigenvalues --    7.17604   7.26372   7.26773   7.59565   7.94368
 Alpha virt. eigenvalues --    8.03320   8.18062  11.09519  13.81250  14.74336
 Alpha virt. eigenvalues --   14.81726  14.96756  15.10658  29.02707  29.03411
 Alpha virt. eigenvalues --   29.07023  29.21178  29.25585  49.24306 148.29649
 Alpha virt. eigenvalues --  148.52147 148.73205 753.00071
          Condensed to atoms (all electrons):
              1          2          3          4          5
     1  O    8.219889  -0.209342   0.170626   0.030358   0.000702
     2  O   -0.209342   8.217537   0.031315   0.174021  -0.000162
     3  H    0.170626   0.031315   0.596344  -0.006462  -0.003238
     4  H    0.030358   0.174021  -0.006462   0.593894  -0.003519
     5  Kr   0.000702  -0.000162  -0.003238  -0.003519   0.003736
 Mulliken atomic charges:
              1
     1  O   -0.212234
     2  O   -0.213370
     3  H    0.211415
     4  H    0.211708
     5  Kr   0.002481
 Sum of Mulliken atomic charges =   0.00000
 Mulliken charges with hydrogens summed into heavy atoms:
              1
     1  O   -0.000819
     2  O   -0.001662
     5  Kr   0.002481
 Sum of Mulliken charges with hydrogens summed into heavy atoms =   0.00000
          Condensed to fragments (all electrons):
     1      -0.002481
     2       0.002481
 Electronic spatial extent (au):  <R**2>=            316.2048
 Charge=              0.0000 electrons
 Dipole moment (field-independent basis, Debye):
    X=             -3.0513    Y=             -0.0049    Z=              0.2720  Tot=              3.0634
 Quadrupole moment (field-independent basis, Debye-Ang):
   XX=            -21.2380   YY=            -10.5010   ZZ=            -13.0228
   XY=             -0.0361   XZ=              0.1964   YZ=             -0.3080
 Traceless Quadrupole moment (field-independent basis, Debye-Ang):
   XX=             -6.3174   YY=              4.4196   ZZ=              1.8978
   XY=             -0.0361   XZ=              0.1964   YZ=             -0.3080
 Octapole moment (field-independent basis, Debye-Ang**2):
  XXX=            -92.0291  YYY=             -0.0282  ZZZ=             -0.0150  XYY=            -24.4328
  XXY=             -0.0654  XXZ=             -0.0607  XZZ=            -25.4984  YZZ=             -0.0566
  YYZ=              0.3440  XYZ=             -0.3135
 Hexadecapole moment (field-independent basis, Debye-Ang**3):
 XXXX=           -334.8435 YYYY=            -45.0163 ZZZZ=            -11.3509 XXXY=             -0.0530
 XXXZ=             -0.7053 YYYX=             -0.0623 YYYZ=             -0.4108 ZZZX=              0.0642
 ZZZY=             -0.1620 XXYY=            -63.2960 XXZZ=            -54.0484 YYZZ=            -11.3410
 XXYZ=             -0.2915 YYXZ=              0.3611 ZZXY=             -0.0698
 N-N= 3.666574531127D+01 E-N=-4.318051935583D+02  KE= 1.507005671102D+02
 No NMR shielding tensors so no spin-rotation constants.
 Leave Link  601 at Sat May  9 15:28:36 2020, MaxMem= 1073741824 cpu:       0.8
 (Enter /home/matheus/.gaussian/g09/l122.exe)
 Counterpoise: doing DCBS calculation for fragment   2 NewBq=T
 Leave Link  122 at Sat May  9 15:28:36 2020, MaxMem= 1073741824 cpu:       0.0
 (Enter /home/matheus/.gaussian/g09/l301.exe)
 Basis read from rwf:  (5D, 7F)
 No pseudopotential information found on rwf file.
 There are   197 symmetry adapted basis functions of A   symmetry.
 Integral buffers will be    131072 words long.
 Raffenetti 2 integral format.
 Two-electron integral symmetry is turned on.
   197 basis functions,   415 primitive gaussians,   229 cartesian basis functions
    18 alpha electrons       18 beta electrons
       nuclear repulsion energy         0.0000000000 Hartrees.
 IExCor= 4639 DFT=T Ex+Corr=wB97XD ExCW=0 ScaHFX=  1.000000
 ScaDFX=  1.000000  1.000000  1.000000  1.000000 ScalE2=  1.000000  1.000000
 IRadAn=      5 IRanWt=     -1 IRanGd=            0 ICorTp=0
  HFx wShort=  0.000000 wLong=  0.200000 cFull=  0.222036 cShort=  0.000000 cLong=  0.777964
  DFx wShort=  0.000000 wLong=  0.200000 cFull=  0.000000 cShort=  0.000000 cLong=  1.000000
 NAtoms=    5 NActive=    5 NUniq=    5 SFac= 1.00D+00 NAtFMM=   60 NAOKFM=F Big=F
 R6Disp: Dispersion energy =         0.0000000000 Hartrees.
 Nuclear repulsion after empirical dispersion term =        0.0000000000 Hartrees.
 No density basis found on file   718.
 Leave Link  301 at Sat May  9 15:28:36 2020, MaxMem= 1073741824 cpu:       0.2
 (Enter /home/matheus/.gaussian/g09/l302.exe)
 NPDir=0 NMtPBC=     1 NCelOv=     1 NCel=       1 NClECP=     1 NCelD=      1
         NCelK=      1 NCelE2=     1 NClLst=     1 CellRange=     0.0.
 One-electron integrals computed using PRISM.
 NBasis=   197 RedAO= T  NBF=   197
 NBsUse=   197 1.00D-06 NBFU=   197
 Precomputing XC quadrature grid using
 IXCGrd= 2 IRadAn=           5 IRanWt=          -1 IRanGd=           0 AccXCQ= 0.00D+00.
 NRdTot=     427 NPtTot=      123512 NUsed=      126579 NTot=      126611
 NSgBfM=   229   229   229   229   229 NAtAll=     5     5.
 Leave Link  302 at Sat May  9 15:28:36 2020, MaxMem= 1073741824 cpu:       1.0
 (Enter /home/matheus/.gaussian/g09/l303.exe)
 DipDrv:  MaxL=1.
 Leave Link  303 at Sat May  9 15:28:36 2020, MaxMem= 1073741824 cpu:       0.2
 (Enter /home/matheus/.gaussian/g09/l401.exe)
 Harris functional with IExCor= 4639 diagonalized for initial guess.
 ExpMin= 2.53D-02 ExpMax= 1.17D+07 ExpMxC= 1.33D+04 IAcc=3 IRadAn=         5 AccDes= 0.00D+00
 HarFok:  IExCor= 4639 AccDes= 0.00D+00 IRadAn=         5 IDoV= 1
 ScaDFX=  1.000000  1.000000  1.000000  1.000000
 FoFCou: FMM=F IPFlag=           0 FMFlag=      100000 FMFlg1=           0
         NFxFlg=           0 DoJE=T BraDBF=F KetDBF=T FulRan=T
         Omega=  0.000000  0.000000  1.000000  0.000000  0.000000 ICntrl=     500 IOpCl=  0
         NMat0=    1 NMatS0=    1 NMatT0=    0 NMatD0=    1 NMtDS0=    0 NMtDT0=    0
         I1Cent=           4 NGrid=           0.
 Petite list used in FoFCou.
 Harris En= -2730.20499510379    
 Initial guess orbital symmetries:
       Occupied  (A) (A) (A) (A) (A) (A) (A) (A) (A) (A) (A) (A)
                 (A) (A) (A) (A) (A) (A)
       Virtual   (A) (A) (A) (A) (A) (A) (A) (A) (A) (A) (A) (A)
                 (A) (A) (A) (A) (A) (A) (A) (A) (A) (A) (A) (A)
                 (A) (A) (A) (A) (A) (A) (A) (A) (A) (A) (A) (A)
                 (A) (A) (A) (A) (A) (A) (A) (A) (A) (A) (A) (A)
                 (A) (A) (A) (A) (A) (A) (A) (A) (A) (A) (A) (A)
                 (A) (A) (A) (A) (A) (A) (A) (A) (A) (A) (A) (A)
                 (A) (A) (A) (A) (A) (A) (A) (A) (A) (A) (A) (A)
                 (A) (A) (A) (A) (A) (A) (A) (A) (A) (A) (A) (A)
                 (A) (A) (A) (A) (A) (A) (A) (A) (A) (A) (A) (A)
                 (A) (A) (A) (A) (A) (A) (A) (A) (A) (A) (A) (A)
                 (A) (A) (A) (A) (A) (A) (A) (A) (A) (A) (A) (A)
                 (A) (A) (A) (A) (A) (A) (A) (A) (A) (A) (A) (A)
                 (A) (A) (A) (A) (A) (A) (A) (A) (A) (A) (A) (A)
                 (A) (A) (A) (A) (A) (A) (A) (A) (A) (A) (A) (A)
                 (A) (A) (A) (A) (A) (A) (A) (A) (A) (A) (A)
 The electronic state of the initial guess is 1-A.
 Leave Link  401 at Sat May  9 15:28:37 2020, MaxMem= 1073741824 cpu:       4.6
 (Enter /home/matheus/.gaussian/g09/l502.exe)
 Closed shell SCF:
 Requested convergence on RMS density matrix=1.00D-08 within 128 cycles.
 Requested convergence on MAX density matrix=1.00D-06.
 Requested convergence on             energy=1.00D-06.
 No special actions if energy rises.
 Using DIIS extrapolation, IDIIS=  1040.
 Integral symmetry usage will be decided dynamically.
       126521 words used for storage of precomputed grid.
 IEnd=      305468 IEndB=      305468 NGot=  1073741824 MDV=  1073505667
 LenX=  1073505667 LenY=  1073452785
 Fock matrices will be formed incrementally for  20 cycles.

 Cycle   1  Pass 1  IDiag  1:
 FoFJK:  IHMeth= 1 ICntrl=     0 DoSepK=T KAlg= 1 I1Cent= 0 FoldK=F
 FoFCou: FMM=F IPFlag=           0 FMFlag=      100000 FMFlg1=           0
         NFxFlg=           0 DoJE=T BraDBF=F KetDBF=F FulRan=T
         Omega=  0.000000  0.000000  1.000000  0.000000  0.000000 ICntrl=     500 IOpCl=  0
         NMat0=    1 NMatS0=    1 NMatT0=    0 NMatD0=    1 NMtDS0=    0 NMtDT0=    0
         I1Cent=           0 NGrid=           0.
 Symmetry not used in FoFCou.
 E= -2753.46363170224    
 DIIS: error= 9.58D-02 at cycle   1 NSaved=   1.
 NSaved= 1 IEnMin= 1 EnMin= -2753.46363170224     IErMin= 1 ErrMin= 9.58D-02
 ErrMax= 9.58D-02 EMaxC= 1.00D-01 BMatC= 1.89D+00 BMatP= 1.89D+00
 IDIUse=3 WtCom= 4.23D-02 WtEn= 9.58D-01
 Coeff-Com:  0.100D+01
 Coeff-En:   0.100D+01
 Coeff:      0.100D+01
 Gap=     0.634 Goal=   None    Shift=    0.000
 GapD=    0.634 DampG=2.000 DampE=0.500 DampFc=1.0000 IDamp=-1.
 RMSDP=5.88D-03 MaxDP=3.79D-01              OVMax= 1.78D-01

 Cycle   2  Pass 1  IDiag  1:
 RMSU=  4.10D-03    CP:  1.04D+00
 FoFJK:  IHMeth= 1 ICntrl=     0 DoSepK=T KAlg= 1 I1Cent= 0 FoldK=F
 E= -2753.72343243567     Delta-E=       -0.259800733421 Rises=F Damp=F
 DIIS: error= 3.69D-02 at cycle   2 NSaved=   2.
 NSaved= 2 IEnMin= 2 EnMin= -2753.72343243567     IErMin= 2 ErrMin= 3.69D-02
 ErrMax= 3.69D-02 EMaxC= 1.00D-01 BMatC= 4.81D-01 BMatP= 1.89D+00
 IDIUse=3 WtCom= 6.31D-01 WtEn= 3.69D-01
 Coeff-Com:  0.330D+00 0.670D+00
 Coeff-En:   0.184D+00 0.816D+00
 Coeff:      0.276D+00 0.724D+00
 Gap=     0.472 Goal=   None    Shift=    0.000
 RMSDP=2.65D-03 MaxDP=1.65D-01 DE=-2.60D-01 OVMax= 7.99D-02

 Cycle   3  Pass 1  IDiag  1:
 RMSU=  3.86D-04    CP:  1.02D+00  5.57D-01
 FoFJK:  IHMeth= 1 ICntrl=     0 DoSepK=T KAlg= 1 I1Cent= 0 FoldK=F
 E= -2753.87059623951     Delta-E=       -0.147163803841 Rises=F Damp=F
 DIIS: error= 5.23D-03 at cycle   3 NSaved=   3.
 NSaved= 3 IEnMin= 3 EnMin= -2753.87059623951     IErMin= 3 ErrMin= 5.23D-03
 ErrMax= 5.23D-03 EMaxC= 1.00D-01 BMatC= 1.20D-02 BMatP= 4.81D-01
 IDIUse=3 WtCom= 9.48D-01 WtEn= 5.23D-02
 Coeff-Com: -0.563D-02 0.128D+00 0.878D+00
 Coeff-En:   0.000D+00 0.000D+00 0.100D+01
 Coeff:     -0.534D-02 0.121D+00 0.884D+00
 Gap=     0.503 Goal=   None    Shift=    0.000
 RMSDP=3.35D-04 MaxDP=1.89D-02 DE=-1.47D-01 OVMax= 1.34D-02

 Cycle   4  Pass 1  IDiag  1:
 RMSU=  4.40D-05    CP:  1.03D+00  6.12D-01  9.33D-01
 FoFJK:  IHMeth= 1 ICntrl=     0 DoSepK=T KAlg= 1 I1Cent= 0 FoldK=F
 E= -2753.87438416542     Delta-E=       -0.003787925914 Rises=F Damp=F
 DIIS: error= 2.47D-04 at cycle   4 NSaved=   4.
 NSaved= 4 IEnMin= 4 EnMin= -2753.87438416542     IErMin= 4 ErrMin= 2.47D-04
 ErrMax= 2.47D-04 EMaxC= 1.00D-01 BMatC= 2.57D-05 BMatP= 1.20D-02
 IDIUse=3 WtCom= 9.98D-01 WtEn= 2.47D-03
 Coeff-Com: -0.793D-03-0.155D-01-0.416D-01 0.106D+01
 Coeff-En:   0.000D+00 0.000D+00 0.000D+00 0.100D+01
 Coeff:     -0.791D-03-0.155D-01-0.415D-01 0.106D+01
 Gap=     0.500 Goal=   None    Shift=    0.000
 RMSDP=2.46D-05 MaxDP=9.48D-04 DE=-3.79D-03 OVMax= 8.30D-04

 Cycle   5  Pass 1  IDiag  1:
 RMSU=  1.15D-05    CP:  1.03D+00  6.10D-01  9.53D-01  1.10D+00
 FoFJK:  IHMeth= 1 ICntrl=     0 DoSepK=T KAlg= 1 I1Cent= 0 FoldK=F
 E= -2753.87439571386     Delta-E=       -0.000011548438 Rises=F Damp=F
 DIIS: error= 1.93D-05 at cycle   5 NSaved=   5.
 NSaved= 5 IEnMin= 5 EnMin= -2753.87439571386     IErMin= 5 ErrMin= 1.93D-05
 ErrMax= 1.93D-05 EMaxC= 1.00D-01 BMatC= 3.88D-08 BMatP= 2.57D-05
 IDIUse=1 WtCom= 1.00D+00 WtEn= 0.00D+00
 Coeff-Com:  0.117D-03-0.807D-03-0.851D-02-0.336D-01 0.104D+01
 Coeff:      0.117D-03-0.807D-03-0.851D-02-0.336D-01 0.104D+01
 Gap=     0.500 Goal=   None    Shift=    0.000
 RMSDP=2.55D-06 MaxDP=1.14D-04 DE=-1.15D-05 OVMax= 1.88D-04

 Cycle   6  Pass 1  IDiag  1:
 RMSU=  8.83D-07    CP:  1.03D+00  6.10D-01  9.53D-01  1.13D+00  1.09D+00
 FoFJK:  IHMeth= 1 ICntrl=     0 DoSepK=T KAlg= 1 I1Cent= 0 FoldK=F
 E= -2753.87439583703     Delta-E=       -0.000000123171 Rises=F Damp=F
 DIIS: error= 4.11D-06 at cycle   6 NSaved=   6.
 NSaved= 6 IEnMin= 6 EnMin= -2753.87439583703     IErMin= 6 ErrMin= 4.11D-06
 ErrMax= 4.11D-06 EMaxC= 1.00D-01 BMatC= 4.46D-09 BMatP= 3.88D-08
 IDIUse=1 WtCom= 1.00D+00 WtEn= 0.00D+00
 Coeff-Com:  0.937D-05 0.218D-03-0.397D-04-0.377D-01 0.792D-01 0.958D+00
 Coeff:      0.937D-05 0.218D-03-0.397D-04-0.377D-01 0.792D-01 0.958D+00
 Gap=     0.500 Goal=   None    Shift=    0.000
 RMSDP=6.11D-07 MaxDP=2.70D-05 DE=-1.23D-07 OVMax= 2.83D-05

 Cycle   7  Pass 1  IDiag  1:
 RMSU=  1.15D-07    CP:  1.03D+00  6.10D-01  9.54D-01  1.13D+00  1.12D+00
                    CP:  1.19D+00
 FoFJK:  IHMeth= 1 ICntrl=     0 DoSepK=T KAlg= 1 I1Cent= 0 FoldK=F
 E= -2753.87439584161     Delta-E=       -0.000000004586 Rises=F Damp=F
 DIIS: error= 5.32D-07 at cycle   7 NSaved=   7.
 NSaved= 7 IEnMin= 7 EnMin= -2753.87439584161     IErMin= 7 ErrMin= 5.32D-07
 ErrMax= 5.32D-07 EMaxC= 1.00D-01 BMatC= 6.36D-11 BMatP= 4.46D-09
 IDIUse=1 WtCom= 1.00D+00 WtEn= 0.00D+00
 Coeff-Com:  0.307D-06 0.756D-04 0.148D-03-0.964D-02 0.519D-02 0.239D+00
 Coeff-Com:  0.765D+00
 Coeff:      0.307D-06 0.756D-04 0.148D-03-0.964D-02 0.519D-02 0.239D+00
 Coeff:      0.765D+00
 Gap=     0.500 Goal=   None    Shift=    0.000
 RMSDP=4.97D-08 MaxDP=1.62D-06 DE=-4.59D-09 OVMax= 3.30D-06

 Cycle   8  Pass 1  IDiag  1:
 RMSU=  2.22D-08    CP:  1.03D+00  6.10D-01  9.54D-01  1.13D+00  1.12D+00
                    CP:  1.21D+00  1.02D+00
 FoFJK:  IHMeth= 1 ICntrl=     0 DoSepK=T KAlg= 1 I1Cent= 0 FoldK=F
 E= -2753.87439584168     Delta-E=       -0.000000000068 Rises=F Damp=F
 DIIS: error= 7.48D-08 at cycle   8 NSaved=   8.
 NSaved= 8 IEnMin= 8 EnMin= -2753.87439584168     IErMin= 8 ErrMin= 7.48D-08
 ErrMax= 7.48D-08 EMaxC= 1.00D-01 BMatC= 1.75D-12 BMatP= 6.36D-11
 IDIUse=1 WtCom= 1.00D+00 WtEn= 0.00D+00
 Coeff-Com: -0.126D-06-0.351D-05 0.224D-04 0.149D-02-0.282D-02-0.394D-01
 Coeff-Com:  0.130D-01 0.103D+01
 Coeff:     -0.126D-06-0.351D-05 0.224D-04 0.149D-02-0.282D-02-0.394D-01
 Coeff:      0.130D-01 0.103D+01
 Gap=     0.500 Goal=   None    Shift=    0.000
 RMSDP=2.05D-08 MaxDP=7.81D-07 DE=-6.82D-11 OVMax= 5.71D-07

 Cycle   9  Pass 1  IDiag  1:
 RMSU=  3.93D-09    CP:  1.03D+00  6.10D-01  9.54D-01  1.13D+00  1.12D+00
                    CP:  1.22D+00  1.07D+00  1.14D+00
 FoFJK:  IHMeth= 1 ICntrl=     0 DoSepK=T KAlg= 1 I1Cent= 0 FoldK=F
 E= -2753.87439584170     Delta-E=       -0.000000000019 Rises=F Damp=F
 DIIS: error= 9.01D-09 at cycle   9 NSaved=   9.
 NSaved= 9 IEnMin= 9 EnMin= -2753.87439584170     IErMin= 9 ErrMin= 9.01D-09
 ErrMax= 9.01D-09 EMaxC= 1.00D-01 BMatC= 7.69D-15 BMatP= 1.75D-12
 IDIUse=1 WtCom= 1.00D+00 WtEn= 0.00D+00
 Coeff-Com:  0.117D-07 0.214D-06-0.198D-05-0.136D-03 0.102D-03 0.446D-02
 Coeff-Com: -0.505D-02-0.158D+00 0.116D+01
 Coeff:      0.117D-07 0.214D-06-0.198D-05-0.136D-03 0.102D-03 0.446D-02
 Coeff:     -0.505D-02-0.158D+00 0.116D+01
 Gap=     0.500 Goal=   None    Shift=    0.000
 RMSDP=2.05D-09 MaxDP=8.82D-08 DE=-1.91D-11 OVMax= 9.74D-08

 SCF Done:  E(RwB97XD) =  -2753.87439584     A.U. after    9 cycles
             Convg  =    0.2047D-08             -V/T =  2.0013
 KE= 2.750248735045D+03 PE=-6.580186402702D+03 EE= 1.076063271815D+03
 Leave Link  502 at Sat May  9 15:29:13 2020, MaxMem= 1073741824 cpu:     285.8
 (Enter /home/matheus/.gaussian/g09/l601.exe)
 Copying SCF densities to generalized density rwf, IOpCl= 0 IROHF=0.

 **********************************************************************

            Population analysis using the SCF density.

 **********************************************************************

 Orbital symmetries:
       Occupied  (A) (A) (A) (A) (A) (A) (A) (A) (A) (A) (A) (A)
                 (A) (A) (A) (A) (A) (A)
       Virtual   (A) (A) (A) (A) (A) (A) (A) (A) (A) (A) (A) (A)
                 (A) (A) (A) (A) (A) (A) (A) (A) (A) (A) (A) (A)
                 (A) (A) (A) (A) (A) (A) (A) (A) (A) (A) (A) (A)
                 (A) (A) (A) (A) (A) (A) (A) (A) (A) (A) (A) (A)
                 (A) (A) (A) (A) (A) (A) (A) (A) (A) (A) (A) (A)
                 (A) (A) (A) (A) (A) (A) (A) (A) (A) (A) (A) (A)
                 (A) (A) (A) (A) (A) (A) (A) (A) (A) (A) (A) (A)
                 (A) (A) (A) (A) (A) (A) (A) (A) (A) (A) (A) (A)
                 (A) (A) (A) (A) (A) (A) (A) (A) (A) (A) (A) (A)
                 (A) (A) (A) (A) (A) (A) (A) (A) (A) (A) (A) (A)
                 (A) (A) (A) (A) (A) (A) (A) (A) (A) (A) (A) (A)
                 (A) (A) (A) (A) (A) (A) (A) (A) (A) (A) (A) (A)
                 (A) (A) (A) (A) (A) (A) (A) (A) (A) (A) (A) (A)
                 (A) (A) (A) (A) (A) (A) (A) (A) (A) (A) (A) (A)
                 (A) (A) (A) (A) (A) (A) (A) (A) (A) (A) (A)
 The electronic state is 1-A.
 Alpha  occ. eigenvalues -- -513.05945 -67.32604 -60.87482 -60.87481 -60.87480
 Alpha  occ. eigenvalues --   -9.77891  -7.47186  -7.47185  -7.47185  -3.33928
 Alpha  occ. eigenvalues --   -3.33928  -3.33927  -3.33927  -3.33927  -0.98487
 Alpha  occ. eigenvalues --   -0.46645  -0.46642  -0.46640
 Alpha virt. eigenvalues --    0.03363   0.05228   0.08775   0.10200   0.12417
 Alpha virt. eigenvalues --    0.13356   0.13971   0.14684   0.15964   0.17514
 Alpha virt. eigenvalues --    0.17927   0.18264   0.21137   0.25708   0.26085
 Alpha virt. eigenvalues --    0.26260   0.29377   0.30800   0.33215   0.36989
 Alpha virt. eigenvalues --    0.37743   0.39206   0.39793   0.40541   0.41837
 Alpha virt. eigenvalues --    0.42253   0.45903   0.52599   0.55754   0.57513
 Alpha virt. eigenvalues --    0.61285   0.63407   0.69534   0.70262   0.71619
 Alpha virt. eigenvalues --    0.72363   0.73116   0.74553   0.74815   0.76920
 Alpha virt. eigenvalues --    0.77591   0.82984   0.84694   0.86711   0.87853
 Alpha virt. eigenvalues --    0.89129   0.89762   0.90082   0.94945   0.96933
 Alpha virt. eigenvalues --    0.97675   0.98556   0.99028   1.00197   1.02536
 Alpha virt. eigenvalues --    1.03698   1.09475   1.11648   1.13172   1.14438
 Alpha virt. eigenvalues --    1.15948   1.24539   1.28039   1.32178   1.40068
 Alpha virt. eigenvalues --    1.40357   1.42562   1.43680   1.49159   1.52264
 Alpha virt. eigenvalues --    1.55308   1.60232   1.66382   1.72368   1.75632
 Alpha virt. eigenvalues --    1.79803   1.84179   1.87511   1.95350   2.14461
 Alpha virt. eigenvalues --    2.22820   2.23913   2.25814   2.27137   2.31276
 Alpha virt. eigenvalues --    2.32495   2.32802   2.37042   2.38938   2.40710
 Alpha virt. eigenvalues --    2.47227   2.47396   2.48110   2.50349   2.51107
 Alpha virt. eigenvalues --    2.53126   2.54132   2.58685   2.60373   2.60752
 Alpha virt. eigenvalues --    2.62193   2.64453   2.66215   2.68177   2.73313
 Alpha virt. eigenvalues --    2.76691   2.76805   2.82117   2.89244   2.90918
 Alpha virt. eigenvalues --    2.96393   3.00203   3.08977   3.15806   3.17286
 Alpha virt. eigenvalues --    3.27852   3.28634   3.29328   3.40266   3.55235
 Alpha virt. eigenvalues --    3.63493   3.66342   3.88890   3.88987   4.03086
 Alpha virt. eigenvalues --    4.42546   4.45177   4.52570   4.61560   4.68806
 Alpha virt. eigenvalues --    4.73461   4.84095   4.88150   4.96750   5.05220
 Alpha virt. eigenvalues --    5.12495   5.31363   5.52709   5.67761   5.70416
 Alpha virt. eigenvalues --    5.93512   6.03774   6.28589   6.71658   6.96138
 Alpha virt. eigenvalues --    7.27807   7.38723   7.65858   7.67581   7.80621
 Alpha virt. eigenvalues --    7.88518   8.03822   8.12997   8.15251   8.29266
 Alpha virt. eigenvalues --    8.31580   8.38458   8.72120   9.02800   9.51329
 Alpha virt. eigenvalues --    9.75174   9.78730   9.89461   9.91812   9.95343
 Alpha virt. eigenvalues --   10.21904  10.23349  10.74057  10.88191  11.45674
 Alpha virt. eigenvalues --   11.64087  11.68601  11.93811  12.07404  13.30548
 Alpha virt. eigenvalues --   13.60625  14.56733  62.38631  64.83226
          Condensed to atoms (all electrons):
              1          2          3          4          5
     1  O    0.002746  -0.000327  -0.002565   0.000578  -0.006062
     2  O   -0.000327   0.003106   0.000498  -0.002880  -0.005087
     3  H   -0.002565   0.000498   0.003359  -0.000289  -0.018107
     4  H    0.000578  -0.002880  -0.000289   0.003675  -0.019238
     5  Kr  -0.006062  -0.005087  -0.018107  -0.019238  36.094072
 Mulliken atomic charges:
              1
     1  O    0.005630
     2  O    0.004691
     3  H    0.017104
     4  H    0.018154
     5  Kr  -0.045578
 Sum of Mulliken atomic charges =   0.00000
 Mulliken charges with hydrogens summed into heavy atoms:
              1
     1  O    0.022733
     2  O    0.022845
     5  Kr  -0.045578
 Sum of Mulliken charges with hydrogens summed into heavy atoms =   0.00000
          Condensed to fragments (all electrons):
     1       0.045578
     2      -0.045578
 Electronic spatial extent (au):  <R**2>=            159.3634
 Charge=              0.0000 electrons
 Dipole moment (field-independent basis, Debye):
    X=              0.0010    Y=              0.0000    Z=             -0.0001  Tot=              0.0010
 Quadrupole moment (field-independent basis, Debye-Ang):
   XX=            -17.6267   YY=            -17.6379   ZZ=            -17.6487
   XY=              0.0001   XZ=              0.0013   YZ=             -0.0007
 Traceless Quadrupole moment (field-independent basis, Debye-Ang):
   XX=              0.0110   YY=             -0.0001   ZZ=             -0.0109
   XY=              0.0001   XZ=              0.0013   YZ=             -0.0007
 Octapole moment (field-independent basis, Debye-Ang**2):
  XXX=             51.0892  YYY=              0.0069  ZZZ=              0.0653  XYY=             17.0459
  XXY=              0.0020  XXZ=              0.0198  XZZ=             17.0532  YZZ=              0.0025
  YYZ=              0.0216  XYZ=              0.0003
 Hexadecapole moment (field-independent basis, Debye-Ang**3):
 XXXX=           -117.1331 YYYY=            -18.4443 ZZZZ=            -18.4677 XXXY=             -0.0061
 XXXZ=             -0.0593 YYYX=             -0.0063 YYYZ=              0.0004 ZZZX=             -0.0596
 ZZZY=             -0.0016 XXYY=            -22.6091 XXZZ=            -22.6177 YYZZ=             -6.1482
 XXYZ=             -0.0002 YYXZ=             -0.0204 ZZXY=             -0.0019
 N-N= 0.000000000000D+00 E-N=-6.580186403509D+03  KE= 2.750248735045D+03
 No NMR shielding tensors so no spin-rotation constants.
 Leave Link  601 at Sat May  9 15:29:13 2020, MaxMem= 1073741824 cpu:       0.7
 (Enter /home/matheus/.gaussian/g09/l122.exe)
 Counterpoise: doing MCBS calculation for fragment   1
 Leave Link  122 at Sat May  9 15:29:13 2020, MaxMem= 1073741824 cpu:       0.0
 (Enter /home/matheus/.gaussian/g09/l301.exe)
 Basis read from rwf:  (5D, 7F)
 No pseudopotential information found on rwf file.
 There are   138 symmetry adapted basis functions of A   symmetry.
 Integral buffers will be    131072 words long.
 Raffenetti 2 integral format.
 Two-electron integral symmetry is turned on.
   138 basis functions,   198 primitive gaussians,   160 cartesian basis functions
     9 alpha electrons        9 beta electrons
       nuclear repulsion energy        36.6659649233 Hartrees.
 IExCor= 4639 DFT=T Ex+Corr=wB97XD ExCW=0 ScaHFX=  1.000000
 ScaDFX=  1.000000  1.000000  1.000000  1.000000 ScalE2=  1.000000  1.000000
 IRadAn=      5 IRanWt=     -1 IRanGd=            0 ICorTp=0
  HFx wShort=  0.000000 wLong=  0.200000 cFull=  0.222036 cShort=  0.000000 cLong=  0.777964
  DFx wShort=  0.000000 wLong=  0.200000 cFull=  0.000000 cShort=  0.000000 cLong=  1.000000
 NAtoms=    5 NActive=    4 NUniq=    4 SFac= 1.00D+00 NAtFMM=   60 NAOKFM=F Big=F
 R6Disp: Dispersion energy =        -0.0002196121 Hartrees.
 Nuclear repulsion after empirical dispersion term =       36.6657453113 Hartrees.
 No density basis found on file   718.
 Leave Link  301 at Sat May  9 15:29:13 2020, MaxMem= 1073741824 cpu:       0.2
 (Enter /home/matheus/.gaussian/g09/l302.exe)
 NPDir=0 NMtPBC=     1 NCelOv=     1 NCel=       1 NClECP=     1 NCelD=      1
         NCelK=      1 NCelE2=     1 NClLst=     1 CellRange=     0.0.
 One-electron integrals computed using PRISM.
 NBasis=   138 RedAO= T  NBF=   138
 NBsUse=   138 1.00D-06 NBFU=   138
 Precomputing XC quadrature grid using
 IXCGrd= 2 IRadAn=           5 IRanWt=          -1 IRanGd=           0 AccXCQ= 0.00D+00.
 NRdTot=     344 NPtTot=       92556 NUsed=       95038 NTot=       95070
 NSgBfM=   160   160   160   160   160 NAtAll=     4     4.
 Leave Link  302 at Sat May  9 15:29:13 2020, MaxMem= 1073741824 cpu:       0.8
 (Enter /home/matheus/.gaussian/g09/l303.exe)
 DipDrv:  MaxL=1.
 Leave Link  303 at Sat May  9 15:29:13 2020, MaxMem= 1073741824 cpu:       0.2
 (Enter /home/matheus/.gaussian/g09/l401.exe)
 Harris functional with IExCor= 4639 diagonalized for initial guess.
 ExpMin= 2.53D-02 ExpMax= 1.53D+04 ExpMxC= 5.22D+02 IAcc=3 IRadAn=         5 AccDes= 0.00D+00
 HarFok:  IExCor= 4639 AccDes= 0.00D+00 IRadAn=         5 IDoV= 1
 ScaDFX=  1.000000  1.000000  1.000000  1.000000
 FoFCou: FMM=F IPFlag=           0 FMFlag=      100000 FMFlg1=           0
         NFxFlg=           0 DoJE=T BraDBF=F KetDBF=T FulRan=T
         Omega=  0.000000  0.000000  1.000000  0.000000  0.000000 ICntrl=     500 IOpCl=  0
         NMat0=    1 NMatS0=    1 NMatT0=    0 NMatD0=    1 NMtDS0=    0 NMtDT0=    0
         I1Cent=           4 NGrid=           0.
 Petite list used in FoFCou.
 Harris En= -146.290409150629    
 Initial guess orbital symmetries:
       Occupied  (A) (A) (A) (A) (A) (A) (A) (A) (A)
       Virtual   (A) (A) (A) (A) (A) (A) (A) (A) (A) (A) (A) (A)
                 (A) (A) (A) (A) (A) (A) (A) (A) (A) (A) (A) (A)
                 (A) (A) (A) (A) (A) (A) (A) (A) (A) (A) (A) (A)
                 (A) (A) (A) (A) (A) (A) (A) (A) (A) (A) (A) (A)
                 (A) (A) (A) (A) (A) (A) (A) (A) (A) (A) (A) (A)
                 (A) (A) (A) (A) (A) (A) (A) (A) (A) (A) (A) (A)
                 (A) (A) (A) (A) (A) (A) (A) (A) (A) (A) (A) (A)
                 (A) (A) (A) (A) (A) (A) (A) (A) (A) (A) (A) (A)
                 (A) (A) (A) (A) (A) (A) (A) (A) (A) (A) (A) (A)
                 (A) (A) (A) (A) (A) (A) (A) (A) (A) (A) (A) (A)
                 (A) (A) (A) (A) (A) (A) (A) (A) (A)
 The electronic state of the initial guess is 1-A.
 Leave Link  401 at Sat May  9 15:29:13 2020, MaxMem= 1073741824 cpu:       2.5
 (Enter /home/matheus/.gaussian/g09/l502.exe)
 Closed shell SCF:
 Requested convergence on RMS density matrix=1.00D-08 within 128 cycles.
 Requested convergence on MAX density matrix=1.00D-06.
 Requested convergence on             energy=1.00D-06.
 No special actions if energy rises.
 Using DIIS extrapolation, IDIIS=  1040.
 Integral symmetry usage will be decided dynamically.
        94980 words used for storage of precomputed grid.
 IEnd=      192360 IEndB=      192360 NGot=  1073741824 MDV=  1073591865
 LenX=  1073591865 LenY=  1073565824
 Fock matrices will be formed incrementally for  20 cycles.

 Cycle   1  Pass 1  IDiag  1:
 FoFJK:  IHMeth= 1 ICntrl=     0 DoSepK=T KAlg= 1 I1Cent= 0 FoldK=F
 FoFCou: FMM=F IPFlag=           0 FMFlag=      100000 FMFlg1=           0
         NFxFlg=           0 DoJE=T BraDBF=F KetDBF=F FulRan=T
         Omega=  0.000000  0.000000  1.000000  0.000000  0.000000 ICntrl=     500 IOpCl=  0
         NMat0=    1 NMatS0=    1 NMatT0=    0 NMatD0=    1 NMtDS0=    0 NMtDT0=    0
         I1Cent=           0 NGrid=           0.
 Symmetry not used in FoFCou.
 E= -151.471375289578    
 DIIS: error= 5.54D-02 at cycle   1 NSaved=   1.
 NSaved= 1 IEnMin= 1 EnMin= -151.471375289578     IErMin= 1 ErrMin= 5.54D-02
 ErrMax= 5.54D-02 EMaxC= 1.00D-01 BMatC= 2.97D-01 BMatP= 2.97D-01
 IDIUse=3 WtCom= 4.46D-01 WtEn= 5.54D-01
 Coeff-Com:  0.100D+01
 Coeff-En:   0.100D+01
 Coeff:      0.100D+01
 Gap=     0.486 Goal=   None    Shift=    0.000
 GapD=    0.486 DampG=2.000 DampE=0.500 DampFc=1.0000 IDamp=-1.
 RMSDP=3.47D-03 MaxDP=1.04D-01              OVMax= 1.09D-01

 Cycle   2  Pass 1  IDiag  1:
 RMSU=  2.40D-03    CP:  9.48D-01
 FoFJK:  IHMeth= 1 ICntrl=     0 DoSepK=T KAlg= 1 I1Cent= 0 FoldK=F
 E= -151.504667728513     Delta-E=       -0.033292438935 Rises=F Damp=F
 DIIS: error= 2.85D-02 at cycle   2 NSaved=   2.
 NSaved= 2 IEnMin= 2 EnMin= -151.504667728513     IErMin= 2 ErrMin= 2.85D-02
 ErrMax= 2.85D-02 EMaxC= 1.00D-01 BMatC= 8.41D-02 BMatP= 2.97D-01
 IDIUse=3 WtCom= 7.15D-01 WtEn= 2.85D-01
 Coeff-Com:  0.323D+00 0.677D+00
 Coeff-En:   0.338D+00 0.662D+00
 Coeff:      0.328D+00 0.672D+00
 Gap=     0.437 Goal=   None    Shift=    0.000
 RMSDP=1.50D-03 MaxDP=4.82D-02 DE=-3.33D-02 OVMax= 6.22D-02

 Cycle   3  Pass 1  IDiag  1:
 RMSU=  5.46D-04    CP:  9.72D-01  6.36D-01
 FoFJK:  IHMeth= 1 ICntrl=     0 DoSepK=T KAlg= 1 I1Cent= 0 FoldK=F
 E= -151.548747736972     Delta-E=       -0.044080008459 Rises=F Damp=F
 DIIS: error= 8.34D-03 at cycle   3 NSaved=   3.
 NSaved= 3 IEnMin= 3 EnMin= -151.548747736972     IErMin= 3 ErrMin= 8.34D-03
 ErrMax= 8.34D-03 EMaxC= 1.00D-01 BMatC= 7.43D-03 BMatP= 8.41D-02
 IDIUse=3 WtCom= 9.17D-01 WtEn= 8.34D-02
 Coeff-Com:  0.194D-01 0.240D+00 0.740D+00
 Coeff-En:   0.000D+00 0.000D+00 0.100D+01
 Coeff:      0.178D-01 0.220D+00 0.762D+00
 Gap=     0.383 Goal=   None    Shift=    0.000
[...]
 Using DIIS extrapolation, IDIIS=  1040.
 Integral symmetry usage will be decided dynamically.
       126823 words used for storage of precomputed grid.
 IEnd=      305770 IEndB=      305770 NGot=  1073741824 MDV=  1073505365
 LenX=  1073505365 LenY=  1073452483
 Fock matrices will be formed incrementally for  20 cycles.

 Cycle   1  Pass 1  IDiag  1:
 FoFJK:  IHMeth= 1 ICntrl=     0 DoSepK=T KAlg= 1 I1Cent= 0 FoldK=F
 FoFCou: FMM=F IPFlag=           0 FMFlag=      100000 FMFlg1=           0
         NFxFlg=           0 DoJE=T BraDBF=F KetDBF=F FulRan=T
         Omega=  0.000000  0.000000  1.000000  0.000000  0.000000 ICntrl=     500 IOpCl=  0
         NMat0=    1 NMatS0=    1 NMatT0=    0 NMatD0=    1 NMtDS0=    0 NMtDT0=    0
         I1Cent=           0 NGrid=           0.
 Symmetry not used in FoFCou.
 E= -2753.87423952422    
 DIIS: error= 1.65D-04 at cycle   1 NSaved=   1.
 NSaved= 1 IEnMin= 1 EnMin= -2753.87423952422     IErMin= 1 ErrMin= 1.65D-04
 ErrMax= 1.65D-04 EMaxC= 1.00D-01 BMatC= 4.02D-06 BMatP= 4.02D-06
 IDIUse=3 WtCom= 9.98D-01 WtEn= 1.65D-03
 Coeff-Com:  0.100D+01
 Coeff-En:   0.100D+01
 Coeff:      0.100D+01
 Gap=     0.498 Goal=   None    Shift=    0.000
 RMSDP=1.65D-05 MaxDP=7.50D-04              OVMax= 4.03D-04

 Cycle   2  Pass 1  IDiag  1:
 RMSU=  1.17D-05    CP:  1.00D+00
 FoFJK:  IHMeth= 1 ICntrl=     0 DoSepK=T KAlg= 1 I1Cent= 0 FoldK=F
 E= -2753.87424027856     Delta-E=       -0.000000754339 Rises=F Damp=F
 DIIS: error= 7.20D-06 at cycle   2 NSaved=   2.
 NSaved= 2 IEnMin= 2 EnMin= -2753.87424027856     IErMin= 2 ErrMin= 7.20D-06
 ErrMax= 7.20D-06 EMaxC= 1.00D-01 BMatC= 5.98D-09 BMatP= 4.02D-06
 IDIUse=1 WtCom= 1.00D+00 WtEn= 0.00D+00
 Coeff-Com: -0.128D-01 0.101D+01
 Coeff:     -0.128D-01 0.101D+01
 Gap=     0.498 Goal=   None    Shift=    0.000
 RMSDP=1.44D-06 MaxDP=5.18D-05 DE=-7.54D-07 OVMax= 6.09D-05

 Cycle   3  Pass 1  IDiag  1:
 RMSU=  5.12D-07    CP:  1.00D+00  1.08D+00
 FoFJK:  IHMeth= 1 ICntrl=     0 DoSepK=T KAlg= 1 I1Cent= 0 FoldK=F
 E= -2753.87424028929     Delta-E=       -0.000000010737 Rises=F Damp=F
 DIIS: error= 1.41D-06 at cycle   3 NSaved=   3.
 NSaved= 3 IEnMin= 3 EnMin= -2753.87424028929     IErMin= 3 ErrMin= 1.41D-06
 ErrMax= 1.41D-06 EMaxC= 1.00D-01 BMatC= 1.93D-10 BMatP= 5.98D-09
 IDIUse=1 WtCom= 1.00D+00 WtEn= 0.00D+00
 Coeff-Com: -0.443D-03-0.686D-01 0.107D+01
 Coeff:     -0.443D-03-0.686D-01 0.107D+01
 Gap=     0.498 Goal=   None    Shift=    0.000
 RMSDP=1.89D-07 MaxDP=6.59D-06 DE=-1.07D-08 OVMax= 1.18D-05

 Cycle   4  Pass 1  IDiag  1:
 RMSU=  5.89D-08    CP:  1.00D+00  1.08D+00  1.22D+00
 FoFJK:  IHMeth= 1 ICntrl=     0 DoSepK=T KAlg= 1 I1Cent= 0 FoldK=F
 E= -2753.87424028960     Delta-E=       -0.000000000304 Rises=F Damp=F
 DIIS: error= 7.01D-07 at cycle   4 NSaved=   4.
 NSaved= 4 IEnMin= 4 EnMin= -2753.87424028960     IErMin= 4 ErrMin= 7.01D-07
 ErrMax= 7.01D-07 EMaxC= 1.00D-01 BMatC= 3.66D-11 BMatP= 1.93D-10
 IDIUse=1 WtCom= 1.00D+00 WtEn= 0.00D+00
 Coeff-Com:  0.266D-03-0.534D-01 0.328D+00 0.725D+00
 Coeff:      0.266D-03-0.534D-01 0.328D+00 0.725D+00
 Gap=     0.498 Goal=   None    Shift=    0.000
 RMSDP=3.16D-08 MaxDP=1.02D-06 DE=-3.04D-10 OVMax= 2.08D-06

 Cycle   5  Pass 1  IDiag  1:
 RMSU=  1.36D-08    CP:  1.00D+00  1.08D+00  1.25D+00  9.95D-01
 FoFJK:  IHMeth= 1 ICntrl=     0 DoSepK=T KAlg= 1 I1Cent= 0 FoldK=F
 E= -2753.87424028963     Delta-E=       -0.000000000031 Rises=F Damp=F
 DIIS: error= 4.41D-08 at cycle   5 NSaved=   5.
 NSaved= 5 IEnMin= 5 EnMin= -2753.87424028963     IErMin= 5 ErrMin= 4.41D-08
 ErrMax= 4.41D-08 EMaxC= 1.00D-01 BMatC= 2.32D-13 BMatP= 3.66D-11
 IDIUse=1 WtCom= 1.00D+00 WtEn= 0.00D+00
 Coeff-Com:  0.577D-05 0.156D-02-0.232D-01-0.330D-03 0.102D+01
 Coeff:      0.577D-05 0.156D-02-0.232D-01-0.330D-03 0.102D+01
 Gap=     0.498 Goal=   None    Shift=    0.000
 RMSDP=1.07D-08 MaxDP=4.56D-07 DE=-3.09D-11 OVMax= 4.07D-07

 Cycle   6  Pass 1  IDiag  1:
 RMSU=  1.42D-09    CP:  1.00D+00  1.08D+00  1.26D+00  1.05D+00  1.16D+00
 FoFJK:  IHMeth= 1 ICntrl=     0 DoSepK=T KAlg= 1 I1Cent= 0 FoldK=F
 E= -2753.87424028962     Delta-E=        0.000000000011 Rises=F Damp=F
 DIIS: error= 1.46D-08 at cycle   6 NSaved=   6.
 NSaved= 6 IEnMin= 5 EnMin= -2753.87424028963     IErMin= 6 ErrMin= 1.46D-08
 ErrMax= 1.46D-08 EMaxC= 1.00D-01 BMatC= 3.62D-14 BMatP= 2.32D-13
 IDIUse=1 WtCom= 1.00D+00 WtEn= 0.00D+00
 Coeff-Com: -0.124D-04 0.337D-02-0.248D-01-0.371D-01 0.307D+00 0.751D+00
 Coeff:     -0.124D-04 0.337D-02-0.248D-01-0.371D-01 0.307D+00 0.751D+00
 Gap=     0.498 Goal=   None    Shift=    0.000
 RMSDP=1.65D-09 MaxDP=6.84D-08 DE= 1.14D-11 OVMax= 8.20D-08

 SCF Done:  E(RwB97XD) =  -2753.87424029     A.U. after    6 cycles
             Convg  =    0.1646D-08             -V/T =  2.0013
 KE= 2.750294799342D+03 PE=-6.580235461867D+03 EE= 1.076066422234D+03
 Leave Link  502 at Sat May  9 15:54:36 2020, MaxMem= 1073741824 cpu:     118.2
 (Enter /home/matheus/.gaussian/g09/l122.exe)
 Restoring MOs from calculation   4 to rwf.
 Counterpoise: doing MCBS calculation for fragment   1
 Leave Link  122 at Sat May  9 15:54:36 2020, MaxMem= 1073741824 cpu:       0.0
 (Enter /home/matheus/.gaussian/g09/l301.exe)
 Basis read from rwf:  (5D, 7F)
 No pseudopotential information found on rwf file.
 There are   138 symmetry adapted basis functions of A   symmetry.
 Integral buffers will be    131072 words long.
 Raffenetti 2 integral format.
 Two-electron integral symmetry is turned on.
   138 basis functions,   198 primitive gaussians,   160 cartesian basis functions
     9 alpha electrons        9 beta electrons
       nuclear repulsion energy        36.6659649233 Hartrees.
 IExCor= 4639 DFT=T Ex+Corr=wB97XD ExCW=0 ScaHFX=  1.000000
 ScaDFX=  1.000000  1.000000  1.000000  1.000000 ScalE2=  1.000000  1.000000
 IRadAn=      5 IRanWt=     -1 IRanGd=            0 ICorTp=0
  HFx wShort=  0.000000 wLong=  0.200000 cFull=  0.222036 cShort=  0.000000 cLong=  0.777964
  DFx wShort=  0.000000 wLong=  0.200000 cFull=  0.000000 cShort=  0.000000 cLong=  1.000000
 NAtoms=    5 NActive=    4 NUniq=    4 SFac= 1.00D+00 NAtFMM=   60 NAOKFM=F Big=F
 R6Disp: Dispersion energy =        -0.0002196121 Hartrees.
 Nuclear repulsion after empirical dispersion term =       36.6657453113 Hartrees.
 No density basis found on file   718.
 Leave Link  301 at Sat May  9 15:54:36 2020, MaxMem= 1073741824 cpu:       0.2
 (Enter /home/matheus/.gaussian/g09/l302.exe)
 NPDir=0 NMtPBC=     1 NCelOv=     1 NCel=       1 NClECP=     1 NCelD=      1
         NCelK=      1 NCelE2=     1 NClLst=     1 CellRange=     0.0.
 One-electron integrals computed using PRISM.
 NBasis=   138 RedAO= T  NBF=   138
 NBsUse=   138 1.00D-06 NBFU=   138
 Precomputing XC quadrature grid using
 IXCGrd= 2 IRadAn=           5 IRanWt=          -1 IRanGd=           0 AccXCQ= 0.00D+00.
 NRdTot=     344 NPtTot=       92556 NUsed=       95038 NTot=       95070
 NSgBfM=   160   160   160   160   160 NAtAll=     4     4.
 Leave Link  302 at Sat May  9 15:54:36 2020, MaxMem= 1073741824 cpu:       0.8
 (Enter /home/matheus/.gaussian/g09/l303.exe)
 DipDrv:  MaxL=1.
 Leave Link  303 at Sat May  9 15:54:36 2020, MaxMem= 1073741824 cpu:       0.2
 (Enter /home/matheus/.gaussian/g09/l401.exe)
 Initial guess read from the read-write file.
 Guess basis will be translated and rotated to current coordinates.
 Initial guess orbital symmetries:
       Occupied  (A) (A) (A) (A) (A) (A) (A) (A) (A)
       Virtual   (A) (A) (A) (A) (A) (A) (A) (A) (A) (A) (A) (A)
                 (A) (A) (A) (A) (A) (A) (A) (A) (A) (A) (A) (A)
                 (A) (A) (A) (A) (A) (A) (A) (A) (A) (A) (A) (A)
                 (A) (A) (A) (A) (A) (A) (A) (A) (A) (A) (A) (A)
                 (A) (A) (A) (A) (A) (A) (A) (A) (A) (A) (A) (A)
                 (A) (A) (A) (A) (A) (A) (A) (A) (A) (A) (A) (A)
                 (A) (A) (A) (A) (A) (A) (A) (A) (A) (A) (A) (A)
                 (A) (A) (A) (A) (A) (A) (A) (A) (A) (A) (A) (A)
                 (A) (A) (A) (A) (A) (A) (A) (A) (A) (A) (A) (A)
                 (A) (A) (A) (A) (A) (A) (A) (A) (A) (A) (A) (A)
                 (A) (A) (A) (A) (A) (A) (A) (A) (A)
 The electronic state of the initial guess is 1-A.
 Generating alternative initial guess.
 Harris functional with IExCor= 4639 diagonalized for initial guess.
 ExpMin= 2.53D-02 ExpMax= 1.53D+04 ExpMxC= 5.22D+02 IAcc=3 IRadAn=         5 AccDes= 0.00D+00
 HarFok:  IExCor= 4639 AccDes= 0.00D+00 IRadAn=         5 IDoV= 1
 ScaDFX=  1.000000  1.000000  1.000000  1.000000
 FoFCou: FMM=F IPFlag=           0 FMFlag=      100000 FMFlg1=           0
         NFxFlg=           0 DoJE=T BraDBF=F KetDBF=T FulRan=T
         Omega=  0.000000  0.000000  1.000000  0.000000  0.000000 ICntrl=     500 IOpCl=  0
         NMat0=    1 NMatS0=    1 NMatT0=    0 NMatD0=    1 NMtDS0=    0 NMtDT0=    0
         I1Cent=           4 NGrid=           0.
 Petite list used in FoFCou.
 Harris En= -146.290409150721    
 Leave Link  401 at Sat May  9 15:54:36 2020, MaxMem= 1073741824 cpu:       2.8
 (Enter /home/matheus/.gaussian/g09/l502.exe)
 Closed shell SCF:
 Requested convergence on RMS density matrix=1.00D-08 within 128 cycles.
 Requested convergence on MAX density matrix=1.00D-06.
 Requested convergence on             energy=1.00D-06.
 No special actions if energy rises.
 Using DIIS extrapolation, IDIIS=  1040.
 Integral symmetry usage will be decided dynamically.
        94980 words used for storage of precomputed grid.
 IEnd=      192360 IEndB=      192360 NGot=  1073741824 MDV=  1073591865
 LenX=  1073591865 LenY=  1073565824
 Fock matrices will be formed incrementally for  20 cycles.

 Cycle   1  Pass 1  IDiag  1:
 FoFJK:  IHMeth= 1 ICntrl=     0 DoSepK=T KAlg= 1 I1Cent= 0 FoldK=F
 FoFCou: FMM=F IPFlag=           0 FMFlag=      100000 FMFlg1=           0
         NFxFlg=           0 DoJE=T BraDBF=F KetDBF=F FulRan=T
         Omega=  0.000000  0.000000  1.000000  0.000000  0.000000 ICntrl=     500 IOpCl=  0
         NMat0=    1 NMatS0=    1 NMatT0=    0 NMatD0=    1 NMtDS0=    0 NMtDT0=    0
         I1Cent=           0 NGrid=           0.
 Symmetry not used in FoFCou.
 E= -151.553663689411    
 DIIS: error= 9.38D-07 at cycle   1 NSaved=   1.
 NSaved= 1 IEnMin= 1 EnMin= -151.553663689411     IErMin= 1 ErrMin= 9.38D-07
 ErrMax= 9.38D-07 EMaxC= 1.00D-01 BMatC= 9.58D-11 BMatP= 9.58D-11
 IDIUse=1 WtCom= 1.00D+00 WtEn= 0.00D+00
 Coeff-Com:  0.100D+01
 Coeff:      0.100D+01
 Gap=     0.379 Goal=   None    Shift=    0.000
 RMSDP=8.28D-08 MaxDP=2.15D-06              OVMax= 3.56D-06

 Cycle   2  Pass 1  IDiag  1:
 RMSU=  5.86D-08    CP:  1.00D+00
 FoFJK:  IHMeth= 1 ICntrl=     0 DoSepK=T KAlg= 1 I1Cent= 0 FoldK=F
 E= -151.553663689511     Delta-E=       -0.000000000100 Rises=F Damp=F
 DIIS: error= 1.70D-07 at cycle   2 NSaved=   2.
 NSaved= 2 IEnMin= 2 EnMin= -151.553663689511     IErMin= 2 ErrMin= 1.70D-07
 ErrMax= 1.70D-07 EMaxC= 1.00D-01 BMatC= 4.93D-12 BMatP= 9.58D-11
 IDIUse=1 WtCom= 1.00D+00 WtEn= 0.00D+00
 Coeff-Com: -0.522D-01 0.105D+01
 Coeff:     -0.522D-01 0.105D+01
 Gap=     0.379 Goal=   None    Shift=    0.000
 RMSDP=2.21D-08 MaxDP=6.36D-07 DE=-1.00D-10 OVMax= 9.61D-07

 Cycle   3  Pass 1  IDiag  1:
 RMSU=  9.32D-09    CP:  1.00D+00  1.21D+00
 FoFJK:  IHMeth= 1 ICntrl=     0 DoSepK=T KAlg= 1 I1Cent= 0 FoldK=F
 E= -151.553663689513     Delta-E=       -0.000000000002 Rises=F Damp=F
 DIIS: error= 1.90D-07 at cycle   3 NSaved=   3.
 NSaved= 3 IEnMin= 3 EnMin= -151.553663689513     IErMin= 2 ErrMin= 1.70D-07
 ErrMax= 1.90D-07 EMaxC= 1.00D-01 BMatC= 3.14D-12 BMatP= 4.93D-12
 IDIUse=1 WtCom= 1.00D+00 WtEn= 0.00D+00
 Coeff-Com: -0.560D-01 0.476D+00 0.579D+00
 Coeff:     -0.560D-01 0.476D+00 0.579D+00
 Gap=     0.379 Goal=   None    Shift=    0.000
 RMSDP=8.42D-09 MaxDP=2.21D-07 DE=-2.33D-12 OVMax= 5.35D-07

 SCF Done:  E(RwB97XD) =  -151.553663690     A.U. after    3 cycles
             Convg  =    0.8417D-08             -V/T =  2.0057
 KE= 1.506997917425D+02 PE=-4.318026906879D+02 EE= 9.288348994463D+01
 Leave Link  502 at Sat May  9 15:54:40 2020, MaxMem= 1073741824 cpu:      25.4
 (Enter /home/matheus/.gaussian/g09/l122.exe)
 Restoring MOs from calculation   5 to rwf.
 Counterpoise: doing MCBS calculation for fragment   2
 Leave Link  122 at Sat May  9 15:54:40 2020, MaxMem= 1073741824 cpu:       0.0
 (Enter /home/matheus/.gaussian/g09/l301.exe)
 Basis read from rwf:  (5D, 7F)
 No pseudopotential information found on rwf file.
 There are    59 symmetry adapted basis functions of A   symmetry.
 Integral buffers will be    131072 words long.
 Raffenetti 2 integral format.
 Two-electron integral symmetry is turned on.
    59 basis functions,   217 primitive gaussians,    69 cartesian basis functions
    18 alpha electrons       18 beta electrons
       nuclear repulsion energy         0.0000000000 Hartrees.
 IExCor= 4639 DFT=T Ex+Corr=wB97XD ExCW=0 ScaHFX=  1.000000
 ScaDFX=  1.000000  1.000000  1.000000  1.000000 ScalE2=  1.000000  1.000000
 IRadAn=      5 IRanWt=     -1 IRanGd=            0 ICorTp=0
  HFx wShort=  0.000000 wLong=  0.200000 cFull=  0.222036 cShort=  0.000000 cLong=  0.777964
  DFx wShort=  0.000000 wLong=  0.200000 cFull=  0.000000 cShort=  0.000000 cLong=  1.000000
 NAtoms=    5 NActive=    1 NUniq=    1 SFac= 1.00D+00 NAtFMM=   60 NAOKFM=F Big=F
 R6Disp: Dispersion energy =         0.0000000000 Hartrees.
 Nuclear repulsion after empirical dispersion term =        0.0000000000 Hartrees.
 No density basis found on file   718.
 Leave Link  301 at Sat May  9 15:54:40 2020, MaxMem= 1073741824 cpu:       0.2
 (Enter /home/matheus/.gaussian/g09/l302.exe)
 NPDir=0 NMtPBC=     1 NCelOv=     1 NCel=       1 NClECP=     1 NCelD=      1
         NCelK=      1 NCelE2=     1 NClLst=     1 CellRange=     0.0.
 One-electron integrals computed using PRISM.
 NBasis=    59 RedAO= T  NBF=    59
 NBsUse=    59 1.00D-06 NBFU=    59
 Precomputing XC quadrature grid using
 IXCGrd= 2 IRadAn=           5 IRanWt=          -1 IRanGd=           0 AccXCQ= 0.00D+00.
 NRdTot=      81 NPtTot=       30352 NUsed=       30981 NTot=       31013
 NSgBfM=    69    69    69    69    69 NAtAll=     1     1.
 Leave Link  302 at Sat May  9 15:54:40 2020, MaxMem= 1073741824 cpu:       0.7
 (Enter /home/matheus/.gaussian/g09/l303.exe)
 DipDrv:  MaxL=1.
 Leave Link  303 at Sat May  9 15:54:40 2020, MaxMem= 1073741824 cpu:       0.2
 (Enter /home/matheus/.gaussian/g09/l401.exe)
 Initial guess read from the read-write file.
 Guess basis will be translated and rotated to current coordinates.
 Initial guess orbital symmetries:
       Occupied  (A) (A) (A) (A) (A) (A) (A) (A) (A) (A) (A) (A)
                 (A) (A) (A) (A) (A) (A)
       Virtual   (A) (A) (A) (A) (A) (A) (A) (A) (A) (A) (A) (A)
                 (A) (A) (A) (A) (A) (A) (A) (A) (A) (A) (A) (A)
                 (A) (A) (A) (A) (A) (A) (A) (A) (A) (A) (A) (A)
                 (A) (A) (A) (A) (A)
 The electronic state of the initial guess is 1-A.
 Generating alternative initial guess.
 Harris functional with IExCor= 4639 diagonalized for initial guess.
 ExpMin= 4.00D-02 ExpMax= 1.17D+07 ExpMxC= 1.33D+04 IAcc=3 IRadAn=         5 AccDes= 0.00D+00
 HarFok:  IExCor= 4639 AccDes= 0.00D+00 IRadAn=         5 IDoV= 1
 ScaDFX=  1.000000  1.000000  1.000000  1.000000
 FoFCou: FMM=F IPFlag=           0 FMFlag=      100000 FMFlg1=           0
         NFxFlg=           0 DoJE=T BraDBF=F KetDBF=T FulRan=T
         Omega=  0.000000  0.000000  1.000000  0.000000  0.000000 ICntrl=     500 IOpCl=  0
         NMat0=    1 NMatS0=    1 NMatT0=    0 NMatD0=    1 NMtDS0=    0 NMtDT0=    0
         I1Cent=           4 NGrid=           0.
 Petite list used in FoFCou.
 Harris En= -2730.20235208354    
 Leave Link  401 at Sat May  9 15:54:40 2020, MaxMem= 1073741824 cpu:       1.2
 (Enter /home/matheus/.gaussian/g09/l502.exe)
 Closed shell SCF:
 Requested convergence on RMS density matrix=1.00D-08 within 128 cycles.
 Requested convergence on MAX density matrix=1.00D-06.
 Requested convergence on             energy=1.00D-06.
 No special actions if energy rises.
 Using DIIS extrapolation, IDIIS=  1040.
 Integral symmetry usage will be decided dynamically.
        30923 words used for storage of precomputed grid.
 IEnd=       64406 IEndB=       64406 NGot=  1073741824 MDV=  1073698889
 LenX=  1073698889 LenY=  1073693687
 Fock matrices will be formed incrementally for  20 cycles.

 Cycle   1  Pass 1  IDiag  1:
 FoFJK:  IHMeth= 1 ICntrl=     0 DoSepK=T KAlg= 1 I1Cent= 0 FoldK=F
 FoFCou: FMM=F IPFlag=           0 FMFlag=      100000 FMFlg1=           0
         NFxFlg=           0 DoJE=T BraDBF=F KetDBF=F FulRan=T
         Omega=  0.000000  0.000000  1.000000  0.000000  0.000000 ICntrl=     500 IOpCl=  0
         NMat0=    1 NMatS0=    1 NMatT0=    0 NMatD0=    1 NMtDS0=    0 NMtDT0=    0
         I1Cent=           0 NGrid=           0.
 Symmetry not used in FoFCou.
 E= -2753.87421986326    
 DIIS: error= 1.67D-13 at cycle   1 NSaved=   1.
 NSaved= 1 IEnMin= 1 EnMin= -2753.87421986326     IErMin= 1 ErrMin= 1.67D-13
 ErrMax= 1.67D-13 EMaxC= 1.00D-01 BMatC= 1.11D-24 BMatP= 1.11D-24
 IDIUse=1 WtCom= 1.00D+00 WtEn= 0.00D+00
 Coeff-Com:  0.100D+01
 Coeff:      0.100D+01
 Gap=     0.562 Goal=   None    Shift=    0.000
 RMSDP=1.82D-14 MaxDP=4.62D-13              OVMax= 1.35D-13

 SCF Done:  E(RwB97XD) =  -2753.87421986     A.U. after    1 cycles
             Convg  =    0.1816D-13             -V/T =  2.0013
 KE= 2.750300381543D+03 PE=-6.580241205809D+03 EE= 1.076066604402D+03
 Leave Link  502 at Sat May  9 15:54:42 2020, MaxMem= 1073741824 cpu:      13.0
 (Enter /home/matheus/.gaussian/g09/l122.exe)
 Restoring MOs from calculation   1 to rwf.
 Counterpoise: corrected energy =   -2905.428346278115
 Counterpoise: BSSE energy =       0.000024748345
 Leave Link  122 at Sat May  9 15:54:42 2020, MaxMem= 1073741824 cpu:       0.0
 (Enter /home/matheus/.gaussian/g09/l108.exe)
 Scan completed.

 Summary of the potential surface scan:
   N      R1          SCF    
 ----  ---------  -----------
    1     3.0000  -2753.87422
    2     3.1000  -2753.87422
    3     3.2000  -2753.87422
    4     3.3000  -2753.87422
    5     3.4000  -2753.87422
    6     3.5000  -2753.87422
    7     3.6000  -2753.87422
    8     3.7000  -2753.87422
    9     3.8000  -2753.87422
   10     3.9000  -2753.87422
   11     4.0000  -2753.87422
   12     4.1000  -2753.87422
   13     4.2000  -2753.87422
   14     4.3000  -2753.87422
   15     4.4000  -2753.87422
   16     4.5000  -2753.87422
   17     4.6000  -2753.87422
   18     4.7000  -2753.87422
   19     4.8000  -2753.87422
   20     4.9000  -2753.87422
   21     5.0000  -2753.87422
 ----  ---------  -----------
  
 Leave Link  108 at Sat May  9 15:54:42 2020, MaxMem= 1073741824 cpu:       0.0
 (Enter /home/matheus/.gaussian/g09/l9999.exe)
 1\1\GINC-REDGIANT\Scan\RwB97XD\Aug-CC-pVTZ\H2Kr1O2\MATHEUS\09-May-2020
 \1\\#p wb97xd/aug-cc-PVTz int=ultrafine counterpoise=2 Scan\\TCC\\0,1\
 O,0,0.,0.,0.725\O,0,0.,0.,-0.725\H,0,0.1595341571,0.9047631646,1.02351
 04166\H,0,0.,0.9187205947,-1.0235104166\Kr,0,0.,R1,0.\\R1=3.,s,20,0.1\
 \Version=EM64L-G09RevC.01\State=1-A\HF=-2753.8742199,-2753.8742199,-27
 53.8742199,-2753.8742199,-2753.8742199,-2753.8742199,-2753.8742199,-27
 53.8742199,-2753.8742199,-2753.8742199,-2753.8742199,-2753.8742199,-27
 53.8742199,-2753.8742199,-2753.8742199,-2753.8742199,-2753.8742199,-27
 53.8742199,-2753.8742199,-2753.8742199,-2753.8742199\RMSD=9.120e-09,1.
 920e-10,6.363e-11,4.203e-11,2.496e-11,1.570e-11,9.721e-12,6.055e-12,3.
 765e-12,2.337e-12,1.448e-12,9.030e-13,5.631e-13,3.524e-13,2.169e-13,1.
 340e-13,8.186e-14,5.197e-14,3.048e-14,1.773e-14,1.816e-14\PG=C01 [X(H2
 Kr1O2)]\\@


     "IF I COULD JUST GET IT ON PAPER"
 LIFE AND INK, THEY RUN OUT AT THE SAME TIME,
 OR SO SAID MY OLD FRIEND THE SQUID.
     -- JIMMY BUFFETT, 1981
 Job cpu time:  0 days  3 hours 39 minutes 36.7 seconds.
 File lengths (MBytes):  RWF=     33 Int=      0 D2E=      0 Chk=      8 Scr=      1
 Normal termination of Gaussian 09 at Sat May  9 15:54:42 2020.
