 Entering Gaussian System, Link 0=g09
 Input=/home/matheus/.tcc/Inputs/Inputs-wb97xd-default/H2O2-Kr_14.com
 Output=/home/matheus/.tcc/Logs/Logs-wb97xd-default/H2O2-Kr_14.log
 Initial command:
 /home/matheus/.gaussian/g09/l1.exe /home/matheus/.gaussian/g09/scratch/Gau-11636.inp -scrdir=/home/matheus/.gaussian/g09/scratch/
 Entering Link 1 = /home/matheus/.gaussian/g09/l1.exe PID=     11640.
  
 Copyright (c) 1988,1990,1992,1993,1995,1998,2003,2009,2011,
            Gaussian, Inc.  All Rights Reserved.
  
 This is part of the Gaussian(R) 09 program.  It is based on
 the Gaussian(R) 03 system (copyright 2003, Gaussian, Inc.),
 the Gaussian(R) 98 system (copyright 1998, Gaussian, Inc.),
 the Gaussian(R) 94 system (copyright 1995, Gaussian, Inc.),
 the Gaussian 92(TM) system (copyright 1992, Gaussian, Inc.),
 the Gaussian 90(TM) system (copyright 1990, Gaussian, Inc.),
 the Gaussian 88(TM) system (copyright 1988, Gaussian, Inc.),
 the Gaussian 86(TM) system (copyright 1986, Carnegie Mellon
 University), and the Gaussian 82(TM) system (copyright 1983,
 Carnegie Mellon University). Gaussian is a federally registered
 trademark of Gaussian, Inc.
  
 This software contains proprietary and confidential information,
 including trade secrets, belonging to Gaussian, Inc.
  
 This software is provided under written license and may be
 used, copied, transmitted, or stored only in accord with that
 written license.
  
 The following legend is applicable only to US Government
 contracts under FAR:
  
                    RESTRICTED RIGHTS LEGEND
  
 Use, reproduction and disclosure by the US Government is
 subject to restrictions as set forth in subparagraphs (a)
 and (c) of the Commercial Computer Software - Restricted
 Rights clause in FAR 52.227-19.
  
 Gaussian, Inc.
 340 Quinnipiac St., Bldg. 40, Wallingford CT 06492
  
  
 ---------------------------------------------------------------
 Warning -- This program may not be used in any manner that
 competes with the business of Gaussian, Inc. or will provide
 assistance to any competitor of Gaussian, Inc.  The licensee
 of this program is prohibited from giving any competitor of
 Gaussian, Inc. access to this program.  By using this program,
 the user acknowledges that Gaussian, Inc. is engaged in the
 business of creating and licensing software in the field of
 computational chemistry and represents and warrants to the
 licensee that it is not a competitor of Gaussian, Inc. and that
 it will not use this program in any manner prohibited above.
 ---------------------------------------------------------------
  

 Cite this work as:
 Gaussian 09, Revision C.01,
 M. J. Frisch, G. W. Trucks, H. B. Schlegel, G. E. Scuseria, 
 M. A. Robb, J. R. Cheeseman, G. Scalmani, V. Barone, B. Mennucci, 
 G. A. Petersson, H. Nakatsuji, M. Caricato, X. Li, H. P. Hratchian, 
 A. F. Izmaylov, J. Bloino, G. Zheng, J. L. Sonnenberg, M. Hada, 
 M. Ehara, K. Toyota, R. Fukuda, J. Hasegawa, M. Ishida, T. Nakajima, 
 Y. Honda, O. Kitao, H. Nakai, T. Vreven, J. A. Montgomery, Jr., 
 J. E. Peralta, F. Ogliaro, M. Bearpark, J. J. Heyd, E. Brothers, 
 K. N. Kudin, V. N. Staroverov, T. Keith, R. Kobayashi, J. Normand, 
 K. Raghavachari, A. Rendell, J. C. Burant, S. S. Iyengar, J. Tomasi, 
 M. Cossi, N. Rega, J. M. Millam, M. Klene, J. E. Knox, J. B. Cross, 
 V. Bakken, C. Adamo, J. Jaramillo, R. Gomperts, R. E. Stratmann, 
 O. Yazyev, A. J. Austin, R. Cammi, C. Pomelli, J. W. Ochterski, 
 R. L. Martin, K. Morokuma, V. G. Zakrzewski, G. A. Voth, 
 P. Salvador, J. J. Dannenberg, S. Dapprich, A. D. Daniels, 
 O. Farkas, J. B. Foresman, J. V. Ortiz, J. Cioslowski, 
 and D. J. Fox, Gaussian, Inc., Wallingford CT, 2010.
 
 ******************************************
 Gaussian 09:  EM64L-G09RevC.01 23-Sep-2011
                 9-May-2020 
 ******************************************
 %mem=8GB
 %nproc=8
 Will use up to    8 processors via shared memory.
 -------------------------------------------------------
 #p wb97xd/aug-cc-PVTz int=ultrafine counterpoise=2 Scan
 -------------------------------------------------------
 1/38=1,60=1,62=2/1,8;
 2/12=2,17=6,18=5,29=3,40=1/2;
 1/38=1,53=5172,62=2/22;
 3/5=16,6=1,7=10,11=2,16=1,25=1,30=1,74=-58,75=-5/1,2,3;
 4//1;
 5/5=2,38=5/2;
 6/7=2,8=2,9=2,10=2,18=1,28=1/1;
 1/53=4052,62=2,63=1/22;
 3/5=7,6=11,7=10,11=2,16=1,25=1,30=1,74=-58,75=-5,82=7/1,2,3;
 4//1;
 5/5=2,38=5/2;
 6/7=2,8=2,9=2,10=2,18=1,28=1/1;
 1/53=3042,62=2,63=2/22;
 3/5=7,6=11,7=10,11=2,16=1,25=1,30=1,74=-58,75=-5,82=7/1,2,3;
 4//1;
 5/5=2,38=5/2;
 6/7=2,8=2,9=2,10=2,18=1,28=1/1;
 1/53=2032,62=2,63=3/22;
 3/5=7,6=11,7=10,11=2,16=1,25=1,30=1,74=-58,75=-5,82=7/1,2,3;
 4//1;
 5/5=2,38=5/2;
 6/7=2,8=2,9=2,10=2,18=1,28=1/1;
 1/53=1022,62=2,63=4/22;
 3/5=7,6=11,7=10,11=2,16=1,25=1,30=1,74=-58,75=-5,82=7/1,2,3;
 4//1;
 5/5=2,38=5/2;
 6/7=2,8=2,9=2,10=2,18=1,28=1/1;
 1/53=5014,62=2,63=5/22;
 1/60=1,62=2/8(1);
 99/9=1/99;
 2/29=3/2;
 1/53=5173,62=2/22;
 3/5=7,6=11,7=10,11=2,16=1,25=1,30=1,74=-58,75=-5,82=7/1,2,3;
 4/5=5,16=3/1;
 5/5=2,38=5/2;
 1/53=4053,62=2,63=1/22;
 3/5=7,6=11,7=10,11=2,16=1,25=1,30=1,74=-58,75=-5,82=7/1,2,3;
 4/5=5,16=3/1;
 5/5=2,38=5/2;
 1/53=3043,62=2,63=2/22;
 3/5=7,6=11,7=10,11=2,16=1,25=1,30=1,74=-58,75=-5,82=7/1,2,3;
 4/5=5,16=3/1;
 5/5=2,38=5/2;
 1/53=2033,62=2,63=3/22;
 3/5=7,6=11,7=10,11=2,16=1,25=1,30=1,74=-58,75=-5,82=7/1,2,3;
 4/5=5,16=3/1;
 5/5=2,38=5/2;
 1/53=1024,62=2,63=4/22;
 3/5=7,6=11,7=10,11=2,16=1,25=1,30=1,74=-58,75=-5,82=7/1,2,3;
 4/5=5,16=3/1;
 5/5=2,38=5/2;
 1/53=5014,62=2,63=5/22;
 1/60=1,62=2/8(-22);
 99/9=1/99;
 Leave Link    1 at Sat May  9 21:33:16 2020, MaxMem= 1073741824 cpu:       0.2
 (Enter /home/matheus/.gaussian/g09/l101.exe)
 ---
 TCC
 ---
 Charge =  0 Multiplicity = 1 in supermolecule
 Charge =  0 Multiplicity = 1 in fragment  1.
 Charge =  0 Multiplicity = 1 in fragment  2.
 Symbolic Z-Matrix:
 O(Fragment=1)         0.        0.        0.725 
 O(Fragment=1)         0.        0.       -0.725 
 H(Fragment=1)         0.59054  -0.70378   1.02351 
 H(Fragment=1)         0.        0.91872  -1.02351 
 Kr(Fragment=2)        0.       R1        0. 
       Variables:
  R1                    3.     Scan 20    0.1    
 
 NAtoms=      5 NQM=        0 NQMF=       0 NMMI=      5 NMMIF=      0
                NMic=       0 NMicF=      0.
                    Isotopes and Nuclear Properties:
 (Nuclear quadrupole moments (NQMom) in fm**2, nuclear magnetic moments (NMagM)
  in nuclear magnetons)

  Atom         1           2           3           4           5
 IAtWgt=          16          16           1           1          84
 AtmWgt=  15.9949146  15.9949146   1.0078250   1.0078250  83.9115064
 NucSpn=           0           0           1           1           0
 AtZEff=   0.0000000   0.0000000   0.0000000   0.0000000   0.0000000
 NQMom=    0.0000000   0.0000000   0.0000000   0.0000000   0.0000000
 NMagM=    0.0000000   0.0000000   2.7928460   2.7928460   0.0000000
 Leave Link  101 at Sat May  9 21:33:16 2020, MaxMem= 1073741824 cpu:       0.3
 (Enter /home/matheus/.gaussian/g09/l108.exe)
 Scan the potential surface.
 Variable   Value     No. Steps Step-Size
 -------- ----------- --------- ---------
     1       3.000000      20      0.1000
 A total of     21 points will be computed.
 Leave Link  108 at Sat May  9 21:33:16 2020, MaxMem= 1073741824 cpu:       0.0
 (Enter /home/matheus/.gaussian/g09/l202.exe)
 ---------------------------------------------------------------------------------------------------
                            Z-MATRIX (ANGSTROMS AND DEGREES)
   CD    Cent   Atom    N1       Length/X        N2       Alpha/Y        N3        Beta/Z          J
 ---------------------------------------------------------------------------------------------------
      1      1  O        0   0.000000          0.000000          0.725000
      2      2  O        0   0.000000          0.000000         -0.725000
      3      3  H        0   0.590542         -0.703781          1.023510
      4      4  H        0   0.000000          0.918721         -1.023510
      5      5  Kr       0   0.000000          3.000000          0.000000
 ---------------------------------------------------------------------------------------------------
                         Z-Matrix orientation:                         
 ---------------------------------------------------------------------
 Center     Atomic      Atomic             Coordinates (Angstroms)
 Number     Number       Type             X           Y           Z
 ---------------------------------------------------------------------
      1          8           0        0.000000    0.000000    0.725000
      2          8           0        0.000000    0.000000   -0.725000
      3          1           0        0.590542   -0.703781    1.023510
      4          1           0        0.000000    0.918721   -1.023510
      5         36           0        0.000000    3.000000    0.000000
 ---------------------------------------------------------------------
                    Distance matrix (angstroms):
                    1          2          3          4          5
     1  O    0.000000
     2  O    1.450000   0.000000
     3  H    0.966000   1.975180   0.000000
     4  H    1.975180   0.966000   2.677974   0.000000
     5  Kr   3.086361   3.086361   3.887712   2.319331   0.000000
 Stoichiometry    H2KrO2
 Framework group  C1[X(H2KrO2)]
 Deg. of freedom     9
 Full point group                 C1      NOp   1
 Largest Abelian subgroup         C1      NOp   1
 Largest concise Abelian subgroup C1      NOp   1
                         Standard orientation:                         
 ---------------------------------------------------------------------
 Center     Atomic      Atomic             Coordinates (Angstroms)
 Number     Number       Type             X           Y           Z
 ---------------------------------------------------------------------
      1          8           0        2.015651   -0.687348   -0.079909
      2          8           0        1.990960    0.760101    0.002433
      3          1           0        2.733117   -1.006163    0.482902
      4          1           0        1.067391    1.041693    0.032139
      5         36           0       -0.995928   -0.017154    0.002910
 ---------------------------------------------------------------------
 Rotational constants (GHZ):     26.2569855      2.3123407      2.1308521
 Leave Link  202 at Sat May  9 21:33:16 2020, MaxMem= 1073741824 cpu:       0.0
 (Enter /home/matheus/.gaussian/g09/l122.exe)
 Leave Link  122 at Sat May  9 21:33:16 2020, MaxMem= 1073741824 cpu:       0.0
 (Enter /home/matheus/.gaussian/g09/l301.exe)
 Standard basis: Aug-CC-pVTZ (5D, 7F)
 Ernie: Thresh=  0.10000D-02 Tol=  0.10000D-05 Strict=F.
 Ernie:  38 primitive shells out of 205 were deleted.
 There are   197 symmetry adapted basis functions of A   symmetry.
 Integral buffers will be    131072 words long.
 Raffenetti 2 integral format.
 Two-electron integral symmetry is turned on.
   197 basis functions,   415 primitive gaussians,   229 cartesian basis functions
    27 alpha electrons       27 beta electrons
       nuclear repulsion energy       148.4787781510 Hartrees.
 IExCor= 4639 DFT=T Ex+Corr=wB97XD ExCW=0 ScaHFX=  1.000000
 ScaDFX=  1.000000  1.000000  1.000000  1.000000 ScalE2=  1.000000  1.000000
 IRadAn=      5 IRanWt=     -1 IRanGd=            0 ICorTp=0
  HFx wShort=  0.000000 wLong=  0.200000 cFull=  0.222036 cShort=  0.000000 cLong=  0.777964
  DFx wShort=  0.000000 wLong=  0.200000 cFull=  0.000000 cShort=  0.000000 cLong=  1.000000
 NAtoms=    5 NActive=    5 NUniq=    5 SFac= 1.00D+00 NAtFMM=   60 NAOKFM=F Big=F
 R6Disp: Dispersion energy =        -0.0008029767 Hartrees.
 Nuclear repulsion after empirical dispersion term =      148.4779751743 Hartrees.
 Leave Link  301 at Sat May  9 21:33:16 2020, MaxMem= 1073741824 cpu:       0.2
 (Enter /home/matheus/.gaussian/g09/l302.exe)
 NPDir=0 NMtPBC=     1 NCelOv=     1 NCel=       1 NClECP=     1 NCelD=      1
         NCelK=      1 NCelE2=     1 NClLst=     1 CellRange=     0.0.
 One-electron integrals computed using PRISM.
 NBasis=   197 RedAO= T  NBF=   197
 NBsUse=   197 1.00D-06 NBFU=   197
 Precomputing XC quadrature grid using
 IXCGrd= 2 IRadAn=           5 IRanWt=          -1 IRanGd=           0 AccXCQ= 0.00D+00.
 NRdTot=     427 NPtTot=      123814 NUsed=      126881 NTot=      126913
 NSgBfM=   229   229   229   229   229 NAtAll=     5     5.
 Leave Link  302 at Sat May  9 21:33:16 2020, MaxMem= 1073741824 cpu:       1.1
 (Enter /home/matheus/.gaussian/g09/l303.exe)
 DipDrv:  MaxL=1.
 Leave Link  303 at Sat May  9 21:33:16 2020, MaxMem= 1073741824 cpu:       0.2
 (Enter /home/matheus/.gaussian/g09/l401.exe)
 Harris functional with IExCor= 4639 diagonalized for initial guess.
 ExpMin= 2.53D-02 ExpMax= 1.17D+07 ExpMxC= 1.33D+04 IAcc=3 IRadAn=         5 AccDes= 0.00D+00
 HarFok:  IExCor= 4639 AccDes= 0.00D+00 IRadAn=         5 IDoV= 1
 ScaDFX=  1.000000  1.000000  1.000000  1.000000
 FoFCou: FMM=F IPFlag=           0 FMFlag=      100000 FMFlg1=           0
         NFxFlg=           0 DoJE=T BraDBF=F KetDBF=T FulRan=T
         Omega=  0.000000  0.000000  1.000000  0.000000  0.000000 ICntrl=     500 IOpCl=  0
         NMat0=    1 NMatS0=    1 NMatT0=    0 NMatD0=    1 NMtDS0=    0 NMtDT0=    0
         I1Cent=           4 NGrid=           0.
 Petite list used in FoFCou.
 Harris En= -2876.48798604897    
 Initial guess orbital symmetries:
       Occupied  (A) (A) (A) (A) (A) (A) (A) (A) (A) (A) (A) (A)
                 (A) (A) (A) (A) (A) (A) (A) (A) (A) (A) (A) (A)
                 (A) (A) (A)
       Virtual   (A) (A) (A) (A) (A) (A) (A) (A) (A) (A) (A) (A)
                 (A) (A) (A) (A) (A) (A) (A) (A) (A) (A) (A) (A)
                 (A) (A) (A) (A) (A) (A) (A) (A) (A) (A) (A) (A)
                 (A) (A) (A) (A) (A) (A) (A) (A) (A) (A) (A) (A)
                 (A) (A) (A) (A) (A) (A) (A) (A) (A) (A) (A) (A)
                 (A) (A) (A) (A) (A) (A) (A) (A) (A) (A) (A) (A)
                 (A) (A) (A) (A) (A) (A) (A) (A) (A) (A) (A) (A)
                 (A) (A) (A) (A) (A) (A) (A) (A) (A) (A) (A) (A)
                 (A) (A) (A) (A) (A) (A) (A) (A) (A) (A) (A) (A)
                 (A) (A) (A) (A) (A) (A) (A) (A) (A) (A) (A) (A)
                 (A) (A) (A) (A) (A) (A) (A) (A) (A) (A) (A) (A)
                 (A) (A) (A) (A) (A) (A) (A) (A) (A) (A) (A) (A)
                 (A) (A) (A) (A) (A) (A) (A) (A) (A) (A) (A) (A)
                 (A) (A) (A) (A) (A) (A) (A) (A) (A) (A) (A) (A)
                 (A) (A)
 The electronic state of the initial guess is 1-A.
 Leave Link  401 at Sat May  9 21:33:17 2020, MaxMem= 1073741824 cpu:       5.8
 (Enter /home/matheus/.gaussian/g09/l502.exe)
 Closed shell SCF:
 Requested convergence on RMS density matrix=1.00D-08 within 128 cycles.
 Requested convergence on MAX density matrix=1.00D-06.
 Requested convergence on             energy=1.00D-06.
 No special actions if energy rises.
 Using DIIS extrapolation, IDIIS=  1040.
 Integral symmetry usage will be decided dynamically.
       126823 words used for storage of precomputed grid.
 IEnd=      305770 IEndB=      305770 NGot=  1073741824 MDV=  1073505365
 LenX=  1073505365 LenY=  1073452483
 Fock matrices will be formed incrementally for  20 cycles.

 Cycle   1  Pass 1  IDiag  1:
 FoFJK:  IHMeth= 1 ICntrl=     0 DoSepK=T KAlg= 1 I1Cent= 0 FoldK=F
 FoFCou: FMM=F IPFlag=           0 FMFlag=      100000 FMFlg1=           0
         NFxFlg=           0 DoJE=T BraDBF=F KetDBF=F FulRan=T
         Omega=  0.000000  0.000000  1.000000  0.000000  0.000000 ICntrl=     500 IOpCl=  0
         NMat0=    1 NMatS0=    1 NMatT0=    0 NMatD0=    1 NMtDS0=    0 NMtDT0=    0
         I1Cent=           0 NGrid=           0.
 Symmetry not used in FoFCou.
 E= -2904.93589086460    
 DIIS: error= 7.38D-02 at cycle   1 NSaved=   1.
 NSaved= 1 IEnMin= 1 EnMin= -2904.93589086460     IErMin= 1 ErrMin= 7.38D-02
 ErrMax= 7.38D-02 EMaxC= 1.00D-01 BMatC= 2.17D+00 BMatP= 2.17D+00
 IDIUse=3 WtCom= 2.62D-01 WtEn= 7.38D-01
 Coeff-Com:  0.100D+01
 Coeff-En:   0.100D+01
 Coeff:      0.100D+01
 Gap=     0.507 Goal=   None    Shift=    0.000
 GapD=    0.507 DampG=2.000 DampE=0.500 DampFc=1.0000 IDamp=-1.
 RMSDP=6.10D-03 MaxDP=3.66D-01              OVMax= 1.77D-01

 Cycle   2  Pass 1  IDiag  1:
 RMSU=  4.29D-03    CP:  1.03D+00
 FoFJK:  IHMeth= 1 ICntrl=     0 DoSepK=T KAlg= 1 I1Cent= 0 FoldK=F
 E= -2905.22829940633     Delta-E=       -0.292408541731 Rises=F Damp=F
 DIIS: error= 3.59D-02 at cycle   2 NSaved=   2.
 NSaved= 2 IEnMin= 2 EnMin= -2905.22829940633     IErMin= 2 ErrMin= 3.59D-02
 ErrMax= 3.59D-02 EMaxC= 1.00D-01 BMatC= 5.63D-01 BMatP= 2.17D+00
 IDIUse=3 WtCom= 6.41D-01 WtEn= 3.59D-01
 Coeff-Com:  0.330D+00 0.670D+00
 Coeff-En:   0.218D+00 0.782D+00
 Coeff:      0.290D+00 0.710D+00
 Gap=     0.447 Goal=   None    Shift=    0.000
 RMSDP=2.71D-03 MaxDP=1.58D-01 DE=-2.92D-01 OVMax= 7.68D-02

 Cycle   3  Pass 1  IDiag  1:
 RMSU=  5.60D-04    CP:  1.02D+00  5.75D-01
 FoFJK:  IHMeth= 1 ICntrl=     0 DoSepK=T KAlg= 1 I1Cent= 0 FoldK=F
 E= -2905.42001616999     Delta-E=       -0.191716763658 Rises=F Damp=F
 DIIS: error= 6.64D-03 at cycle   3 NSaved=   3.
 NSaved= 3 IEnMin= 3 EnMin= -2905.42001616999     IErMin= 3 ErrMin= 6.64D-03
 ErrMax= 6.64D-03 EMaxC= 1.00D-01 BMatC= 1.98D-02 BMatP= 5.63D-01
 IDIUse=3 WtCom= 9.34D-01 WtEn= 6.64D-02
 Coeff-Com:  0.354D-01 0.195D+00 0.770D+00
 Coeff-En:   0.000D+00 0.000D+00 0.100D+01
 Coeff:      0.331D-01 0.182D+00 0.785D+00
 Gap=     0.411 Goal=   None    Shift=    0.000
 RMSDP=5.05D-04 MaxDP=2.13D-02 DE=-1.92D-01 OVMax= 2.64D-02

 Cycle   4  Pass 1  IDiag  1:
 RMSU=  2.39D-04    CP:  1.02D+00  6.35D-01  8.72D-01
 FoFJK:  IHMeth= 1 ICntrl=     0 DoSepK=T KAlg= 1 I1Cent= 0 FoldK=F
 E= -2905.42881761090     Delta-E=       -0.008801440918 Rises=F Damp=F
 DIIS: error= 2.82D-03 at cycle   4 NSaved=   4.
 NSaved= 4 IEnMin= 4 EnMin= -2905.42881761090     IErMin= 4 ErrMin= 2.82D-03
 ErrMax= 2.82D-03 EMaxC= 1.00D-01 BMatC= 2.04D-03 BMatP= 1.98D-02
 IDIUse=3 WtCom= 9.72D-01 WtEn= 2.82D-02
 Coeff-Com: -0.100D-02 0.551D-01 0.381D+00 0.565D+00
 Coeff-En:   0.000D+00 0.000D+00 0.000D+00 0.100D+01
 Coeff:     -0.975D-03 0.535D-01 0.370D+00 0.578D+00
 Gap=     0.396 Goal=   None    Shift=    0.000
 RMSDP=1.27D-04 MaxDP=7.50D-03 DE=-8.80D-03 OVMax= 7.69D-03

 Cycle   5  Pass 1  IDiag  1:
 RMSU=  3.99D-05    CP:  1.02D+00  6.33D-01  9.17D-01  6.87D-01
 FoFJK:  IHMeth= 1 ICntrl=     0 DoSepK=T KAlg= 1 I1Cent= 0 FoldK=F
 E= -2905.43004461804     Delta-E=       -0.001227007138 Rises=F Damp=F
 DIIS: error= 3.42D-04 at cycle   5 NSaved=   5.
 NSaved= 5 IEnMin= 5 EnMin= -2905.43004461804     IErMin= 5 ErrMin= 3.42D-04
 ErrMax= 3.42D-04 EMaxC= 1.00D-01 BMatC= 3.79D-05 BMatP= 2.04D-03
 IDIUse=3 WtCom= 9.97D-01 WtEn= 3.42D-03
 Coeff-Com: -0.113D-02 0.184D-01 0.143D+00 0.238D+00 0.601D+00
 Coeff-En:   0.000D+00 0.000D+00 0.000D+00 0.000D+00 0.100D+01
 Coeff:     -0.113D-02 0.184D-01 0.143D+00 0.238D+00 0.602D+00
 Gap=     0.395 Goal=   None    Shift=    0.000
 RMSDP=2.28D-05 MaxDP=1.03D-03 DE=-1.23D-03 OVMax= 1.81D-03

 Cycle   6  Pass 1  IDiag  1:
 RMSU=  1.55D-05    CP:  1.02D+00  6.32D-01  9.21D-01  7.02D-01  9.71D-01
 FoFJK:  IHMeth= 1 ICntrl=     0 DoSepK=T KAlg= 1 I1Cent= 0 FoldK=F
 E= -2905.43006491972     Delta-E=       -0.000020301677 Rises=F Damp=F
 DIIS: error= 1.72D-04 at cycle   6 NSaved=   6.
 NSaved= 6 IEnMin= 6 EnMin= -2905.43006491972     IErMin= 6 ErrMin= 1.72D-04
 ErrMax= 1.72D-04 EMaxC= 1.00D-01 BMatC= 8.37D-06 BMatP= 3.79D-05
 IDIUse=3 WtCom= 9.98D-01 WtEn= 1.72D-03
 Coeff-Com: -0.369D-03-0.546D-02-0.262D-01-0.316D-01 0.313D+00 0.751D+00
 Coeff-En:   0.000D+00 0.000D+00 0.000D+00 0.000D+00 0.136D+00 0.864D+00
 Coeff:     -0.368D-03-0.545D-02-0.262D-01-0.316D-01 0.313D+00 0.751D+00
 Gap=     0.395 Goal=   None    Shift=    0.000
 RMSDP=1.22D-05 MaxDP=4.45D-04 DE=-2.03D-05 OVMax= 6.44D-04

 Cycle   7  Pass 1  IDiag  1:
 RMSU=  4.09D-06    CP:  1.02D+00  6.32D-01  9.28D-01  7.09D-01  1.13D+00
                    CP:  9.29D-01
 FoFJK:  IHMeth= 1 ICntrl=     0 DoSepK=T KAlg= 1 I1Cent= 0 FoldK=F
 E= -2905.43007099638     Delta-E=       -0.000006076664 Rises=F Damp=F
 DIIS: error= 1.08D-05 at cycle   7 NSaved=   7.
 NSaved= 7 IEnMin= 7 EnMin= -2905.43007099638     IErMin= 7 ErrMin= 1.08D-05
 ErrMax= 1.08D-05 EMaxC= 1.00D-01 BMatC= 4.76D-08 BMatP= 8.37D-06
 IDIUse=1 WtCom= 1.00D+00 WtEn= 0.00D+00
 Coeff-Com:  0.179D-04-0.986D-03-0.681D-02-0.970D-02-0.556D-02 0.504D-01
 Coeff-Com:  0.973D+00
 Coeff:      0.179D-04-0.986D-03-0.681D-02-0.970D-02-0.556D-02 0.504D-01
 Coeff:      0.973D+00
 Gap=     0.395 Goal=   None    Shift=    0.000
 RMSDP=2.36D-06 MaxDP=6.47D-05 DE=-6.08D-06 OVMax= 1.64D-04

 Cycle   8  Pass 1  IDiag  1:
 RMSU=  9.00D-07    CP:  1.02D+00  6.32D-01  9.29D-01  7.12D-01  1.15D+00
                    CP:  9.75D-01  1.16D+00
 FoFJK:  IHMeth= 1 ICntrl=     0 DoSepK=T KAlg= 1 I1Cent= 0 FoldK=F
 E= -2905.43007109348     Delta-E=       -0.000000097099 Rises=F Damp=F
 DIIS: error= 2.41D-06 at cycle   8 NSaved=   8.
 NSaved= 8 IEnMin= 8 EnMin= -2905.43007109348     IErMin= 8 ErrMin= 2.41D-06
 ErrMax= 2.41D-06 EMaxC= 1.00D-01 BMatC= 2.80D-09 BMatP= 4.76D-08
 IDIUse=1 WtCom= 1.00D+00 WtEn= 0.00D+00
 Coeff-Com:  0.133D-04 0.936D-04 0.312D-03 0.100D-03-0.141D-01-0.266D-01
 Coeff-Com:  0.701D-01 0.970D+00
 Coeff:      0.133D-04 0.936D-04 0.312D-03 0.100D-03-0.141D-01-0.266D-01
 Coeff:      0.701D-01 0.970D+00
 Gap=     0.395 Goal=   None    Shift=    0.000
 RMSDP=6.03D-07 MaxDP=1.44D-05 DE=-9.71D-08 OVMax= 4.92D-05

 Cycle   9  Pass 1  IDiag  1:
 RMSU=  1.71D-07    CP:  1.02D+00  6.32D-01  9.29D-01  7.12D-01  1.15D+00
                    CP:  9.83D-01  1.22D+00  1.25D+00
 FoFJK:  IHMeth= 1 ICntrl=     0 DoSepK=T KAlg= 1 I1Cent= 0 FoldK=F
 E= -2905.43007109996     Delta-E=       -0.000000006477 Rises=F Damp=F
 DIIS: error= 7.85D-07 at cycle   9 NSaved=   9.
 NSaved= 9 IEnMin= 9 EnMin= -2905.43007109996     IErMin= 9 ErrMin= 7.85D-07
 ErrMax= 7.85D-07 EMaxC= 1.00D-01 BMatC= 2.51D-10 BMatP= 2.80D-09
 IDIUse=1 WtCom= 1.00D+00 WtEn= 0.00D+00
 Coeff-Com: -0.868D-06 0.622D-04 0.428D-03 0.452D-03-0.708D-03-0.400D-02
 Coeff-Com: -0.541D-01 0.340D-01 0.102D+01
 Coeff:     -0.868D-06 0.622D-04 0.428D-03 0.452D-03-0.708D-03-0.400D-02
 Coeff:     -0.541D-01 0.340D-01 0.102D+01
 Gap=     0.395 Goal=   None    Shift=    0.000
 RMSDP=1.72D-07 MaxDP=4.74D-06 DE=-6.48D-09 OVMax= 1.95D-05

 Cycle  10  Pass 1  IDiag  1:
 RMSU=  6.34D-08    CP:  1.02D+00  6.32D-01  9.29D-01  7.12D-01  1.15D+00
                    CP:  9.84D-01  1.23D+00  1.33D+00  1.25D+00
 FoFJK:  IHMeth= 1 ICntrl=     0 DoSepK=T KAlg= 1 I1Cent= 0 FoldK=F
 E= -2905.43007110068     Delta-E=       -0.000000000725 Rises=F Damp=F
 DIIS: error= 3.15D-07 at cycle  10 NSaved=  10.
 NSaved=10 IEnMin=10 EnMin= -2905.43007110068     IErMin=10 ErrMin= 3.15D-07
 ErrMax= 3.15D-07 EMaxC= 1.00D-01 BMatC= 2.59D-11 BMatP= 2.51D-10
 IDIUse=1 WtCom= 1.00D+00 WtEn= 0.00D+00
 Coeff-Com: -0.639D-06-0.267D-05-0.671D-05-0.499D-06 0.118D-02 0.238D-02
 Coeff-Com: -0.450D-02-0.972D-01 0.675D-01 0.103D+01
 Coeff:     -0.639D-06-0.267D-05-0.671D-05-0.499D-06 0.118D-02 0.238D-02
 Coeff:     -0.450D-02-0.972D-01 0.675D-01 0.103D+01
 Gap=     0.395 Goal=   None    Shift=    0.000
 RMSDP=5.81D-08 MaxDP=1.25D-06 DE=-7.25D-10 OVMax= 8.45D-06

 Cycle  11  Pass 1  IDiag  1:
 RMSU=  1.79D-08    CP:  1.02D+00  6.32D-01  9.29D-01  7.12D-01  1.15D+00
                    CP:  9.84D-01  1.23D+00  1.35D+00  1.40D+00  1.37D+00
 FoFJK:  IHMeth= 1 ICntrl=     0 DoSepK=T KAlg= 1 I1Cent= 0 FoldK=F
 E= -2905.43007110077     Delta-E=       -0.000000000089 Rises=F Damp=F
 DIIS: error= 1.21D-07 at cycle  11 NSaved=  11.
 NSaved=11 IEnMin=11 EnMin= -2905.43007110077     IErMin=11 ErrMin= 1.21D-07
 ErrMax= 1.21D-07 EMaxC= 1.00D-01 BMatC= 3.35D-12 BMatP= 2.59D-11
 IDIUse=1 WtCom= 1.00D+00 WtEn= 0.00D+00
 Coeff-Com:  0.316D-06-0.573D-05-0.451D-04-0.332D-04-0.401D-04 0.204D-03
 Coeff-Com:  0.708D-02-0.362D-02-0.975D-01-0.896D-01 0.118D+01
 Coeff:      0.316D-06-0.573D-05-0.451D-04-0.332D-04-0.401D-04 0.204D-03
 Coeff:      0.708D-02-0.362D-02-0.975D-01-0.896D-01 0.118D+01
 Gap=     0.395 Goal=   None    Shift=    0.000
 RMSDP=2.58D-08 MaxDP=6.10D-07 DE=-8.87D-11 OVMax= 3.90D-06

 Cycle  12  Pass 1  IDiag  1:
 RMSU=  5.49D-09    CP:  1.02D+00  6.32D-01  9.29D-01  7.12D-01  1.15D+00
                    CP:  9.84D-01  1.23D+00  1.35D+00  1.44D+00  1.58D+00
                    CP:  1.45D+00
 FoFJK:  IHMeth= 1 ICntrl=     0 DoSepK=T KAlg= 1 I1Cent= 0 FoldK=F
 E= -2905.43007110078     Delta-E=       -0.000000000012 Rises=F Damp=F
 DIIS: error= 3.90D-08 at cycle  12 NSaved=  12.
 NSaved=12 IEnMin=12 EnMin= -2905.43007110078     IErMin=12 ErrMin= 3.90D-08
 ErrMax= 3.90D-08 EMaxC= 1.00D-01 BMatC= 2.16D-13 BMatP= 3.35D-12
 IDIUse=1 WtCom= 1.00D+00 WtEn= 0.00D+00
 Coeff-Com:  0.640D-08-0.237D-06-0.911D-06-0.426D-05-0.113D-03-0.222D-03
 Coeff-Com:  0.543D-03 0.731D-02 0.116D-02-0.829D-01-0.990D-01 0.117D+01
 Coeff:      0.640D-08-0.237D-06-0.911D-06-0.426D-05-0.113D-03-0.222D-03
 Coeff:      0.543D-03 0.731D-02 0.116D-02-0.829D-01-0.990D-01 0.117D+01
 Gap=     0.395 Goal=   None    Shift=    0.000
 RMSDP=8.74D-09 MaxDP=1.91D-07 DE=-1.18D-11 OVMax= 1.23D-06

 SCF Done:  E(RwB97XD) =  -2905.43007110     A.U. after   12 cycles
             Convg  =    0.8743D-08             -V/T =  2.0015
 KE= 2.900974508043D+03 PE=-7.235388998017D+03 EE= 1.280506443699D+03
 Leave Link  502 at Sat May  9 21:34:08 2020, MaxMem= 1073741824 cpu:     410.0
 (Enter /home/matheus/.gaussian/g09/l601.exe)
 Copying SCF densities to generalized density rwf, IOpCl= 0 IROHF=0.

 **********************************************************************

            Population analysis using the SCF density.

 **********************************************************************

 Orbital symmetries:
       Occupied  (A) (A) (A) (A) (A) (A) (A) (A) (A) (A) (A) (A)
                 (A) (A) (A) (A) (A) (A) (A) (A) (A) (A) (A) (A)
                 (A) (A) (A)
       Virtual   (A) (A) (A) (A) (A) (A) (A) (A) (A) (A) (A) (A)
                 (A) (A) (A) (A) (A) (A) (A) (A) (A) (A) (A) (A)
                 (A) (A) (A) (A) (A) (A) (A) (A) (A) (A) (A) (A)
                 (A) (A) (A) (A) (A) (A) (A) (A) (A) (A) (A) (A)
                 (A) (A) (A) (A) (A) (A) (A) (A) (A) (A) (A) (A)
                 (A) (A) (A) (A) (A) (A) (A) (A) (A) (A) (A) (A)
                 (A) (A) (A) (A) (A) (A) (A) (A) (A) (A) (A) (A)
                 (A) (A) (A) (A) (A) (A) (A) (A) (A) (A) (A) (A)
                 (A) (A) (A) (A) (A) (A) (A) (A) (A) (A) (A) (A)
                 (A) (A) (A) (A) (A) (A) (A) (A) (A) (A) (A) (A)
                 (A) (A) (A) (A) (A) (A) (A) (A) (A) (A) (A) (A)
                 (A) (A) (A) (A) (A) (A) (A) (A) (A) (A) (A) (A)
                 (A) (A) (A) (A) (A) (A) (A) (A) (A) (A) (A) (A)
                 (A) (A) (A) (A) (A) (A) (A) (A) (A) (A) (A) (A)
                 (A) (A)
 The electronic state is 1-A.
 Alpha  occ. eigenvalues -- -513.06854 -67.33539 -60.88424 -60.88410 -60.88402
 Alpha  occ. eigenvalues --  -19.31626 -19.31221  -9.78847  -7.48181  -7.48133
 Alpha  occ. eigenvalues --   -7.48111  -3.34919  -3.34909  -3.34891  -3.34852
 Alpha  occ. eigenvalues --   -3.34851  -1.21947  -1.01048  -0.99467  -0.63635
 Alpha  occ. eigenvalues --   -0.59222  -0.50653  -0.47998  -0.47485  -0.46848
 Alpha  occ. eigenvalues --   -0.42621  -0.35906
 Alpha virt. eigenvalues --    0.03558   0.04215   0.07796   0.09765   0.10660
 Alpha virt. eigenvalues --    0.11690   0.13518   0.14124   0.16763   0.17721
 Alpha virt. eigenvalues --    0.17988   0.19144   0.20658   0.22467   0.23424
 Alpha virt. eigenvalues --    0.24225   0.25796   0.28182   0.30834   0.33044
 Alpha virt. eigenvalues --    0.33567   0.34534   0.35938   0.38540   0.39444
 Alpha virt. eigenvalues --    0.40714   0.41199   0.47433   0.51316   0.54416
 Alpha virt. eigenvalues --    0.55758   0.57784   0.61403   0.64924   0.67109
 Alpha virt. eigenvalues --    0.69597   0.69956   0.71258   0.72288   0.74337
 Alpha virt. eigenvalues --    0.74639   0.76426   0.77176   0.78680   0.80915
 Alpha virt. eigenvalues --    0.83204   0.84057   0.86038   0.88217   0.88794
 Alpha virt. eigenvalues --    0.91430   0.92865   0.94987   0.96114   0.97410
 Alpha virt. eigenvalues --    1.00411   1.01087   1.02735   1.05693   1.08389
 Alpha virt. eigenvalues --    1.09344   1.11476   1.13639   1.16439   1.20327
 Alpha virt. eigenvalues --    1.25305   1.29706   1.32313   1.36011   1.38349
 Alpha virt. eigenvalues --    1.40803   1.48531   1.51447   1.53814   1.59370
 Alpha virt. eigenvalues --    1.60925   1.73502   1.81147   1.81624   1.91458
 Alpha virt. eigenvalues --    1.95834   1.98431   2.03267   2.10973   2.12496
 Alpha virt. eigenvalues --    2.13437   2.16997   2.18537   2.20488   2.21308
 Alpha virt. eigenvalues --    2.22874   2.27939   2.28427   2.29433   2.32027
 Alpha virt. eigenvalues --    2.34258   2.36599   2.42120   2.44437   2.45961
 Alpha virt. eigenvalues --    2.46071   2.48970   2.50607   2.52432   2.55673
 Alpha virt. eigenvalues --    2.56593   2.58828   2.62512   2.63203   2.67766
 Alpha virt. eigenvalues --    2.70623   2.72258   2.79557   2.81774   2.85631
 Alpha virt. eigenvalues --    2.91243   3.02877   3.07390   3.11791   3.58625
 Alpha virt. eigenvalues --    3.64416   3.84498   3.97304   3.98801   4.01689
 Alpha virt. eigenvalues --    4.06796   4.12897   4.16893   4.21247   4.24098
 Alpha virt. eigenvalues --    4.43247   4.46182   4.50340   4.52051   4.70027
 Alpha virt. eigenvalues --    4.89192   4.97565   4.99828   5.06236   5.09202
 Alpha virt. eigenvalues --    5.25751   5.41301   5.81665   6.02656   6.04698
 Alpha virt. eigenvalues --    6.09395   6.29993   6.33214   6.37848   6.49496
 Alpha virt. eigenvalues --    6.63364   6.71686   6.74249   6.80387   6.83531
 Alpha virt. eigenvalues --    6.83783   6.88447   6.89865   6.94251   6.99926
 Alpha virt. eigenvalues --    7.01784   7.19603   7.23775   7.37071   7.70960
 Alpha virt. eigenvalues --    7.78958   8.04145   8.10270  13.98544  14.62349
          Condensed to atoms (all electrons):
              1          2          3          4          5
     1  O    8.150015  -0.170062   0.224995   0.003205  -0.023617
     2  O   -0.170062   8.268620   0.006594   0.188661  -0.018062
     3  H    0.224995   0.006594   0.558393   0.003807   0.003256
     4  H    0.003205   0.188661   0.003807   0.554598  -0.004350
     5  Kr  -0.023617  -0.018062   0.003256  -0.004350  36.039519
 Mulliken atomic charges:
              1
     1  O   -0.184537
     2  O   -0.275752
     3  H    0.202955
     4  H    0.254079
     5  Kr   0.003255
 Sum of Mulliken atomic charges =   0.00000
 Mulliken charges with hydrogens summed into heavy atoms:
              1
     1  O    0.018418
     2  O   -0.021673
     5  Kr   0.003255
 Sum of Mulliken charges with hydrogens summed into heavy atoms =   0.00000
          Condensed to fragments (all electrons):
     1      -0.003255
     2       0.003255
 Electronic spatial extent (au):  <R**2>=            490.4849
 Charge=              0.0000 electrons
 Dipole moment (field-independent basis, Debye):
    X=             -0.5206    Y=             -0.3458    Z=              0.9855  Tot=              1.1670
 Quadrupole moment (field-independent basis, Debye-Ang):
   XX=            -28.4325   YY=            -28.1563   ZZ=            -29.9823
   XY=             -3.5785   XZ=              2.9652   YZ=             -1.0862
 Traceless Quadrupole moment (field-independent basis, Debye-Ang):
   XX=              0.4245   YY=              0.7007   ZZ=             -1.1253
   XY=             -3.5785   XZ=              2.9652   YZ=             -1.0862
 Octapole moment (field-independent basis, Debye-Ang**2):
  XXX=             -9.6700  YYY=             -0.8233  ZZZ=              0.5140  XYY=             -4.1703
  XXY=            -14.3070  XXZ=              8.4202  XZZ=             -6.9794  YZZ=             -0.9263
  YYZ=              1.2860  XYZ=             -3.1866
 Hexadecapole moment (field-independent basis, Debye-Ang**3):
 XXXX=           -377.4605 YYYY=            -63.5043 ZZZZ=            -29.8759 XXXY=            -42.1402
 XXXZ=             24.4159 YYYX=             -5.5134 YYYZ=             -1.4025 ZZZX=              1.7157
 ZZZY=             -0.7843 XXYY=            -75.5514 XXZZ=            -75.3917 YYZZ=            -16.9373
 XXYZ=             -9.1377 YYXZ=              3.5996 ZZXY=             -1.9737
 N-N= 1.484779751743D+02 E-N=-7.235388996038D+03  KE= 2.900974508043D+03
 No NMR shielding tensors so no spin-rotation constants.
 Leave Link  601 at Sat May  9 21:34:08 2020, MaxMem= 1073741824 cpu:       0.8
 (Enter /home/matheus/.gaussian/g09/l122.exe)
 Counterpoise: doing DCBS calculation for fragment   1 NewBq=T
 Leave Link  122 at Sat May  9 21:34:08 2020, MaxMem= 1073741824 cpu:       0.0
 (Enter /home/matheus/.gaussian/g09/l301.exe)
 Basis read from rwf:  (5D, 7F)
 No pseudopotential information found on rwf file.
 There are   197 symmetry adapted basis functions of A   symmetry.
 Integral buffers will be    131072 words long.
 Raffenetti 2 integral format.
 Two-electron integral symmetry is turned on.
   197 basis functions,   415 primitive gaussians,   229 cartesian basis functions
     9 alpha electrons        9 beta electrons
       nuclear repulsion energy        36.6058450489 Hartrees.
 IExCor= 4639 DFT=T Ex+Corr=wB97XD ExCW=0 ScaHFX=  1.000000
 ScaDFX=  1.000000  1.000000  1.000000  1.000000 ScalE2=  1.000000  1.000000
 IRadAn=      5 IRanWt=     -1 IRanGd=            0 ICorTp=0
  HFx wShort=  0.000000 wLong=  0.200000 cFull=  0.222036 cShort=  0.000000 cLong=  0.777964
  DFx wShort=  0.000000 wLong=  0.200000 cFull=  0.000000 cShort=  0.000000 cLong=  1.000000
 NAtoms=    5 NActive=    5 NUniq=    5 SFac= 1.00D+00 NAtFMM=   60 NAOKFM=F Big=F
 R6Disp: Dispersion energy =        -0.0002107748 Hartrees.
 Nuclear repulsion after empirical dispersion term =       36.6056342741 Hartrees.
 No density basis found on file   718.
 Leave Link  301 at Sat May  9 21:34:08 2020, MaxMem= 1073741824 cpu:       0.3
 (Enter /home/matheus/.gaussian/g09/l302.exe)
 NPDir=0 NMtPBC=     1 NCelOv=     1 NCel=       1 NClECP=     1 NCelD=      1
         NCelK=      1 NCelE2=     1 NClLst=     1 CellRange=     0.0.
 One-electron integrals computed using PRISM.
 NBasis=   197 RedAO= T  NBF=   197
 NBsUse=   197 1.00D-06 NBFU=   197
 Precomputing XC quadrature grid using
 IXCGrd= 2 IRadAn=           5 IRanWt=          -1 IRanGd=           0 AccXCQ= 0.00D+00.
 NRdTot=     427 NPtTot=      123814 NUsed=      126881 NTot=      126913
 NSgBfM=   229   229   229   229   229 NAtAll=     5     5.
 Leave Link  302 at Sat May  9 21:34:09 2020, MaxMem= 1073741824 cpu:       1.1
 (Enter /home/matheus/.gaussian/g09/l303.exe)
 DipDrv:  MaxL=1.
 Leave Link  303 at Sat May  9 21:34:09 2020, MaxMem= 1073741824 cpu:       0.3
 (Enter /home/matheus/.gaussian/g09/l401.exe)
 Harris functional with IExCor= 4639 diagonalized for initial guess.
 ExpMin= 2.53D-02 ExpMax= 1.17D+07 ExpMxC= 1.33D+04 IAcc=3 IRadAn=         5 AccDes= 0.00D+00
 HarFok:  IExCor= 4639 AccDes= 0.00D+00 IRadAn=         5 IDoV= 1
 ScaDFX=  1.000000  1.000000  1.000000  1.000000
 FoFCou: FMM=F IPFlag=           0 FMFlag=      100000 FMFlg1=           0
         NFxFlg=           0 DoJE=T BraDBF=F KetDBF=T FulRan=T
         Omega=  0.000000  0.000000  1.000000  0.000000  0.000000 ICntrl=     500 IOpCl=  0
         NMat0=    1 NMatS0=    1 NMatT0=    0 NMatD0=    1 NMtDS0=    0 NMtDT0=    0
         I1Cent=           4 NGrid=           0.
 Petite list used in FoFCou.
 Harris En= -146.293127395349    
 Initial guess orbital symmetries:
       Occupied  (A) (A) (A) (A) (A) (A) (A) (A) (A)
       Virtual   (A) (A) (A) (A) (A) (A) (A) (A) (A) (A) (A) (A)
                 (A) (A) (A) (A) (A) (A) (A) (A) (A) (A) (A) (A)
                 (A) (A) (A) (A) (A) (A) (A) (A) (A) (A) (A) (A)
                 (A) (A) (A) (A) (A) (A) (A) (A) (A) (A) (A) (A)
                 (A) (A) (A) (A) (A) (A) (A) (A) (A) (A) (A) (A)
                 (A) (A) (A) (A) (A) (A) (A) (A) (A) (A) (A) (A)
                 (A) (A) (A) (A) (A) (A) (A) (A) (A) (A) (A) (A)
                 (A) (A) (A) (A) (A) (A) (A) (A) (A) (A) (A) (A)
                 (A) (A) (A) (A) (A) (A) (A) (A) (A) (A) (A) (A)
                 (A) (A) (A) (A) (A) (A) (A) (A) (A) (A) (A) (A)
                 (A) (A) (A) (A) (A) (A) (A) (A) (A) (A) (A) (A)
                 (A) (A) (A) (A) (A) (A) (A) (A) (A) (A) (A) (A)
                 (A) (A) (A) (A) (A) (A) (A) (A) (A) (A) (A) (A)
                 (A) (A) (A) (A) (A) (A) (A) (A) (A) (A) (A) (A)
                 (A) (A) (A) (A) (A) (A) (A) (A) (A) (A) (A) (A)
                 (A) (A) (A) (A) (A) (A) (A) (A)
 The electronic state of the initial guess is 1-A.
 Leave Link  401 at Sat May  9 21:34:09 2020, MaxMem= 1073741824 cpu:       5.0
 (Enter /home/matheus/.gaussian/g09/l502.exe)
 Closed shell SCF:
 Requested convergence on RMS density matrix=1.00D-08 within 128 cycles.
 Requested convergence on MAX density matrix=1.00D-06.
 Requested convergence on             energy=1.00D-06.
 No special actions if energy rises.
 Using DIIS extrapolation, IDIIS=  1040.
 Integral symmetry usage will be decided dynamically.
       126823 words used for storage of precomputed grid.
 IEnd=      305770 IEndB=      305770 NGot=  1073741824 MDV=  1073505365
 LenX=  1073505365 LenY=  1073452483
 Fock matrices will be formed incrementally for  20 cycles.

 Cycle   1  Pass 1  IDiag  1:
 FoFJK:  IHMeth= 1 ICntrl=     0 DoSepK=T KAlg= 1 I1Cent= 0 FoldK=F
 FoFCou: FMM=F IPFlag=           0 FMFlag=      100000 FMFlg1=           0
         NFxFlg=           0 DoJE=T BraDBF=F KetDBF=F FulRan=T
         Omega=  0.000000  0.000000  1.000000  0.000000  0.000000 ICntrl=     500 IOpCl=  0
         NMat0=    1 NMatS0=    1 NMatT0=    0 NMatD0=    1 NMtDS0=    0 NMtDT0=    0
         I1Cent=           0 NGrid=           0.
 Symmetry not used in FoFCou.
 E= -151.477612026451    
 DIIS: error= 2.98D-02 at cycle   1 NSaved=   1.
 NSaved= 1 IEnMin= 1 EnMin= -151.477612026451     IErMin= 1 ErrMin= 2.98D-02
 ErrMax= 2.98D-02 EMaxC= 1.00D-01 BMatC= 3.00D-01 BMatP= 3.00D-01
 IDIUse=3 WtCom= 7.02D-01 WtEn= 2.98D-01
 Coeff-Com:  0.100D+01
 Coeff-En:   0.100D+01
 Coeff:      0.100D+01
 Gap=     0.505 Goal=   None    Shift=    0.000
 GapD=    0.505 DampG=2.000 DampE=0.500 DampFc=1.0000 IDamp=-1.
 RMSDP=2.37D-03 MaxDP=1.06D-01              OVMax= 1.10D-01

 Cycle   2  Pass 1  IDiag  1:
 RMSU=  1.64D-03    CP:  9.54D-01
 FoFJK:  IHMeth= 1 ICntrl=     0 DoSepK=T KAlg= 1 I1Cent= 0 FoldK=F
 E= -151.506984374751     Delta-E=       -0.029372348300 Rises=F Damp=F
 DIIS: error= 1.64D-02 at cycle   2 NSaved=   2.
 NSaved= 2 IEnMin= 2 EnMin= -151.506984374751     IErMin= 2 ErrMin= 1.64D-02
 ErrMax= 1.64D-02 EMaxC= 1.00D-01 BMatC= 9.02D-02 BMatP= 3.00D-01
 IDIUse=3 WtCom= 8.36D-01 WtEn= 1.64D-01
 Coeff-Com:  0.332D+00 0.668D+00
 Coeff-En:   0.367D+00 0.633D+00
 Coeff:      0.337D+00 0.663D+00
 Gap=     0.445 Goal=   None    Shift=    0.000
 RMSDP=9.97D-04 MaxDP=4.91D-02 DE=-2.94D-02 OVMax= 5.89D-02

 Cycle   3  Pass 1  IDiag  1:
 RMSU=  3.66D-04    CP:  9.74D-01  6.43D-01
 FoFJK:  IHMeth= 1 ICntrl=     0 DoSepK=T KAlg= 1 I1Cent= 0 FoldK=F
 E= -151.555593921820     Delta-E=       -0.048609547069 Rises=F Damp=F
 DIIS: error= 4.81D-03 at cycle   3 NSaved=   3.
 NSaved= 3 IEnMin= 3 EnMin= -151.555593921820     IErMin= 3 ErrMin= 4.81D-03
 ErrMax= 4.81D-03 EMaxC= 1.00D-01 BMatC= 6.47D-03 BMatP= 9.02D-02
 IDIUse=3 WtCom= 9.52D-01 WtEn= 4.81D-02
 Coeff-Com:  0.122D-01 0.219D+00 0.769D+00
 Coeff-En:   0.000D+00 0.000D+00 0.100D+01
 Coeff:      0.116D-01 0.209D+00 0.780D+00
 Gap=     0.396 Goal=   None    Shift=    0.000
 RMSDP=2.79D-04 MaxDP=1.24D-02 DE=-4.86D-02 OVMax= 1.66D-02

 Cycle   4  Pass 1  IDiag  1:
 RMSU=  6.34D-05    CP:  9.68D-01  7.46D-01  8.17D-01
 FoFJK:  IHMeth= 1 ICntrl=     0 DoSepK=T KAlg= 1 I1Cent= 0 FoldK=F
 E= -151.559729952554     Delta-E=       -0.004136030734 Rises=F Damp=F
 DIIS: error= 4.22D-04 at cycle   4 NSaved=   4.
 NSaved= 4 IEnMin= 4 EnMin= -151.559729952554     IErMin= 4 ErrMin= 4.22D-04
 ErrMax= 4.22D-04 EMaxC= 1.00D-01 BMatC= 5.37D-05 BMatP= 6.47D-03
 IDIUse=3 WtCom= 9.96D-01 WtEn= 4.22D-03
 Coeff-Com: -0.562D-03 0.642D-02 0.102D+00 0.892D+00
 Coeff-En:   0.000D+00 0.000D+00 0.000D+00 0.100D+01
 Coeff:     -0.560D-03 0.640D-02 0.101D+00 0.893D+00
 Gap=     0.393 Goal=   None    Shift=    0.000
 RMSDP=3.54D-05 MaxDP=2.02D-03 DE=-4.14D-03 OVMax= 1.51D-03

 Cycle   5  Pass 1  IDiag  1:
 RMSU=  1.19D-05    CP:  9.69D-01  7.40D-01  8.60D-01  1.13D+00
 FoFJK:  IHMeth= 1 ICntrl=     0 DoSepK=T KAlg= 1 I1Cent= 0 FoldK=F
 E= -151.559768628021     Delta-E=       -0.000038675468 Rises=F Damp=F
 DIIS: error= 3.98D-05 at cycle   5 NSaved=   5.
 NSaved= 5 IEnMin= 5 EnMin= -151.559768628021     IErMin= 5 ErrMin= 3.98D-05
 ErrMax= 3.98D-05 EMaxC= 1.00D-01 BMatC= 4.58D-07 BMatP= 5.37D-05
 IDIUse=1 WtCom= 1.00D+00 WtEn= 0.00D+00
 Coeff-Com: -0.520D-03-0.970D-02-0.333D-01-0.230D-01 0.107D+01
 Coeff:     -0.520D-03-0.970D-02-0.333D-01-0.230D-01 0.107D+01
 Gap=     0.393 Goal=   None    Shift=    0.000
 RMSDP=8.97D-06 MaxDP=3.66D-04 DE=-3.87D-05 OVMax= 6.24D-04

 Cycle   6  Pass 1  IDiag  1:
 RMSU=  2.29D-06    CP:  9.69D-01  7.40D-01  8.68D-01  1.20D+00  1.25D+00
 FoFJK:  IHMeth= 1 ICntrl=     0 DoSepK=T KAlg= 1 I1Cent= 0 FoldK=F
 E= -151.559769709846     Delta-E=       -0.000001081825 Rises=F Damp=F
 DIIS: error= 7.91D-06 at cycle   6 NSaved=   6.
 NSaved= 6 IEnMin= 6 EnMin= -151.559769709846     IErMin= 6 ErrMin= 7.91D-06
 ErrMax= 7.91D-06 EMaxC= 1.00D-01 BMatC= 2.15D-08 BMatP= 4.58D-07
 IDIUse=1 WtCom= 1.00D+00 WtEn= 0.00D+00
 Coeff-Com: -0.325D-06-0.700D-03-0.529D-02-0.278D-01 0.714D-01 0.962D+00
 Coeff:     -0.325D-06-0.700D-03-0.529D-02-0.278D-01 0.714D-01 0.962D+00
 Gap=     0.393 Goal=   None    Shift=    0.000
 RMSDP=1.51D-06 MaxDP=5.73D-05 DE=-1.08D-06 OVMax= 1.41D-04

 Cycle   7  Pass 1  IDiag  1:
 RMSU=  4.47D-07    CP:  9.69D-01  7.40D-01  8.69D-01  1.20D+00  1.30D+00
                    CP:  1.30D+00
 FoFJK:  IHMeth= 1 ICntrl=     0 DoSepK=T KAlg= 1 I1Cent= 0 FoldK=F
 E= -151.559769758687     Delta-E=       -0.000000048841 Rises=F Damp=F
 DIIS: error= 3.81D-06 at cycle   7 NSaved=   7.
 NSaved= 7 IEnMin= 7 EnMin= -151.559769758687     IErMin= 7 ErrMin= 3.81D-06
 ErrMax= 3.81D-06 EMaxC= 1.00D-01 BMatC= 4.07D-09 BMatP= 2.15D-08
 IDIUse=1 WtCom= 1.00D+00 WtEn= 0.00D+00
 Coeff-Com:  0.166D-04 0.183D-03 0.552D-04-0.627D-02-0.264D-01 0.196D+00
 Coeff-Com:  0.836D+00
 Coeff:      0.166D-04 0.183D-03 0.552D-04-0.627D-02-0.264D-01 0.196D+00
 Coeff:      0.836D+00
 Gap=     0.393 Goal=   None    Shift=    0.000
 RMSDP=4.52D-07 MaxDP=1.93D-05 DE=-4.88D-08 OVMax= 4.61D-05

 Cycle   8  Pass 1  IDiag  1:
 RMSU=  2.13D-07    CP:  9.69D-01  7.40D-01  8.69D-01  1.20D+00  1.31D+00
                    CP:  1.38D+00  1.11D+00
 FoFJK:  IHMeth= 1 ICntrl=     0 DoSepK=T KAlg= 1 I1Cent= 0 FoldK=F
 E= -151.559769763326     Delta-E=       -0.000000004640 Rises=F Damp=F
 DIIS: error= 3.29D-06 at cycle   8 NSaved=   8.
 NSaved= 8 IEnMin= 8 EnMin= -151.559769763326     IErMin= 8 ErrMin= 3.29D-06
 ErrMax= 3.29D-06 EMaxC= 1.00D-01 BMatC= 3.01D-09 BMatP= 4.07D-09
 IDIUse=1 WtCom= 1.00D+00 WtEn= 0.00D+00
 Coeff-Com:  0.760D-05 0.249D-03 0.127D-02 0.282D-02-0.296D-01-0.141D+00
 Coeff-Com:  0.527D+00 0.639D+00
 Coeff:      0.760D-05 0.249D-03 0.127D-02 0.282D-02-0.296D-01-0.141D+00
 Coeff:      0.527D+00 0.639D+00
 Gap=     0.393 Goal=   None    Shift=    0.000
 RMSDP=2.22D-07 MaxDP=9.69D-06 DE=-4.64D-09 OVMax= 2.67D-05

 Cycle   9  Pass 1  IDiag  1:
 RMSU=  9.20D-08    CP:  9.69D-01  7.40D-01  8.69D-01  1.20D+00  1.31D+00
                    CP:  1.41D+00  1.33D+00  8.83D-01
 FoFJK:  IHMeth= 1 ICntrl=     0 DoSepK=T KAlg= 1 I1Cent= 0 FoldK=F
 E= -151.559769766081     Delta-E=       -0.000000002755 Rises=F Damp=F
 DIIS: error= 4.44D-07 at cycle   9 NSaved=   9.
 NSaved= 9 IEnMin= 9 EnMin= -151.559769766081     IErMin= 9 ErrMin= 4.44D-07
 ErrMax= 4.44D-07 EMaxC= 1.00D-01 BMatC= 5.61D-11 BMatP= 3.01D-09
 IDIUse=1 WtCom= 1.00D+00 WtEn= 0.00D+00
 Coeff-Com: -0.102D-05-0.139D-04-0.127D-04 0.211D-03 0.511D-02-0.318D-01
 Coeff-Com: -0.466D-01 0.352D-01 0.104D+01
 Coeff:     -0.102D-05-0.139D-04-0.127D-04 0.211D-03 0.511D-02-0.318D-01
 Coeff:     -0.466D-01 0.352D-01 0.104D+01
 Gap=     0.393 Goal=   None    Shift=    0.000
 RMSDP=8.40D-08 MaxDP=1.83D-06 DE=-2.76D-09 OVMax= 1.26D-05

 Cycle  10  Pass 1  IDiag  1:
 RMSU=  1.89D-08    CP:  9.69D-01  7.40D-01  8.69D-01  1.20D+00  1.31D+00
                    CP:  1.41D+00  1.37D+00  1.04D+00  1.43D+00
 FoFJK:  IHMeth= 1 ICntrl=     0 DoSepK=T KAlg= 1 I1Cent= 0 FoldK=F
 E= -151.559769766274     Delta-E=       -0.000000000193 Rises=F Damp=F
 DIIS: error= 1.88D-07 at cycle  10 NSaved=  10.
 NSaved=10 IEnMin=10 EnMin= -151.559769766274     IErMin=10 ErrMin= 1.88D-07
 ErrMax= 1.88D-07 EMaxC= 1.00D-01 BMatC= 7.92D-12 BMatP= 5.61D-11
 IDIUse=1 WtCom= 1.00D+00 WtEn= 0.00D+00
 Coeff-Com: -0.269D-06-0.195D-04-0.139D-03-0.476D-03 0.327D-02 0.135D-01
 Coeff-Com: -0.434D-01-0.654D-01-0.209D+00 0.130D+01
 Coeff:     -0.269D-06-0.195D-04-0.139D-03-0.476D-03 0.327D-02 0.135D-01
 Coeff:     -0.434D-01-0.654D-01-0.209D+00 0.130D+01
 Gap=     0.393 Goal=   None    Shift=    0.000
 RMSDP=4.52D-08 MaxDP=1.04D-06 DE=-1.93D-10 OVMax= 6.84D-06

 Cycle  11  Pass 1  IDiag  1:
 RMSU=  7.61D-09    CP:  9.69D-01  7.40D-01  8.69D-01  1.20D+00  1.31D+00
                    CP:  1.41D+00  1.39D+00  1.10D+00  1.68D+00  1.62D+00
 FoFJK:  IHMeth= 1 ICntrl=     0 DoSepK=T KAlg= 1 I1Cent= 0 FoldK=F
 E= -151.559769766309     Delta-E=       -0.000000000035 Rises=F Damp=F
 DIIS: error= 4.73D-08 at cycle  11 NSaved=  11.
 NSaved=11 IEnMin=11 EnMin= -151.559769766309     IErMin=11 ErrMin= 4.73D-08
 ErrMax= 4.73D-08 EMaxC= 1.00D-01 BMatC= 3.41D-13 BMatP= 7.92D-12
 IDIUse=1 WtCom= 1.00D+00 WtEn= 0.00D+00
 Coeff-Com: -0.700D-07-0.110D-05-0.311D-05-0.271D-04-0.148D-03 0.112D-02
 Coeff-Com:  0.634D-02 0.162D-02-0.738D-01-0.400D-01 0.110D+01
 Coeff:     -0.700D-07-0.110D-05-0.311D-05-0.271D-04-0.148D-03 0.112D-02
 Coeff:      0.634D-02 0.162D-02-0.738D-01-0.400D-01 0.110D+01
 Gap=     0.393 Goal=   None    Shift=    0.000
 RMSDP=1.12D-08 MaxDP=2.56D-07 DE=-3.48D-11 OVMax= 1.44D-06

 Cycle  12  Pass 1  IDiag  1:
 RMSU=  2.02D-09    CP:  9.69D-01  7.40D-01  8.69D-01  1.20D+00  1.31D+00
                    CP:  1.41D+00  1.40D+00  1.11D+00  1.72D+00  1.82D+00
                    CP:  1.50D+00
 FoFJK:  IHMeth= 1 ICntrl=     0 DoSepK=T KAlg= 1 I1Cent= 0 FoldK=F
 E= -151.559769766310     Delta-E=       -0.000000000001 Rises=F Damp=F
 DIIS: error= 1.16D-08 at cycle  12 NSaved=  12.
 NSaved=12 IEnMin=12 EnMin= -151.559769766310     IErMin=12 ErrMin= 1.16D-08
 ErrMax= 1.16D-08 EMaxC= 1.00D-01 BMatC= 4.01D-14 BMatP= 3.41D-13
 IDIUse=1 WtCom= 1.00D+00 WtEn= 0.00D+00
 Coeff-Com: -0.491D-07 0.713D-06 0.944D-05 0.310D-04-0.199D-03-0.121D-02
 Coeff-Com:  0.330D-02 0.506D-02 0.140D-01-0.109D+00 0.173D-01 0.107D+01
 Coeff:     -0.491D-07 0.713D-06 0.944D-05 0.310D-04-0.199D-03-0.121D-02
 Coeff:      0.330D-02 0.506D-02 0.140D-01-0.109D+00 0.173D-01 0.107D+01
 Gap=     0.393 Goal=   None    Shift=    0.000
 RMSDP=3.88D-09 MaxDP=1.02D-07 DE=-1.39D-12 OVMax= 3.58D-07

 SCF Done:  E(RwB97XD) =  -151.559769766     A.U. after   12 cycles
             Convg  =    0.3880D-08             -V/T =  2.0059
 KE= 1.506675515285D+02 PE=-4.317242245527D+02 EE= 9.289126898383D+01
 Leave Link  502 at Sat May  9 21:34:57 2020, MaxMem= 1073741824 cpu:     376.9
 (Enter /home/matheus/.gaussian/g09/l601.exe)
 Copying SCF densities to generalized density rwf, IOpCl= 0 IROHF=0.

 **********************************************************************

            Population analysis using the SCF density.

 **********************************************************************

 Orbital symmetries:
       Occupied  (A) (A) (A) (A) (A) (A) (A) (A) (A)
       Virtual   (A) (A) (A) (A) (A) (A) (A) (A) (A) (A) (A) (A)
                 (A) (A) (A) (A) (A) (A) (A) (A) (A) (A) (A) (A)
                 (A) (A) (A) (A) (A) (A) (A) (A) (A) (A) (A) (A)
                 (A) (A) (A) (A) (A) (A) (A) (A) (A) (A) (A) (A)
                 (A) (A) (A) (A) (A) (A) (A) (A) (A) (A) (A) (A)
                 (A) (A) (A) (A) (A) (A) (A) (A) (A) (A) (A) (A)
                 (A) (A) (A) (A) (A) (A) (A) (A) (A) (A) (A) (A)
                 (A) (A) (A) (A) (A) (A) (A) (A) (A) (A) (A) (A)
                 (A) (A) (A) (A) (A) (A) (A) (A) (A) (A) (A) (A)
                 (A) (A) (A) (A) (A) (A) (A) (A) (A) (A) (A) (A)
                 (A) (A) (A) (A) (A) (A) (A) (A) (A) (A) (A) (A)
                 (A) (A) (A) (A) (A) (A) (A) (A) (A) (A) (A) (A)
                 (A) (A) (A) (A) (A) (A) (A) (A) (A) (A) (A) (A)
                 (A) (A) (A) (A) (A) (A) (A) (A) (A) (A) (A) (A)
                 (A) (A) (A) (A) (A) (A) (A) (A) (A) (A) (A) (A)
                 (A) (A) (A) (A) (A) (A) (A) (A)
 The electronic state is 1-A.
 Alpha  occ. eigenvalues --  -19.31746 -19.31741  -1.22140  -1.01147  -0.63757
 Alpha  occ. eigenvalues --   -0.58783  -0.50555  -0.43014  -0.36132
 Alpha virt. eigenvalues --    0.03156   0.03696   0.07028   0.09017   0.09471
 Alpha virt. eigenvalues --    0.10723   0.11168   0.14027   0.16725   0.17244
 Alpha virt. eigenvalues --    0.18344   0.19740   0.21280   0.23309   0.25349
 Alpha virt. eigenvalues --    0.27229   0.30534   0.31725   0.32655   0.33605
 Alpha virt. eigenvalues --    0.35547   0.38397   0.38748   0.39597   0.40766
 Alpha virt. eigenvalues --    0.42772   0.44451   0.47024   0.49081   0.49959
 Alpha virt. eigenvalues --    0.54675   0.57748   0.58794   0.62354   0.67180
 Alpha virt. eigenvalues --    0.69137   0.72734   0.73091   0.74432   0.75641
 Alpha virt. eigenvalues --    0.78260   0.80936   0.86033   0.87963   0.89492
 Alpha virt. eigenvalues --    0.90736   0.92540   0.94975   0.96608   0.98728
 Alpha virt. eigenvalues --    0.99312   1.03724   1.05338   1.07219   1.11595
 Alpha virt. eigenvalues --    1.12371   1.15578   1.18084   1.22155   1.22234
 Alpha virt. eigenvalues --    1.24921   1.30774   1.31799   1.32673   1.33793
 Alpha virt. eigenvalues --    1.34900   1.35923   1.36731   1.37394   1.39130
 Alpha virt. eigenvalues --    1.45941   1.49776   1.51952   1.53130   1.54595
 Alpha virt. eigenvalues --    1.56327   1.63074   1.67861   1.68630   1.78748
 Alpha virt. eigenvalues --    1.81305   1.81893   1.86345   1.93991   1.99015
 Alpha virt. eigenvalues --    2.04758   2.06448   2.12820   2.15440   2.19980
 Alpha virt. eigenvalues --    2.24508   2.26460   2.28690   2.32830   2.41079
 Alpha virt. eigenvalues --    2.45055   2.50366   2.51259   2.59294   2.62539
 Alpha virt. eigenvalues --    2.66897   2.71168   2.79968   2.81498   2.88956
 Alpha virt. eigenvalues --    3.02176   3.06521   3.07956   3.26965   3.31254
 Alpha virt. eigenvalues --    3.40835   3.56530   3.56786   3.67449   3.79102
 Alpha virt. eigenvalues --    3.79783   3.81471   3.83315   3.83476   3.84024
 Alpha virt. eigenvalues --    3.87435   3.90000   3.91078   3.94245   3.96160
 Alpha virt. eigenvalues --    3.99056   4.00488   4.03449   4.06924   4.10851
 Alpha virt. eigenvalues --    4.14314   4.17147   4.21525   4.28468   4.34635
 Alpha virt. eigenvalues --    4.44184   4.50818   4.51840   4.70262   4.89675
 Alpha virt. eigenvalues --    4.97390   4.99905   5.06181   5.09357   5.26067
 Alpha virt. eigenvalues --    5.41150   5.81463   6.02552   6.04630   6.09099
 Alpha virt. eigenvalues --    6.29976   6.33200   6.37742   6.49399   6.63218
 Alpha virt. eigenvalues --    6.71481   6.74033   6.80245   6.83328   6.83454
 Alpha virt. eigenvalues --    6.88186   6.89682   6.94149   6.99716   7.01671
 Alpha virt. eigenvalues --    7.19435   7.23544   7.36957   7.70808   7.78708
 Alpha virt. eigenvalues --    8.03970   8.09727  10.90043  13.98511  14.60621
 Alpha virt. eigenvalues --   14.84580  14.89724  15.11801  29.04323  29.04800
 Alpha virt. eigenvalues --   29.09230  29.14754  29.24282  49.11493 148.32612
 Alpha virt. eigenvalues --  148.39902 148.72387 752.50784
          Condensed to atoms (all electrons):
              1          2          3          4          5
     1  O    8.171908  -0.165009   0.208105  -0.001382  -0.000706
     2  O   -0.165009   8.198441   0.007481   0.203937  -0.001637
     3  H    0.208105   0.007481   0.563180   0.005273  -0.000075
     4  H   -0.001382   0.203937   0.005273   0.561761  -0.004332
     5  Kr  -0.000706  -0.001637  -0.000075  -0.004332   0.001397
 Mulliken atomic charges:
              1
     1  O   -0.212917
     2  O   -0.243213
     3  H    0.216035
     4  H    0.234742
     5  Kr   0.005353
 Sum of Mulliken atomic charges =   0.00000
 Mulliken charges with hydrogens summed into heavy atoms:
              1
     1  O    0.003118
     2  O   -0.008471
     5  Kr   0.005353
 Sum of Mulliken charges with hydrogens summed into heavy atoms =   0.00000
          Condensed to fragments (all electrons):
     1      -0.005353
     2       0.005353
 Electronic spatial extent (au):  <R**2>=            323.6762
 Charge=              0.0000 electrons
 Dipole moment (field-independent basis, Debye):
    X=             -0.3545    Y=             -0.0636    Z=              1.0172  Tot=              1.0791
 Quadrupole moment (field-independent basis, Debye-Ang):
   XX=            -10.8025   YY=            -10.5402   ZZ=            -12.4270
   XY=             -3.7453   XZ=              2.9414   YZ=             -1.0848
 Traceless Quadrupole moment (field-independent basis, Debye-Ang):
   XX=              0.4541   YY=              0.7164   ZZ=             -1.1704
   XY=             -3.7453   XZ=              2.9414   YZ=             -1.0848
 Octapole moment (field-independent basis, Debye-Ang**2):
  XXX=            -61.2986  YYY=             -1.3311  ZZZ=              0.7247  XYY=            -21.5583
  XXY=            -14.2269  XXZ=              8.5174  XZZ=            -24.4127  YZZ=             -1.0932
  YYZ=              1.3551  XYZ=             -3.1867
 Hexadecapole moment (field-independent basis, Debye-Ang**3):
 XXXX=           -253.2674 YYYY=            -45.2124 ZZZZ=            -11.7154 XXXY=            -41.4531
 XXXZ=             24.2279 YYYX=             -4.9756 YYYZ=             -1.4021 ZZZX=              1.5174
 ZZZY=             -0.7847 XXYY=            -51.8624 XXZZ=            -51.8344 YYZZ=            -10.8547
 XXYZ=             -9.1465 YYXZ=              3.5296 ZZXY=             -1.7519
 N-N= 3.660563427413D+01 E-N=-4.317242237842D+02  KE= 1.506675515285D+02
 No NMR shielding tensors so no spin-rotation constants.
 Leave Link  601 at Sat May  9 21:34:57 2020, MaxMem= 1073741824 cpu:       0.8
 (Enter /home/matheus/.gaussian/g09/l122.exe)
 Counterpoise: doing DCBS calculation for fragment   2 NewBq=T
 Leave Link  122 at Sat May  9 21:34:57 2020, MaxMem= 1073741824 cpu:       0.0
 (Enter /home/matheus/.gaussian/g09/l301.exe)
 Basis read from rwf:  (5D, 7F)
 No pseudopotential information found on rwf file.
 There are   197 symmetry adapted basis functions of A   symmetry.
 Integral buffers will be    131072 words long.
 Raffenetti 2 integral format.
 Two-electron integral symmetry is turned on.
   197 basis functions,   415 primitive gaussians,   229 cartesian basis functions
    18 alpha electrons       18 beta electrons
       nuclear repulsion energy         0.0000000000 Hartrees.
 IExCor= 4639 DFT=T Ex+Corr=wB97XD ExCW=0 ScaHFX=  1.000000
 ScaDFX=  1.000000  1.000000  1.000000  1.000000 ScalE2=  1.000000  1.000000
 IRadAn=      5 IRanWt=     -1 IRanGd=            0 ICorTp=0
  HFx wShort=  0.000000 wLong=  0.200000 cFull=  0.222036 cShort=  0.000000 cLong=  0.777964
  DFx wShort=  0.000000 wLong=  0.200000 cFull=  0.000000 cShort=  0.000000 cLong=  1.000000
 NAtoms=    5 NActive=    5 NUniq=    5 SFac= 1.00D+00 NAtFMM=   60 NAOKFM=F Big=F
 R6Disp: Dispersion energy =         0.0000000000 Hartrees.
 Nuclear repulsion after empirical dispersion term =        0.0000000000 Hartrees.
 No density basis found on file   718.
 Leave Link  301 at Sat May  9 21:34:57 2020, MaxMem= 1073741824 cpu:       0.2
 (Enter /home/matheus/.gaussian/g09/l302.exe)
 NPDir=0 NMtPBC=     1 NCelOv=     1 NCel=       1 NClECP=     1 NCelD=      1
         NCelK=      1 NCelE2=     1 NClLst=     1 CellRange=     0.0.
 One-electron integrals computed using PRISM.
 NBasis=   197 RedAO= T  NBF=   197
 NBsUse=   197 1.00D-06 NBFU=   197
 Precomputing XC quadrature grid using
 IXCGrd= 2 IRadAn=           5 IRanWt=          -1 IRanGd=           0 AccXCQ= 0.00D+00.
 NRdTot=     427 NPtTot=      123814 NUsed=      126881 NTot=      126913
 NSgBfM=   229   229   229   229   229 NAtAll=     5     5.
 Leave Link  302 at Sat May  9 21:34:57 2020, MaxMem= 1073741824 cpu:       1.1
 (Enter /home/matheus/.gaussian/g09/l303.exe)
 DipDrv:  MaxL=1.
 Leave Link  303 at Sat May  9 21:34:57 2020, MaxMem= 1073741824 cpu:       0.2
 (Enter /home/matheus/.gaussian/g09/l401.exe)
 Harris functional with IExCor= 4639 diagonalized for initial guess.
 ExpMin= 2.53D-02 ExpMax= 1.17D+07 ExpMxC= 1.33D+04 IAcc=3 IRadAn=         5 AccDes= 0.00D+00
 HarFok:  IExCor= 4639 AccDes= 0.00D+00 IRadAn=         5 IDoV= 1
 ScaDFX=  1.000000  1.000000  1.000000  1.000000
 FoFCou: FMM=F IPFlag=           0 FMFlag=      100000 FMFlg1=           0
         NFxFlg=           0 DoJE=T BraDBF=F KetDBF=T FulRan=T
         Omega=  0.000000  0.000000  1.000000  0.000000  0.000000 ICntrl=     500 IOpCl=  0
         NMat0=    1 NMatS0=    1 NMatT0=    0 NMatD0=    1 NMtDS0=    0 NMtDT0=    0
         I1Cent=           4 NGrid=           0.
 Petite list used in FoFCou.
 Harris En= -2730.20433901927    
 Initial guess orbital symmetries:
       Occupied  (A) (A) (A) (A) (A) (A) (A) (A) (A) (A) (A) (A)
                 (A) (A) (A) (A) (A) (A)
       Virtual   (A) (A) (A) (A) (A) (A) (A) (A) (A) (A) (A) (A)
                 (A) (A) (A) (A) (A) (A) (A) (A) (A) (A) (A) (A)
                 (A) (A) (A) (A) (A) (A) (A) (A) (A) (A) (A) (A)
                 (A) (A) (A) (A) (A) (A) (A) (A) (A) (A) (A) (A)
                 (A) (A) (A) (A) (A) (A) (A) (A) (A) (A) (A) (A)
                 (A) (A) (A) (A) (A) (A) (A) (A) (A) (A) (A) (A)
                 (A) (A) (A) (A) (A) (A) (A) (A) (A) (A) (A) (A)
                 (A) (A) (A) (A) (A) (A) (A) (A) (A) (A) (A) (A)
                 (A) (A) (A) (A) (A) (A) (A) (A) (A) (A) (A) (A)
                 (A) (A) (A) (A) (A) (A) (A) (A) (A) (A) (A) (A)
                 (A) (A) (A) (A) (A) (A) (A) (A) (A) (A) (A) (A)
                 (A) (A) (A) (A) (A) (A) (A) (A) (A) (A) (A) (A)
                 (A) (A) (A) (A) (A) (A) (A) (A) (A) (A) (A) (A)
                 (A) (A) (A) (A) (A) (A) (A) (A) (A) (A) (A) (A)
                 (A) (A) (A) (A) (A) (A) (A) (A) (A) (A) (A)
 The electronic state of the initial guess is 1-A.
 Leave Link  401 at Sat May  9 21:34:58 2020, MaxMem= 1073741824 cpu:       5.0
 (Enter /home/matheus/.gaussian/g09/l502.exe)
 Closed shell SCF:
 Requested convergence on RMS density matrix=1.00D-08 within 128 cycles.
 Requested convergence on MAX density matrix=1.00D-06.
 Requested convergence on             energy=1.00D-06.
 No special actions if energy rises.
 Using DIIS extrapolation, IDIIS=  1040.
 Integral symmetry usage will be decided dynamically.
       126823 words used for storage of precomputed grid.
 IEnd=      305770 IEndB=      305770 NGot=  1073741824 MDV=  1073505365
 LenX=  1073505365 LenY=  1073452483
 Fock matrices will be formed incrementally for  20 cycles.

 Cycle   1  Pass 1  IDiag  1:
 FoFJK:  IHMeth= 1 ICntrl=     0 DoSepK=T KAlg= 1 I1Cent= 0 FoldK=F
 FoFCou: FMM=F IPFlag=           0 FMFlag=      100000 FMFlg1=           0
         NFxFlg=           0 DoJE=T BraDBF=F KetDBF=F FulRan=T
         Omega=  0.000000  0.000000  1.000000  0.000000  0.000000 ICntrl=     500 IOpCl=  0
         NMat0=    1 NMatS0=    1 NMatT0=    0 NMatD0=    1 NMtDS0=    0 NMtDT0=    0
         I1Cent=           0 NGrid=           0.
 Symmetry not used in FoFCou.
 E= -2753.46462558883    
 DIIS: error= 7.40D-02 at cycle   1 NSaved=   1.
 NSaved= 1 IEnMin= 1 EnMin= -2753.46462558883     IErMin= 1 ErrMin= 7.40D-02
 ErrMax= 7.40D-02 EMaxC= 1.00D-01 BMatC= 1.87D+00 BMatP= 1.87D+00
 IDIUse=3 WtCom= 2.60D-01 WtEn= 7.40D-01
 Coeff-Com:  0.100D+01
 Coeff-En:   0.100D+01
 Coeff:      0.100D+01
 Gap=     0.634 Goal=   None    Shift=    0.000
 GapD=    0.634 DampG=2.000 DampE=0.500 DampFc=1.0000 IDamp=-1.
 RMSDP=5.61D-03 MaxDP=3.67D-01              OVMax= 1.78D-01

 Cycle   2  Pass 1  IDiag  1:
 RMSU=  3.91D-03    CP:  1.04D+00
 FoFJK:  IHMeth= 1 ICntrl=     0 DoSepK=T KAlg= 1 I1Cent= 0 FoldK=F
 E= -2753.72411935728     Delta-E=       -0.259493768450 Rises=F Damp=F
 DIIS: error= 3.61D-02 at cycle   2 NSaved=   2.
 NSaved= 2 IEnMin= 2 EnMin= -2753.72411935728     IErMin= 2 ErrMin= 3.61D-02
 ErrMax= 3.61D-02 EMaxC= 1.00D-01 BMatC= 4.75D-01 BMatP= 1.87D+00
 IDIUse=3 WtCom= 6.39D-01 WtEn= 3.61D-01
 Coeff-Com:  0.330D+00 0.670D+00
 Coeff-En:   0.183D+00 0.817D+00
 Coeff:      0.277D+00 0.723D+00
 Gap=     0.471 Goal=   None    Shift=    0.000
 RMSDP=2.55D-03 MaxDP=1.61D-01 DE=-2.59D-01 OVMax= 7.97D-02

 Cycle   3  Pass 1  IDiag  1:
 RMSU=  3.71D-04    CP:  1.03D+00  5.54D-01
 FoFJK:  IHMeth= 1 ICntrl=     0 DoSepK=T KAlg= 1 I1Cent= 0 FoldK=F
 E= -2753.87066880275     Delta-E=       -0.146549445478 Rises=F Damp=F
 DIIS: error= 5.41D-03 at cycle   3 NSaved=   3.
 NSaved= 3 IEnMin= 3 EnMin= -2753.87066880275     IErMin= 3 ErrMin= 5.41D-03
 ErrMax= 5.41D-03 EMaxC= 1.00D-01 BMatC= 1.15D-02 BMatP= 4.75D-01
 IDIUse=3 WtCom= 9.46D-01 WtEn= 5.41D-02
 Coeff-Com: -0.568D-02 0.126D+00 0.880D+00
 Coeff-En:   0.000D+00 0.000D+00 0.100D+01
 Coeff:     -0.537D-02 0.119D+00 0.886D+00
 Gap=     0.501 Goal=   None    Shift=    0.000
 RMSDP=3.20D-04 MaxDP=1.82D-02 DE=-1.47D-01 OVMax= 1.33D-02

 Cycle   4  Pass 1  IDiag  1:
 RMSU=  4.56D-05    CP:  1.03D+00  6.10D-01  9.38D-01
 FoFJK:  IHMeth= 1 ICntrl=     0 DoSepK=T KAlg= 1 I1Cent= 0 FoldK=F
 E= -2753.87434306972     Delta-E=       -0.003674266963 Rises=F Damp=F
 DIIS: error= 2.87D-04 at cycle   4 NSaved=   4.
 NSaved= 4 IEnMin= 4 EnMin= -2753.87434306972     IErMin= 4 ErrMin= 2.87D-04
 ErrMax= 2.87D-04 EMaxC= 1.00D-01 BMatC= 2.61D-05 BMatP= 1.15D-02
 IDIUse=3 WtCom= 9.97D-01 WtEn= 2.87D-03
 Coeff-Com: -0.805D-03-0.156D-01-0.422D-01 0.106D+01
 Coeff-En:   0.000D+00 0.000D+00 0.000D+00 0.100D+01
 Coeff:     -0.803D-03-0.156D-01-0.421D-01 0.106D+01
 Gap=     0.498 Goal=   None    Shift=    0.000
 RMSDP=2.48D-05 MaxDP=9.28D-04 DE=-3.67D-03 OVMax= 8.32D-04

 Cycle   5  Pass 1  IDiag  1:
 RMSU=  1.13D-05    CP:  1.03D+00  6.07D-01  9.58D-01  1.12D+00
 FoFJK:  IHMeth= 1 ICntrl=     0 DoSepK=T KAlg= 1 I1Cent= 0 FoldK=F
 E= -2753.87435475354     Delta-E=       -0.000011683828 Rises=F Damp=F
 DIIS: error= 1.21D-05 at cycle   5 NSaved=   5.
 NSaved= 5 IEnMin= 5 EnMin= -2753.87435475354     IErMin= 5 ErrMin= 1.21D-05
 ErrMax= 1.21D-05 EMaxC= 1.00D-01 BMatC= 3.72D-08 BMatP= 2.61D-05
 IDIUse=1 WtCom= 1.00D+00 WtEn= 0.00D+00
 Coeff-Com:  0.121D-03-0.788D-03-0.861D-02-0.344D-01 0.104D+01
 Coeff:      0.121D-03-0.788D-03-0.861D-02-0.344D-01 0.104D+01
 Gap=     0.498 Goal=   None    Shift=    0.000
 RMSDP=2.58D-06 MaxDP=1.14D-04 DE=-1.17D-05 OVMax= 1.87D-04

 Cycle   6  Pass 1  IDiag  1:
 RMSU=  9.42D-07    CP:  1.03D+00  6.07D-01  9.59D-01  1.14D+00  1.09D+00
 FoFJK:  IHMeth= 1 ICntrl=     0 DoSepK=T KAlg= 1 I1Cent= 0 FoldK=F
 E= -2753.87435487447     Delta-E=       -0.000000120930 Rises=F Damp=F
 DIIS: error= 4.35D-06 at cycle   6 NSaved=   6.
 NSaved= 6 IEnMin= 6 EnMin= -2753.87435487447     IErMin= 6 ErrMin= 4.35D-06
 ErrMax= 4.35D-06 EMaxC= 1.00D-01 BMatC= 4.08D-09 BMatP= 3.72D-08
 IDIUse=1 WtCom= 1.00D+00 WtEn= 0.00D+00
 Coeff-Com:  0.631D-05 0.230D-03 0.119D-03-0.366D-01 0.542D-01 0.982D+00
 Coeff:      0.631D-05 0.230D-03 0.119D-03-0.366D-01 0.542D-01 0.982D+00
 Gap=     0.498 Goal=   None    Shift=    0.000
 RMSDP=6.13D-07 MaxDP=2.64D-05 DE=-1.21D-07 OVMax= 2.76D-05

 Cycle   7  Pass 1  IDiag  1:
 RMSU=  9.79D-08    CP:  1.03D+00  6.07D-01  9.59D-01  1.14D+00  1.12D+00
                    CP:  1.20D+00
 FoFJK:  IHMeth= 1 ICntrl=     0 DoSepK=T KAlg= 1 I1Cent= 0 FoldK=F
 E= -2753.87435487878     Delta-E=       -0.000000004308 Rises=F Damp=F
 DIIS: error= 2.29D-07 at cycle   7 NSaved=   7.
 NSaved= 7 IEnMin= 7 EnMin= -2753.87435487878     IErMin= 7 ErrMin= 2.29D-07
 ErrMax= 2.29D-07 EMaxC= 1.00D-01 BMatC= 3.17D-11 BMatP= 4.08D-09
 IDIUse=1 WtCom= 1.00D+00 WtEn= 0.00D+00
 Coeff-Com:  0.391D-06 0.678D-04 0.141D-03-0.815D-02 0.374D-02 0.213D+00
 Coeff-Com:  0.791D+00
 Coeff:      0.391D-06 0.678D-04 0.141D-03-0.815D-02 0.374D-02 0.213D+00
 Coeff:      0.791D+00
 Gap=     0.498 Goal=   None    Shift=    0.000
 RMSDP=4.51D-08 MaxDP=1.49D-06 DE=-4.31D-09 OVMax= 2.45D-06

 Cycle   8  Pass 1  IDiag  1:
 RMSU=  1.75D-08    CP:  1.03D+00  6.07D-01  9.59D-01  1.14D+00  1.12D+00
                    CP:  1.22D+00  1.06D+00
 FoFJK:  IHMeth= 1 ICntrl=     0 DoSepK=T KAlg= 1 I1Cent= 0 FoldK=F
 E= -2753.87435487881     Delta-E=       -0.000000000023 Rises=F Damp=F
 DIIS: error= 5.61D-08 at cycle   8 NSaved=   8.
 NSaved= 8 IEnMin= 8 EnMin= -2753.87435487881     IErMin= 8 ErrMin= 5.61D-08
 ErrMax= 5.61D-08 EMaxC= 1.00D-01 BMatC= 1.65D-12 BMatP= 3.17D-11
 IDIUse=1 WtCom= 1.00D+00 WtEn= 0.00D+00
 Coeff-Com: -0.138D-06-0.405D-05 0.227D-04 0.156D-02-0.274D-02-0.435D-01
 Coeff-Com:  0.655D-01 0.979D+00
 Coeff:     -0.138D-06-0.405D-05 0.227D-04 0.156D-02-0.274D-02-0.435D-01
 Coeff:      0.655D-01 0.979D+00
 Gap=     0.498 Goal=   None    Shift=    0.000
 RMSDP=2.05D-08 MaxDP=8.73D-07 DE=-2.27D-11 OVMax= 5.35D-07

 Cycle   9  Pass 1  IDiag  1:
 RMSU=  3.47D-09    CP:  1.03D+00  6.07D-01  9.59D-01  1.14D+00  1.12D+00
                    CP:  1.23D+00  1.12D+00  1.11D+00
 FoFJK:  IHMeth= 1 ICntrl=     0 DoSepK=T KAlg= 1 I1Cent= 0 FoldK=F
 E= -2753.87435487882     Delta-E=       -0.000000000013 Rises=F Damp=F
 DIIS: error= 7.49D-09 at cycle   9 NSaved=   9.
 NSaved= 9 IEnMin= 9 EnMin= -2753.87435487882     IErMin= 9 ErrMin= 7.49D-09
 ErrMax= 7.49D-09 EMaxC= 1.00D-01 BMatC= 6.79D-15 BMatP= 1.65D-12
 IDIUse=1 WtCom= 1.00D+00 WtEn= 0.00D+00
 Coeff-Com:  0.107D-07 0.174D-06-0.222D-05-0.134D-03 0.788D-04 0.468D-02
 Coeff-Com: -0.142D-01-0.138D+00 0.115D+01
 Coeff:      0.107D-07 0.174D-06-0.222D-05-0.134D-03 0.788D-04 0.468D-02
 Coeff:     -0.142D-01-0.138D+00 0.115D+01
 Gap=     0.498 Goal=   None    Shift=    0.000
 RMSDP=1.88D-09 MaxDP=7.54D-08 DE=-1.32D-11 OVMax= 9.55D-08

 SCF Done:  E(RwB97XD) =  -2753.87435488     A.U. after    9 cycles
             Convg  =    0.1877D-08             -V/T =  2.0013
 KE= 2.750260626766D+03 PE=-6.580199081382D+03 EE= 1.076064099737D+03
 Leave Link  502 at Sat May  9 21:35:35 2020, MaxMem= 1073741824 cpu:     293.4
 (Enter /home/matheus/.gaussian/g09/l601.exe)
 Copying SCF densities to generalized density rwf, IOpCl= 0 IROHF=0.

 **********************************************************************

            Population analysis using the SCF density.

 **********************************************************************

 Orbital symmetries:
       Occupied  (A) (A) (A) (A) (A) (A) (A) (A) (A) (A) (A) (A)
                 (A) (A) (A) (A) (A) (A)
       Virtual   (A) (A) (A) (A) (A) (A) (A) (A) (A) (A) (A) (A)
                 (A) (A) (A) (A) (A) (A) (A) (A) (A) (A) (A) (A)
                 (A) (A) (A) (A) (A) (A) (A) (A) (A) (A) (A) (A)
                 (A) (A) (A) (A) (A) (A) (A) (A) (A) (A) (A) (A)
                 (A) (A) (A) (A) (A) (A) (A) (A) (A) (A) (A) (A)
                 (A) (A) (A) (A) (A) (A) (A) (A) (A) (A) (A) (A)
                 (A) (A) (A) (A) (A) (A) (A) (A) (A) (A) (A) (A)
                 (A) (A) (A) (A) (A) (A) (A) (A) (A) (A) (A) (A)
                 (A) (A) (A) (A) (A) (A) (A) (A) (A) (A) (A) (A)
                 (A) (A) (A) (A) (A) (A) (A) (A) (A) (A) (A) (A)
                 (A) (A) (A) (A) (A) (A) (A) (A) (A) (A) (A) (A)
                 (A) (A) (A) (A) (A) (A) (A) (A) (A) (A) (A) (A)
                 (A) (A) (A) (A) (A) (A) (A) (A) (A) (A) (A) (A)
                 (A) (A) (A) (A) (A) (A) (A) (A) (A) (A) (A) (A)
                 (A) (A) (A) (A) (A) (A) (A) (A) (A) (A) (A)
 The electronic state is 1-A.
 Alpha  occ. eigenvalues -- -513.05922 -67.32596 -60.87472 -60.87470 -60.87470
 Alpha  occ. eigenvalues --   -9.77892  -7.47187  -7.47186  -7.47186  -3.33929
 Alpha  occ. eigenvalues --   -3.33928  -3.33928  -3.33927  -3.33927  -0.98489
 Alpha  occ. eigenvalues --   -0.46647  -0.46643  -0.46642
 Alpha virt. eigenvalues --    0.03175   0.05136   0.08680   0.10012   0.11489
 Alpha virt. eigenvalues --    0.12549   0.13390   0.14540   0.16635   0.17361
 Alpha virt. eigenvalues --    0.18002   0.19742   0.21036   0.25301   0.26359
 Alpha virt. eigenvalues --    0.26813   0.28079   0.31350   0.33180   0.34785
 Alpha virt. eigenvalues --    0.35513   0.37025   0.37961   0.38891   0.41603
 Alpha virt. eigenvalues --    0.41851   0.43038   0.51981   0.54057   0.57043
 Alpha virt. eigenvalues --    0.58372   0.66295   0.67158   0.69887   0.71729
 Alpha virt. eigenvalues --    0.73921   0.74423   0.75345   0.76026   0.77913
 Alpha virt. eigenvalues --    0.79212   0.79531   0.83493   0.84812   0.85463
 Alpha virt. eigenvalues --    0.86725   0.88008   0.88991   0.91067   0.93875
 Alpha virt. eigenvalues --    0.97230   0.97766   0.99847   1.01487   1.02309
 Alpha virt. eigenvalues --    1.04115   1.06117   1.07253   1.11356   1.12847
 Alpha virt. eigenvalues --    1.13993   1.17192   1.19761   1.23937   1.27691
 Alpha virt. eigenvalues --    1.32071   1.35360   1.41047   1.43066   1.43516
 Alpha virt. eigenvalues --    1.57368   1.58718   1.60026   1.72343   1.78777
 Alpha virt. eigenvalues --    1.81993   1.85361   1.87129   1.91459   2.14326
 Alpha virt. eigenvalues --    2.18255   2.25227   2.27132   2.28735   2.29205
 Alpha virt. eigenvalues --    2.31454   2.31876   2.35090   2.36818   2.39591
 Alpha virt. eigenvalues --    2.43878   2.46229   2.46443   2.47703   2.48500
 Alpha virt. eigenvalues --    2.49961   2.52516   2.54652   2.55128   2.59280
 Alpha virt. eigenvalues --    2.61471   2.62268   2.63741   2.64948   2.67443
 Alpha virt. eigenvalues --    2.71137   2.75050   2.78738   2.82975   2.88095
 Alpha virt. eigenvalues --    2.92099   2.96340   3.04560   3.13243   3.17047
 Alpha virt. eigenvalues --    3.22643   3.28237   3.33510   3.36008   3.51705
 Alpha virt. eigenvalues --    3.61392   3.66877   3.83387   3.87711   4.03949
 Alpha virt. eigenvalues --    4.35762   4.50664   4.53342   4.54890   4.58773
 Alpha virt. eigenvalues --    4.72413   4.88559   4.89138   4.94923   5.04229
 Alpha virt. eigenvalues --    5.14535   5.17630   5.60043   5.63693   5.83483
 Alpha virt. eigenvalues --    5.98727   6.06195   6.11901   6.79833   6.86851
 Alpha virt. eigenvalues --    7.33432   7.40012   7.63644   7.65844   7.70328
 Alpha virt. eigenvalues --    7.85330   8.00994   8.11077   8.18451   8.22731
 Alpha virt. eigenvalues --    8.38419   8.41327   8.64694   8.89394   9.62733
 Alpha virt. eigenvalues --    9.71682   9.80692   9.88853   9.97522  10.03651
 Alpha virt. eigenvalues --   10.16634  10.27158  10.46823  10.94845  11.51051
 Alpha virt. eigenvalues --   11.60766  11.64870  12.06363  12.06474  13.25969
 Alpha virt. eigenvalues --   13.63540  14.54222  62.73927  64.58661
          Condensed to atoms (all electrons):
              1          2          3          4          5
     1  O    0.003377  -0.002601  -0.001766   0.001599  -0.013098
     2  O   -0.002601   0.006917   0.000810  -0.004392  -0.002978
     3  H   -0.001766   0.000810   0.001215  -0.000499   0.003561
     4  H    0.001599  -0.004392  -0.000499   0.004207  -0.021677
     5  Kr  -0.013098  -0.002978   0.003561  -0.021677  36.066366
 Mulliken atomic charges:
              1
     1  O    0.012489
     2  O    0.002244
     3  H   -0.003320
     4  H    0.020761
     5  Kr  -0.032173
 Sum of Mulliken atomic charges =   0.00000
 Mulliken charges with hydrogens summed into heavy atoms:
              1
     1  O    0.009168
     2  O    0.023005
     5  Kr  -0.032173
 Sum of Mulliken charges with hydrogens summed into heavy atoms =   0.00000
          Condensed to fragments (all electrons):
     1       0.032173
     2      -0.032173
 Electronic spatial extent (au):  <R**2>=            166.8939
 Charge=              0.0000 electrons
 Dipole moment (field-independent basis, Debye):
    X=              0.0004    Y=              0.0005    Z=              0.0001  Tot=              0.0006
 Quadrupole moment (field-independent basis, Debye-Ang):
   XX=            -17.6273   YY=            -17.6406   ZZ=            -17.6478
   XY=              0.0050   XZ=             -0.0003   YZ=              0.0004
 Traceless Quadrupole moment (field-independent basis, Debye-Ang):
   XX=              0.0113   YY=             -0.0020   ZZ=             -0.0092
   XY=              0.0050   XZ=             -0.0003   YZ=              0.0004
 Octapole moment (field-independent basis, Debye-Ang**2):
  XXX=             52.6633  YYY=              0.9085  ZZZ=             -0.1529  XYY=             17.5686
  XXY=              0.2920  XXZ=             -0.0511  XZZ=             17.5727  YZZ=              0.3037
  YYZ=             -0.0504  XYZ=             -0.0004
 Hexadecapole moment (field-independent basis, Debye-Ang**3):
 XXXX=           -123.3098 YYYY=            -18.4635 ZZZZ=            -18.4526 XXXY=             -0.8798
 XXXZ=              0.1532 YYYX=             -0.8888 YYYZ=              0.0014 ZZZX=              0.1527
 ZZZY=              0.0035 XXYY=            -23.6416 XXZZ=            -23.6419 YYZZ=             -6.1500
 XXYZ=              0.0012 YYXZ=              0.0510 ZZXY=             -0.2946
 N-N= 0.000000000000D+00 E-N=-6.580199082135D+03  KE= 2.750260626766D+03
 No NMR shielding tensors so no spin-rotation constants.
 Leave Link  601 at Sat May  9 21:35:35 2020, MaxMem= 1073741824 cpu:       0.8
 (Enter /home/matheus/.gaussian/g09/l122.exe)
 Counterpoise: doing MCBS calculation for fragment   1
 Leave Link  122 at Sat May  9 21:35:35 2020, MaxMem= 1073741824 cpu:       0.0
 (Enter /home/matheus/.gaussian/g09/l301.exe)
 Basis read from rwf:  (5D, 7F)
 No pseudopotential information found on rwf file.
 There are   138 symmetry adapted basis functions of A   symmetry.
 Integral buffers will be    131072 words long.
 Raffenetti 2 integral format.
 Two-electron integral symmetry is turned on.
   138 basis functions,   198 primitive gaussians,   160 cartesian basis functions
     9 alpha electrons        9 beta electrons
       nuclear repulsion energy        36.6058450489 Hartrees.
 IExCor= 4639 DFT=T Ex+Corr=wB97XD ExCW=0 ScaHFX=  1.000000
 ScaDFX=  1.000000  1.000000  1.000000  1.000000 ScalE2=  1.000000  1.000000
 IRadAn=      5 IRanWt=     -1 IRanGd=            0 ICorTp=0
  HFx wShort=  0.000000 wLong=  0.200000 cFull=  0.222036 cShort=  0.000000 cLong=  0.777964
  DFx wShort=  0.000000 wLong=  0.200000 cFull=  0.000000 cShort=  0.000000 cLong=  1.000000
 NAtoms=    5 NActive=    4 NUniq=    4 SFac= 1.00D+00 NAtFMM=   60 NAOKFM=F Big=F
 R6Disp: Dispersion energy =        -0.0002107748 Hartrees.
 Nuclear repulsion after empirical dispersion term =       36.6056342741 Hartrees.
 No density basis found on file   718.
 Leave Link  301 at Sat May  9 21:35:35 2020, MaxMem= 1073741824 cpu:       0.2
 (Enter /home/matheus/.gaussian/g09/l302.exe)
 NPDir=0 NMtPBC=     1 NCelOv=     1 NCel=       1 NClECP=     1 NCelD=      1
         NCelK=      1 NCelE2=     1 NClLst=     1 CellRange=     0.0.
 One-electron integrals computed using PRISM.
 NBasis=   138 RedAO= T  NBF=   138
 NBsUse=   138 1.00D-06 NBFU=   138
 Precomputing XC quadrature grid using
 IXCGrd= 2 IRadAn=           5 IRanWt=          -1 IRanGd=           0 AccXCQ= 0.00D+00.
 NRdTot=     344 NPtTot=       92556 NUsed=       95038 NTot=       95070
 NSgBfM=   160   160   160   160   160 NAtAll=     4     4.
 Leave Link  302 at Sat May  9 21:35:35 2020, MaxMem= 1073741824 cpu:       0.8
 (Enter /home/matheus/.gaussian/g09/l303.exe)
 DipDrv:  MaxL=1.
 Leave Link  303 at Sat May  9 21:35:35 2020, MaxMem= 1073741824 cpu:       0.2
 (Enter /home/matheus/.gaussian/g09/l401.exe)
 Harris functional with IExCor= 4639 diagonalized for initial guess.
 ExpMin= 2.53D-02 ExpMax= 1.53D+04 ExpMxC= 5.22D+02 IAcc=3 IRadAn=         5 AccDes= 0.00D+00
 HarFok:  IExCor= 4639 AccDes= 0.00D+00 IRadAn=         5 IDoV= 1
 ScaDFX=  1.000000  1.000000  1.000000  1.000000
 FoFCou: FMM=F IPFlag=           0 FMFlag=      100000 FMFlg1=           0
         NFxFlg=           0 DoJE=T BraDBF=F KetDBF=T FulRan=T
         Omega=  0.000000  0.000000  1.000000  0.000000  0.000000 ICntrl=     500 IOpCl=  0
         NMat0=    1 NMatS0=    1 NMatT0=    0 NMatD0=    1 NMtDS0=    0 NMtDT0=    0
         I1Cent=           4 NGrid=           0.
 Petite list used in FoFCou.
 Harris En= -146.293044194597    
 Initial guess orbital symmetries:
       Occupied  (A) (A) (A) (A) (A) (A) (A) (A) (A)
       Virtual   (A) (A) (A) (A) (A) (A) (A) (A) (A) (A) (A) (A)
                 (A) (A) (A) (A) (A) (A) (A) (A) (A) (A) (A) (A)
                 (A) (A) (A) (A) (A) (A) (A) (A) (A) (A) (A) (A)
                 (A) (A) (A) (A) (A) (A) (A) (A) (A) (A) (A) (A)
                 (A) (A) (A) (A) (A) (A) (A) (A) (A) (A) (A) (A)
                 (A) (A) (A) (A) (A) (A) (A) (A) (A) (A) (A) (A)
                 (A) (A) (A) (A) (A) (A) (A) (A) (A) (A) (A) (A)
                 (A) (A) (A) (A) (A) (A) (A) (A) (A) (A) (A) (A)
                 (A) (A) (A) (A) (A) (A) (A) (A) (A) (A) (A) (A)
                 (A) (A) (A) (A) (A) (A) (A) (A) (A) (A) (A) (A)
                 (A) (A) (A) (A) (A) (A) (A) (A) (A)
 The electronic state of the initial guess is 1-A.
 Leave Link  401 at Sat May  9 21:35:35 2020, MaxMem= 1073741824 cpu:       2.6
 (Enter /home/matheus/.gaussian/g09/l502.exe)
 Closed shell SCF:
 Requested convergence on RMS density matrix=1.00D-08 within 128 cycles.
 Requested convergence on MAX density matrix=1.00D-06.
 Requested convergence on             energy=1.00D-06.
 No special actions if energy rises.
 Using DIIS extrapolation, IDIIS=  1040.
 Integral symmetry usage will be decided dynamically.
        94980 words used for storage of precomputed grid.
 IEnd=      192360 IEndB=      192360 NGot=  1073741824 MDV=  1073591865
 LenX=  1073591865 LenY=  1073565824
 Fock matrices will be formed incrementally for  20 cycles.

 Cycle   1  Pass 1  IDiag  1:
 FoFJK:  IHMeth= 1 ICntrl=     0 DoSepK=T KAlg= 1 I1Cent= 0 FoldK=F
 FoFCou: FMM=F IPFlag=           0 FMFlag=      100000 FMFlg1=           0
         NFxFlg=           0 DoJE=T BraDBF=F KetDBF=F FulRan=T
         Omega=  0.000000  0.000000  1.000000  0.000000  0.000000 ICntrl=     500 IOpCl=  0
         NMat0=    1 NMatS0=    1 NMatT0=    0 NMatD0=    1 NMtDS0=    0 NMtDT0=    0
         I1Cent=           0 NGrid=           0.
 Symmetry not used in FoFCou.
 E= -151.477644836430    
 DIIS: error= 3.70D-02 at cycle   1 NSaved=   1.
 NSaved= 1 IEnMin= 1 EnMin= -151.477644836430     IErMin= 1 ErrMin= 3.70D-02
 ErrMax= 3.70D-02 EMaxC= 1.00D-01 BMatC= 2.99D-01 BMatP= 2.99D-01
 IDIUse=3 WtCom= 6.30D-01 WtEn= 3.70D-01
 Coeff-Com:  0.100D+01
 Coeff-En:   0.100D+01
 Coeff:      0.100D+01
 Gap=     0.507 Goal=   None    Shift=    0.000
 GapD=    0.507 DampG=2.000 DampE=0.500 DampFc=1.0000 IDamp=-1.
 RMSDP=3.32D-03 MaxDP=1.04D-01              OVMax= 1.09D-01

 Cycle   2  Pass 1  IDiag  1:
 RMSU=  2.31D-03    CP:  9.56D-01
 FoFJK:  IHMeth= 1 ICntrl=     0 DoSepK=T KAlg= 1 I1Cent= 0 FoldK=F
 E= -151.506956830643     Delta-E=       -0.029311994213 Rises=F Damp=F
 DIIS: error= 2.67D-02 at cycle   2 NSaved=   2.
[...]
 Gap=     0.496 Goal=   None    Shift=    0.000
 RMSDP=2.12D-07 MaxDP=8.11D-06 DE=-7.44D-09 OVMax= 9.98D-06

 Cycle   4  Pass 1  IDiag  1:
 RMSU=  5.64D-08    CP:  1.00D+00  1.09D+00  1.21D+00
 FoFJK:  IHMeth= 1 ICntrl=     0 DoSepK=T KAlg= 1 I1Cent= 0 FoldK=F
 E= -2753.87423851479     Delta-E=       -0.000000000198 Rises=F Damp=F
 DIIS: error= 3.75D-07 at cycle   4 NSaved=   4.
 NSaved= 4 IEnMin= 4 EnMin= -2753.87423851479     IErMin= 4 ErrMin= 3.75D-07
 ErrMax= 3.75D-07 EMaxC= 1.00D-01 BMatC= 1.86D-11 BMatP= 1.11D-10
 IDIUse=1 WtCom= 1.00D+00 WtEn= 0.00D+00
 Coeff-Com:  0.210D-03-0.525D-01 0.339D+00 0.713D+00
 Coeff:      0.210D-03-0.525D-01 0.339D+00 0.713D+00
 Gap=     0.496 Goal=   None    Shift=    0.000
 RMSDP=2.35D-08 MaxDP=9.91D-07 DE=-1.98D-10 OVMax= 1.39D-06

 Cycle   5  Pass 1  IDiag  1:
 RMSU=  1.10D-08    CP:  1.00D+00  1.09D+00  1.24D+00  1.07D+00
 FoFJK:  IHMeth= 1 ICntrl=     0 DoSepK=T KAlg= 1 I1Cent= 0 FoldK=F
 E= -2753.87423851481     Delta-E=       -0.000000000022 Rises=F Damp=F
 DIIS: error= 2.12D-08 at cycle   5 NSaved=   5.
 NSaved= 5 IEnMin= 5 EnMin= -2753.87423851481     IErMin= 5 ErrMin= 2.12D-08
 ErrMax= 2.12D-08 EMaxC= 1.00D-01 BMatC= 1.47D-13 BMatP= 1.86D-11
 IDIUse=1 WtCom= 1.00D+00 WtEn= 0.00D+00
 Coeff-Com: -0.128D-05 0.338D-02-0.349D-01-0.162D-01 0.105D+01
 Coeff:     -0.128D-05 0.338D-02-0.349D-01-0.162D-01 0.105D+01
 Gap=     0.496 Goal=   None    Shift=    0.000
 RMSDP=1.00D-08 MaxDP=6.21D-07 DE=-2.23D-11 OVMax= 3.61D-07

 Cycle   6  Pass 1  IDiag  1:
 RMSU=  1.39D-09    CP:  1.00D+00  1.09D+00  1.24D+00  1.14D+00  1.16D+00
 FoFJK:  IHMeth= 1 ICntrl=     0 DoSepK=T KAlg= 1 I1Cent= 0 FoldK=F
 E= -2753.87423851481     Delta-E=       -0.000000000003 Rises=F Damp=F
 DIIS: error= 9.22D-09 at cycle   6 NSaved=   6.
 NSaved= 6 IEnMin= 6 EnMin= -2753.87423851481     IErMin= 6 ErrMin= 9.22D-09
 ErrMax= 9.22D-09 EMaxC= 1.00D-01 BMatC= 2.00D-14 BMatP= 1.47D-13
 IDIUse=1 WtCom= 1.00D+00 WtEn= 0.00D+00
 Coeff-Com: -0.114D-04 0.353D-02-0.263D-01-0.372D-01 0.284D+00 0.776D+00
 Coeff:     -0.114D-04 0.353D-02-0.263D-01-0.372D-01 0.284D+00 0.776D+00
 Gap=     0.496 Goal=   None    Shift=    0.000
 RMSDP=1.27D-09 MaxDP=7.15D-08 DE=-3.18D-12 OVMax= 6.86D-08

 SCF Done:  E(RwB97XD) =  -2753.87423851     A.U. after    6 cycles
             Convg  =    0.1267D-08             -V/T =  2.0013
 KE= 2.750294640941D+03 PE=-6.580235289329D+03 EE= 1.076066409874D+03
 Leave Link  502 at Sat May  9 22:03:20 2020, MaxMem= 1073741824 cpu:     124.6
 (Enter /home/matheus/.gaussian/g09/l122.exe)
 Restoring MOs from calculation   4 to rwf.
 Counterpoise: doing MCBS calculation for fragment   1
 Leave Link  122 at Sat May  9 22:03:20 2020, MaxMem= 1073741824 cpu:       0.0
 (Enter /home/matheus/.gaussian/g09/l301.exe)
 Basis read from rwf:  (5D, 7F)
 No pseudopotential information found on rwf file.
 There are   138 symmetry adapted basis functions of A   symmetry.
 Integral buffers will be    131072 words long.
 Raffenetti 2 integral format.
 Two-electron integral symmetry is turned on.
   138 basis functions,   198 primitive gaussians,   160 cartesian basis functions
     9 alpha electrons        9 beta electrons
       nuclear repulsion energy        36.6058450489 Hartrees.
 IExCor= 4639 DFT=T Ex+Corr=wB97XD ExCW=0 ScaHFX=  1.000000
 ScaDFX=  1.000000  1.000000  1.000000  1.000000 ScalE2=  1.000000  1.000000
 IRadAn=      5 IRanWt=     -1 IRanGd=            0 ICorTp=0
  HFx wShort=  0.000000 wLong=  0.200000 cFull=  0.222036 cShort=  0.000000 cLong=  0.777964
  DFx wShort=  0.000000 wLong=  0.200000 cFull=  0.000000 cShort=  0.000000 cLong=  1.000000
 NAtoms=    5 NActive=    4 NUniq=    4 SFac= 1.00D+00 NAtFMM=   60 NAOKFM=F Big=F
 R6Disp: Dispersion energy =        -0.0002107748 Hartrees.
 Nuclear repulsion after empirical dispersion term =       36.6056342741 Hartrees.
 No density basis found on file   718.
 Leave Link  301 at Sat May  9 22:03:20 2020, MaxMem= 1073741824 cpu:       0.2
 (Enter /home/matheus/.gaussian/g09/l302.exe)
 NPDir=0 NMtPBC=     1 NCelOv=     1 NCel=       1 NClECP=     1 NCelD=      1
         NCelK=      1 NCelE2=     1 NClLst=     1 CellRange=     0.0.
 One-electron integrals computed using PRISM.
 NBasis=   138 RedAO= T  NBF=   138
 NBsUse=   138 1.00D-06 NBFU=   138
 Precomputing XC quadrature grid using
 IXCGrd= 2 IRadAn=           5 IRanWt=          -1 IRanGd=           0 AccXCQ= 0.00D+00.
 NRdTot=     344 NPtTot=       92556 NUsed=       95038 NTot=       95070
 NSgBfM=   160   160   160   160   160 NAtAll=     4     4.
 Leave Link  302 at Sat May  9 22:03:20 2020, MaxMem= 1073741824 cpu:       0.8
 (Enter /home/matheus/.gaussian/g09/l303.exe)
 DipDrv:  MaxL=1.
 Leave Link  303 at Sat May  9 22:03:20 2020, MaxMem= 1073741824 cpu:       0.2
 (Enter /home/matheus/.gaussian/g09/l401.exe)
 Initial guess read from the read-write file.
 Guess basis will be translated and rotated to current coordinates.
 Initial guess orbital symmetries:
       Occupied  (A) (A) (A) (A) (A) (A) (A) (A) (A)
       Virtual   (A) (A) (A) (A) (A) (A) (A) (A) (A) (A) (A) (A)
                 (A) (A) (A) (A) (A) (A) (A) (A) (A) (A) (A) (A)
                 (A) (A) (A) (A) (A) (A) (A) (A) (A) (A) (A) (A)
                 (A) (A) (A) (A) (A) (A) (A) (A) (A) (A) (A) (A)
                 (A) (A) (A) (A) (A) (A) (A) (A) (A) (A) (A) (A)
                 (A) (A) (A) (A) (A) (A) (A) (A) (A) (A) (A) (A)
                 (A) (A) (A) (A) (A) (A) (A) (A) (A) (A) (A) (A)
                 (A) (A) (A) (A) (A) (A) (A) (A) (A) (A) (A) (A)
                 (A) (A) (A) (A) (A) (A) (A) (A) (A) (A) (A) (A)
                 (A) (A) (A) (A) (A) (A) (A) (A) (A) (A) (A) (A)
                 (A) (A) (A) (A) (A) (A) (A) (A) (A)
 The electronic state of the initial guess is 1-A.
 Generating alternative initial guess.
 Harris functional with IExCor= 4639 diagonalized for initial guess.
 ExpMin= 2.53D-02 ExpMax= 1.53D+04 ExpMxC= 5.22D+02 IAcc=3 IRadAn=         5 AccDes= 0.00D+00
 HarFok:  IExCor= 4639 AccDes= 0.00D+00 IRadAn=         5 IDoV= 1
 ScaDFX=  1.000000  1.000000  1.000000  1.000000
 FoFCou: FMM=F IPFlag=           0 FMFlag=      100000 FMFlg1=           0
         NFxFlg=           0 DoJE=T BraDBF=F KetDBF=T FulRan=T
         Omega=  0.000000  0.000000  1.000000  0.000000  0.000000 ICntrl=     500 IOpCl=  0
         NMat0=    1 NMatS0=    1 NMatT0=    0 NMatD0=    1 NMtDS0=    0 NMtDT0=    0
         I1Cent=           4 NGrid=           0.
 Petite list used in FoFCou.
 Harris En= -146.293044236287    
 Leave Link  401 at Sat May  9 22:03:21 2020, MaxMem= 1073741824 cpu:       2.8
 (Enter /home/matheus/.gaussian/g09/l502.exe)
 Closed shell SCF:
 Requested convergence on RMS density matrix=1.00D-08 within 128 cycles.
 Requested convergence on MAX density matrix=1.00D-06.
 Requested convergence on             energy=1.00D-06.
 No special actions if energy rises.
 Using DIIS extrapolation, IDIIS=  1040.
 Integral symmetry usage will be decided dynamically.
        94980 words used for storage of precomputed grid.
 IEnd=      192360 IEndB=      192360 NGot=  1073741824 MDV=  1073591865
 LenX=  1073591865 LenY=  1073565824
 Fock matrices will be formed incrementally for  20 cycles.

 Cycle   1  Pass 1  IDiag  1:
 FoFJK:  IHMeth= 1 ICntrl=     0 DoSepK=T KAlg= 1 I1Cent= 0 FoldK=F
 FoFCou: FMM=F IPFlag=           0 FMFlag=      100000 FMFlg1=           0
         NFxFlg=           0 DoJE=T BraDBF=F KetDBF=F FulRan=T
         Omega=  0.000000  0.000000  1.000000  0.000000  0.000000 ICntrl=     500 IOpCl=  0
         NMat0=    1 NMatS0=    1 NMatT0=    0 NMatD0=    1 NMtDS0=    0 NMtDT0=    0
         I1Cent=           0 NGrid=           0.
 Symmetry not used in FoFCou.
 E= -151.559705050829    
 DIIS: error= 1.99D-05 at cycle   1 NSaved=   1.
 NSaved= 1 IEnMin= 1 EnMin= -151.559705050829     IErMin= 1 ErrMin= 1.99D-05
 ErrMax= 1.99D-05 EMaxC= 1.00D-01 BMatC= 4.34D-08 BMatP= 4.34D-08
 IDIUse=1 WtCom= 1.00D+00 WtEn= 0.00D+00
 Coeff-Com:  0.100D+01
 Coeff:      0.100D+01
 Gap=     0.396 Goal=   None    Shift=    0.000
 RMSDP=1.23D-06 MaxDP=2.16D-05              OVMax= 8.58D-05

 Cycle   2  Pass 1  IDiag  1:
 RMSU=  8.70D-07    CP:  1.00D+00
 FoFJK:  IHMeth= 1 ICntrl=     0 DoSepK=T KAlg= 1 I1Cent= 0 FoldK=F
 E= -151.559705095720     Delta-E=       -0.000000044892 Rises=F Damp=F
 DIIS: error= 3.14D-06 at cycle   2 NSaved=   2.
 NSaved= 2 IEnMin= 2 EnMin= -151.559705095720     IErMin= 2 ErrMin= 3.14D-06
 ErrMax= 3.14D-06 EMaxC= 1.00D-01 BMatC= 1.33D-09 BMatP= 4.34D-08
 IDIUse=1 WtCom= 1.00D+00 WtEn= 0.00D+00
 Coeff-Com: -0.107D+00 0.111D+01
 Coeff:     -0.107D+00 0.111D+01
 Gap=     0.396 Goal=   None    Shift=    0.000
 RMSDP=3.80D-07 MaxDP=7.54D-06 DE=-4.49D-08 OVMax= 2.95D-05

 Cycle   3  Pass 1  IDiag  1:
 RMSU=  1.69D-07    CP:  1.00D+00  1.24D+00
 FoFJK:  IHMeth= 1 ICntrl=     0 DoSepK=T KAlg= 1 I1Cent= 0 FoldK=F
 E= -151.559705098603     Delta-E=       -0.000000002882 Rises=F Damp=F
 DIIS: error= 1.01D-06 at cycle   3 NSaved=   3.
 NSaved= 3 IEnMin= 3 EnMin= -151.559705098603     IErMin= 3 ErrMin= 1.01D-06
 ErrMax= 1.01D-06 EMaxC= 1.00D-01 BMatC= 2.01D-10 BMatP= 1.33D-09
 IDIUse=1 WtCom= 1.00D+00 WtEn= 0.00D+00
 Coeff-Com: -0.339D-01 0.191D+00 0.843D+00
 Coeff:     -0.339D-01 0.191D+00 0.843D+00
 Gap=     0.396 Goal=   None    Shift=    0.000
 RMSDP=1.17D-07 MaxDP=3.44D-06 DE=-2.88D-09 OVMax= 7.29D-06

 Cycle   4  Pass 1  IDiag  1:
 RMSU=  6.87D-08    CP:  1.00D+00  1.29D+00  1.14D+00
 FoFJK:  IHMeth= 1 ICntrl=     0 DoSepK=T KAlg= 1 I1Cent= 0 FoldK=F
 E= -151.559705098776     Delta-E=       -0.000000000173 Rises=F Damp=F
 DIIS: error= 9.88D-07 at cycle   4 NSaved=   4.
 NSaved= 4 IEnMin= 4 EnMin= -151.559705098776     IErMin= 4 ErrMin= 9.88D-07
 ErrMax= 9.88D-07 EMaxC= 1.00D-01 BMatC= 1.62D-10 BMatP= 2.01D-10
 IDIUse=1 WtCom= 1.00D+00 WtEn= 0.00D+00
 Coeff-Com:  0.710D-03-0.104D+00 0.501D+00 0.602D+00
 Coeff:      0.710D-03-0.104D+00 0.501D+00 0.602D+00
 Gap=     0.396 Goal=   None    Shift=    0.000
 RMSDP=6.13D-08 MaxDP=2.05D-06 DE=-1.73D-10 OVMax= 3.29D-06

 Cycle   5  Pass 1  IDiag  1:
 RMSU=  1.75D-08    CP:  1.00D+00  1.30D+00  1.32D+00  7.16D-01
 FoFJK:  IHMeth= 1 ICntrl=     0 DoSepK=T KAlg= 1 I1Cent= 0 FoldK=F
 E= -151.559705098904     Delta-E=       -0.000000000128 Rises=F Damp=F
 DIIS: error= 1.62D-07 at cycle   5 NSaved=   5.
 NSaved= 5 IEnMin= 5 EnMin= -151.559705098904     IErMin= 5 ErrMin= 1.62D-07
 ErrMax= 1.62D-07 EMaxC= 1.00D-01 BMatC= 5.35D-12 BMatP= 1.62D-10
 IDIUse=1 WtCom= 1.00D+00 WtEn= 0.00D+00
 Coeff-Com:  0.413D-02-0.564D-01 0.410D-01 0.164D+00 0.847D+00
 Coeff:      0.413D-02-0.564D-01 0.410D-01 0.164D+00 0.847D+00
 Gap=     0.396 Goal=   None    Shift=    0.000
 RMSDP=2.03D-08 MaxDP=4.22D-07 DE=-1.28D-10 OVMax= 1.61D-06

 Cycle   6  Pass 1  IDiag  1:
 RMSU=  7.65D-09    CP:  1.00D+00  1.31D+00  1.37D+00  8.15D-01  1.18D+00
 FoFJK:  IHMeth= 1 ICntrl=     0 DoSepK=T KAlg= 1 I1Cent= 0 FoldK=F
 E= -151.559705098912     Delta-E=       -0.000000000008 Rises=F Damp=F
 DIIS: error= 7.99D-08 at cycle   6 NSaved=   6.
 NSaved= 6 IEnMin= 6 EnMin= -151.559705098912     IErMin= 6 ErrMin= 7.99D-08
 ErrMax= 7.99D-08 EMaxC= 1.00D-01 BMatC= 7.33D-13 BMatP= 5.35D-12
 IDIUse=1 WtCom= 1.00D+00 WtEn= 0.00D+00
 Coeff-Com:  0.128D-02-0.905D-02-0.289D-01 0.190D-02 0.277D+00 0.758D+00
 Coeff:      0.128D-02-0.905D-02-0.289D-01 0.190D-02 0.277D+00 0.758D+00
 Gap=     0.396 Goal=   None    Shift=    0.000
 RMSDP=7.61D-09 MaxDP=2.00D-07 DE=-8.19D-12 OVMax= 6.68D-07

 SCF Done:  E(RwB97XD) =  -151.559705099     A.U. after    6 cycles
             Convg  =    0.7608D-08             -V/T =  2.0059
 KE= 1.506671522832D+02 PE=-4.317226432634D+02 EE= 9.289015160710D+01
 Leave Link  502 at Sat May  9 22:03:28 2020, MaxMem= 1073741824 cpu:      57.5
 (Enter /home/matheus/.gaussian/g09/l122.exe)
 Restoring MOs from calculation   5 to rwf.
 Counterpoise: doing MCBS calculation for fragment   2
 Leave Link  122 at Sat May  9 22:03:28 2020, MaxMem= 1073741824 cpu:       0.0
 (Enter /home/matheus/.gaussian/g09/l301.exe)
 Basis read from rwf:  (5D, 7F)
 No pseudopotential information found on rwf file.
 There are    59 symmetry adapted basis functions of A   symmetry.
 Integral buffers will be    131072 words long.
 Raffenetti 2 integral format.
 Two-electron integral symmetry is turned on.
    59 basis functions,   217 primitive gaussians,    69 cartesian basis functions
    18 alpha electrons       18 beta electrons
       nuclear repulsion energy         0.0000000000 Hartrees.
 IExCor= 4639 DFT=T Ex+Corr=wB97XD ExCW=0 ScaHFX=  1.000000
 ScaDFX=  1.000000  1.000000  1.000000  1.000000 ScalE2=  1.000000  1.000000
 IRadAn=      5 IRanWt=     -1 IRanGd=            0 ICorTp=0
  HFx wShort=  0.000000 wLong=  0.200000 cFull=  0.222036 cShort=  0.000000 cLong=  0.777964
  DFx wShort=  0.000000 wLong=  0.200000 cFull=  0.000000 cShort=  0.000000 cLong=  1.000000
 NAtoms=    5 NActive=    1 NUniq=    1 SFac= 1.00D+00 NAtFMM=   60 NAOKFM=F Big=F
 R6Disp: Dispersion energy =         0.0000000000 Hartrees.
 Nuclear repulsion after empirical dispersion term =        0.0000000000 Hartrees.
 No density basis found on file   718.
 Leave Link  301 at Sat May  9 22:03:28 2020, MaxMem= 1073741824 cpu:       0.3
 (Enter /home/matheus/.gaussian/g09/l302.exe)
 NPDir=0 NMtPBC=     1 NCelOv=     1 NCel=       1 NClECP=     1 NCelD=      1
         NCelK=      1 NCelE2=     1 NClLst=     1 CellRange=     0.0.
 One-electron integrals computed using PRISM.
 NBasis=    59 RedAO= T  NBF=    59
 NBsUse=    59 1.00D-06 NBFU=    59
 Precomputing XC quadrature grid using
 IXCGrd= 2 IRadAn=           5 IRanWt=          -1 IRanGd=           0 AccXCQ= 0.00D+00.
 NRdTot=      81 NPtTot=       30352 NUsed=       30981 NTot=       31013
 NSgBfM=    69    69    69    69    69 NAtAll=     1     1.
 Leave Link  302 at Sat May  9 22:03:28 2020, MaxMem= 1073741824 cpu:       0.7
 (Enter /home/matheus/.gaussian/g09/l303.exe)
 DipDrv:  MaxL=1.
 Leave Link  303 at Sat May  9 22:03:28 2020, MaxMem= 1073741824 cpu:       0.1
 (Enter /home/matheus/.gaussian/g09/l401.exe)
 Initial guess read from the read-write file.
 Guess basis will be translated and rotated to current coordinates.
 Initial guess orbital symmetries:
       Occupied  (A) (A) (A) (A) (A) (A) (A) (A) (A) (A) (A) (A)
                 (A) (A) (A) (A) (A) (A)
       Virtual   (A) (A) (A) (A) (A) (A) (A) (A) (A) (A) (A) (A)
                 (A) (A) (A) (A) (A) (A) (A) (A) (A) (A) (A) (A)
                 (A) (A) (A) (A) (A) (A) (A) (A) (A) (A) (A) (A)
                 (A) (A) (A) (A) (A)
 The electronic state of the initial guess is 1-A.
 Generating alternative initial guess.
 Harris functional with IExCor= 4639 diagonalized for initial guess.
 ExpMin= 4.00D-02 ExpMax= 1.17D+07 ExpMxC= 1.33D+04 IAcc=3 IRadAn=         5 AccDes= 0.00D+00
 HarFok:  IExCor= 4639 AccDes= 0.00D+00 IRadAn=         5 IDoV= 1
 ScaDFX=  1.000000  1.000000  1.000000  1.000000
 FoFCou: FMM=F IPFlag=           0 FMFlag=      100000 FMFlg1=           0
         NFxFlg=           0 DoJE=T BraDBF=F KetDBF=T FulRan=T
         Omega=  0.000000  0.000000  1.000000  0.000000  0.000000 ICntrl=     500 IOpCl=  0
         NMat0=    1 NMatS0=    1 NMatT0=    0 NMatD0=    1 NMtDS0=    0 NMtDT0=    0
         I1Cent=           4 NGrid=           0.
 Petite list used in FoFCou.
 DSYEVD returned Info=         119 IAlg= 4 N=    59 NDim=    59 NE2=    18198841 trying DSYEV.
 Harris En= -2730.20235208354    
 Leave Link  401 at Sat May  9 22:03:28 2020, MaxMem= 1073741824 cpu:       1.1
 (Enter /home/matheus/.gaussian/g09/l502.exe)
 Closed shell SCF:
 Requested convergence on RMS density matrix=1.00D-08 within 128 cycles.
 Requested convergence on MAX density matrix=1.00D-06.
 Requested convergence on             energy=1.00D-06.
 No special actions if energy rises.
 Using DIIS extrapolation, IDIIS=  1040.
 Integral symmetry usage will be decided dynamically.
        30923 words used for storage of precomputed grid.
 IEnd=       64406 IEndB=       64406 NGot=  1073741824 MDV=  1073698889
 LenX=  1073698889 LenY=  1073693687
 Fock matrices will be formed incrementally for  20 cycles.

 Cycle   1  Pass 1  IDiag  1:
 FoFJK:  IHMeth= 1 ICntrl=     0 DoSepK=T KAlg= 1 I1Cent= 0 FoldK=F
 FoFCou: FMM=F IPFlag=           0 FMFlag=      100000 FMFlg1=           0
         NFxFlg=           0 DoJE=T BraDBF=F KetDBF=F FulRan=T
         Omega=  0.000000  0.000000  1.000000  0.000000  0.000000 ICntrl=     500 IOpCl=  0
         NMat0=    1 NMatS0=    1 NMatT0=    0 NMatD0=    1 NMtDS0=    0 NMtDT0=    0
         I1Cent=           0 NGrid=           0.
 Symmetry not used in FoFCou.
 E= -2753.87421986326    
 DIIS: error= 1.47D-13 at cycle   1 NSaved=   1.
 NSaved= 1 IEnMin= 1 EnMin= -2753.87421986326     IErMin= 1 ErrMin= 1.47D-13
 ErrMax= 1.47D-13 EMaxC= 1.00D-01 BMatC= 1.13D-24 BMatP= 1.13D-24
 IDIUse=1 WtCom= 1.00D+00 WtEn= 0.00D+00
 Coeff-Com:  0.100D+01
 Coeff:      0.100D+01
 Gap=     0.562 Goal=   None    Shift=    0.000
 DSYEVD returned Info=          89 IAlg= 4 N=    59 NDim=    59 NE2=    18198197 trying DSYEV.
 RMSDP=1.85D-14 MaxDP=3.81D-13              OVMax= 2.19D-13

 SCF Done:  E(RwB97XD) =  -2753.87421986     A.U. after    1 cycles
             Convg  =    0.1850D-13             -V/T =  2.0013
 KE= 2.750300381543D+03 PE=-6.580241205809D+03 EE= 1.076066604402D+03
 Leave Link  502 at Sat May  9 22:03:30 2020, MaxMem= 1073741824 cpu:      12.6
 (Enter /home/matheus/.gaussian/g09/l122.exe)
 Restoring MOs from calculation   1 to rwf.
 Counterpoise: corrected energy =   -2905.434209550324
 Counterpoise: BSSE energy =       0.000022251175
 Leave Link  122 at Sat May  9 22:03:30 2020, MaxMem= 1073741824 cpu:       0.0
 (Enter /home/matheus/.gaussian/g09/l108.exe)
 Scan completed.

 Summary of the potential surface scan:
   N      R1          SCF    
 ----  ---------  -----------
    1     3.0000  -2753.87422
    2     3.1000  -2753.87422
    3     3.2000  -2753.87422
    4     3.3000  -2753.87422
    5     3.4000  -2753.87422
    6     3.5000  -2753.87422
    7     3.6000  -2753.87422
    8     3.7000  -2753.87422
    9     3.8000  -2753.87422
   10     3.9000  -2753.87422
   11     4.0000  -2753.87422
   12     4.1000  -2753.87422
   13     4.2000  -2753.87422
   14     4.3000  -2753.87422
   15     4.4000  -2753.87422
   16     4.5000  -2753.87422
   17     4.6000  -2753.87422
   18     4.7000  -2753.87422
   19     4.8000  -2753.87422
   20     4.9000  -2753.87422
   21     5.0000  -2753.87422
 ----  ---------  -----------
  
 Leave Link  108 at Sat May  9 22:03:30 2020, MaxMem= 1073741824 cpu:       0.0
 (Enter /home/matheus/.gaussian/g09/l9999.exe)
 1\1\GINC-REDGIANT\Scan\RwB97XD\Aug-CC-pVTZ\H2Kr1O2\MATHEUS\09-May-2020
 \1\\#p wb97xd/aug-cc-PVTz int=ultrafine counterpoise=2 Scan\\TCC\\0,1\
 O,0,0.,0.,0.725\O,0,0.,0.,-0.725\H,0,0.5905422151,-0.7037808064,1.0235
 104166\H,0,0.,0.9187205947,-1.0235104166\Kr,0,0.,R1,0.\\R1=3.,s,20,0.1
 \\Version=EM64L-G09RevC.01\State=1-A\HF=-2753.8742199,-2753.8742199,-2
 753.8742199,-2753.8742199,-2753.8742199,-2753.8742199,-2753.8742199,-2
 753.8742199,-2753.8742199,-2753.8742199,-2753.8742199,-2753.8742199,-2
 753.8742199,-2753.8742199,-2753.8742199,-2753.8742199,-2753.8742199,-2
 753.8742199,-2753.8742199,-2753.8742199,-2753.8742199\RMSD=9.120e-09,1
 .920e-10,6.363e-11,4.203e-11,2.496e-11,1.570e-11,9.722e-12,6.056e-12,3
 .766e-12,2.345e-12,1.458e-12,9.039e-13,5.646e-13,3.585e-13,2.206e-13,1
 .371e-13,8.212e-14,5.254e-14,3.259e-14,2.051e-14,1.850e-14\PG=C01 [X(H
 2Kr1O2)]\\@


 THE 2ND LAW OF THERMODYNAMICS HAS THE SAME
 DEGREE OF TRUTH AS THE STATEMENT THAT IF YOU THROW
 A TUMBLERFULL OF WATER INTO THE SEA, YOU CANNOT GET
 THE SAME TUMBLERFULL OF WATER OUT AGAIN.
          - J.C. MAXWELL, LETTER TO LORD RAYLEIGH, DECEMBER 6,1870
 Job cpu time:  0 days  3 hours 59 minutes 51.1 seconds.
 File lengths (MBytes):  RWF=     33 Int=      0 D2E=      0 Chk=      8 Scr=      1
 Normal termination of Gaussian 09 at Sat May  9 22:03:30 2020.
