 Entering Gaussian System, Link 0=g09
 Input=/home/matheus/.tcc/Inputs/Inputs-wb97xd-default/H2O2-Kr_3.com
 Output=/home/matheus/.tcc/Logs/Logs-wb97xd-default/H2O2-Kr_3.log
 Initial command:
 /home/matheus/.gaussian/g09/l1.exe /home/matheus/.gaussian/g09/scratch/Gau-4396.inp -scrdir=/home/matheus/.gaussian/g09/scratch/
 Entering Link 1 = /home/matheus/.gaussian/g09/l1.exe PID=      4399.
  
 Copyright (c) 1988,1990,1992,1993,1995,1998,2003,2009,2011,
            Gaussian, Inc.  All Rights Reserved.
  
 This is part of the Gaussian(R) 09 program.  It is based on
 the Gaussian(R) 03 system (copyright 2003, Gaussian, Inc.),
 the Gaussian(R) 98 system (copyright 1998, Gaussian, Inc.),
 the Gaussian(R) 94 system (copyright 1995, Gaussian, Inc.),
 the Gaussian 92(TM) system (copyright 1992, Gaussian, Inc.),
 the Gaussian 90(TM) system (copyright 1990, Gaussian, Inc.),
 the Gaussian 88(TM) system (copyright 1988, Gaussian, Inc.),
 the Gaussian 86(TM) system (copyright 1986, Carnegie Mellon
 University), and the Gaussian 82(TM) system (copyright 1983,
 Carnegie Mellon University). Gaussian is a federally registered
 trademark of Gaussian, Inc.
  
 This software contains proprietary and confidential information,
 including trade secrets, belonging to Gaussian, Inc.
  
 This software is provided under written license and may be
 used, copied, transmitted, or stored only in accord with that
 written license.
  
 The following legend is applicable only to US Government
 contracts under FAR:
  
                    RESTRICTED RIGHTS LEGEND
  
 Use, reproduction and disclosure by the US Government is
 subject to restrictions as set forth in subparagraphs (a)
 and (c) of the Commercial Computer Software - Restricted
 Rights clause in FAR 52.227-19.
  
 Gaussian, Inc.
 340 Quinnipiac St., Bldg. 40, Wallingford CT 06492
  
  
 ---------------------------------------------------------------
 Warning -- This program may not be used in any manner that
 competes with the business of Gaussian, Inc. or will provide
 assistance to any competitor of Gaussian, Inc.  The licensee
 of this program is prohibited from giving any competitor of
 Gaussian, Inc. access to this program.  By using this program,
 the user acknowledges that Gaussian, Inc. is engaged in the
 business of creating and licensing software in the field of
 computational chemistry and represents and warrants to the
 licensee that it is not a competitor of Gaussian, Inc. and that
 it will not use this program in any manner prohibited above.
 ---------------------------------------------------------------
  

 Cite this work as:
 Gaussian 09, Revision C.01,
 M. J. Frisch, G. W. Trucks, H. B. Schlegel, G. E. Scuseria, 
 M. A. Robb, J. R. Cheeseman, G. Scalmani, V. Barone, B. Mennucci, 
 G. A. Petersson, H. Nakatsuji, M. Caricato, X. Li, H. P. Hratchian, 
 A. F. Izmaylov, J. Bloino, G. Zheng, J. L. Sonnenberg, M. Hada, 
 M. Ehara, K. Toyota, R. Fukuda, J. Hasegawa, M. Ishida, T. Nakajima, 
 Y. Honda, O. Kitao, H. Nakai, T. Vreven, J. A. Montgomery, Jr., 
 J. E. Peralta, F. Ogliaro, M. Bearpark, J. J. Heyd, E. Brothers, 
 K. N. Kudin, V. N. Staroverov, T. Keith, R. Kobayashi, J. Normand, 
 K. Raghavachari, A. Rendell, J. C. Burant, S. S. Iyengar, J. Tomasi, 
 M. Cossi, N. Rega, J. M. Millam, M. Klene, J. E. Knox, J. B. Cross, 
 V. Bakken, C. Adamo, J. Jaramillo, R. Gomperts, R. E. Stratmann, 
 O. Yazyev, A. J. Austin, R. Cammi, C. Pomelli, J. W. Ochterski, 
 R. L. Martin, K. Morokuma, V. G. Zakrzewski, G. A. Voth, 
 P. Salvador, J. J. Dannenberg, S. Dapprich, A. D. Daniels, 
 O. Farkas, J. B. Foresman, J. V. Ortiz, J. Cioslowski, 
 and D. J. Fox, Gaussian, Inc., Wallingford CT, 2010.
 
 ******************************************
 Gaussian 09:  EM64L-G09RevC.01 23-Sep-2011
                 9-May-2020 
 ******************************************
 %mem=8GB
 %nproc=8
 Will use up to    8 processors via shared memory.
 -------------------------------------------------------
 #p wb97xd/aug-cc-PVTz int=ultrafine counterpoise=2 Scan
 -------------------------------------------------------
 1/38=1,60=1,62=2/1,8;
 2/12=2,17=6,18=5,29=3,40=1/2;
 1/38=1,53=5172,62=2/22;
 3/5=16,6=1,7=10,11=2,16=1,25=1,30=1,74=-58,75=-5/1,2,3;
 4//1;
 5/5=2,38=5/2;
 6/7=2,8=2,9=2,10=2,18=1,28=1/1;
 1/53=4052,62=2,63=1/22;
 3/5=7,6=11,7=10,11=2,16=1,25=1,30=1,74=-58,75=-5,82=7/1,2,3;
 4//1;
 5/5=2,38=5/2;
 6/7=2,8=2,9=2,10=2,18=1,28=1/1;
 1/53=3042,62=2,63=2/22;
 3/5=7,6=11,7=10,11=2,16=1,25=1,30=1,74=-58,75=-5,82=7/1,2,3;
 4//1;
 5/5=2,38=5/2;
 6/7=2,8=2,9=2,10=2,18=1,28=1/1;
 1/53=2032,62=2,63=3/22;
 3/5=7,6=11,7=10,11=2,16=1,25=1,30=1,74=-58,75=-5,82=7/1,2,3;
 4//1;
 5/5=2,38=5/2;
 6/7=2,8=2,9=2,10=2,18=1,28=1/1;
 1/53=1022,62=2,63=4/22;
 3/5=7,6=11,7=10,11=2,16=1,25=1,30=1,74=-58,75=-5,82=7/1,2,3;
 4//1;
 5/5=2,38=5/2;
 6/7=2,8=2,9=2,10=2,18=1,28=1/1;
 1/53=5014,62=2,63=5/22;
 1/60=1,62=2/8(1);
 99/9=1/99;
 2/29=3/2;
 1/53=5173,62=2/22;
 3/5=7,6=11,7=10,11=2,16=1,25=1,30=1,74=-58,75=-5,82=7/1,2,3;
 4/5=5,16=3/1;
 5/5=2,38=5/2;
 1/53=4053,62=2,63=1/22;
 3/5=7,6=11,7=10,11=2,16=1,25=1,30=1,74=-58,75=-5,82=7/1,2,3;
 4/5=5,16=3/1;
 5/5=2,38=5/2;
 1/53=3043,62=2,63=2/22;
 3/5=7,6=11,7=10,11=2,16=1,25=1,30=1,74=-58,75=-5,82=7/1,2,3;
 4/5=5,16=3/1;
 5/5=2,38=5/2;
 1/53=2033,62=2,63=3/22;
 3/5=7,6=11,7=10,11=2,16=1,25=1,30=1,74=-58,75=-5,82=7/1,2,3;
 4/5=5,16=3/1;
 5/5=2,38=5/2;
 1/53=1024,62=2,63=4/22;
 3/5=7,6=11,7=10,11=2,16=1,25=1,30=1,74=-58,75=-5,82=7/1,2,3;
 4/5=5,16=3/1;
 5/5=2,38=5/2;
 1/53=5014,62=2,63=5/22;
 1/60=1,62=2/8(-22);
 99/9=1/99;
 Leave Link    1 at Sat May  9 16:23:49 2020, MaxMem= 1073741824 cpu:       0.2
 (Enter /home/matheus/.gaussian/g09/l101.exe)
 ---
 TCC
 ---
 Charge =  0 Multiplicity = 1 in supermolecule
 Charge =  0 Multiplicity = 1 in fragment  1.
 Charge =  0 Multiplicity = 1 in fragment  2.
 Symbolic Z-Matrix:
 O(Fragment=1)         0.        0.        0.725 
 O(Fragment=1)         0.        0.       -0.725 
 H(Fragment=1)         0.45936   0.79564   1.02351 
 H(Fragment=1)         0.        0.91872  -1.02351 
 Kr(Fragment=2)        0.       R1        0. 
       Variables:
  R1                    3.     Scan 20    0.1    
 
 NAtoms=      5 NQM=        0 NQMF=       0 NMMI=      5 NMMIF=      0
                NMic=       0 NMicF=      0.
                    Isotopes and Nuclear Properties:
 (Nuclear quadrupole moments (NQMom) in fm**2, nuclear magnetic moments (NMagM)
  in nuclear magnetons)

  Atom         1           2           3           4           5
 IAtWgt=          16          16           1           1          84
 AtmWgt=  15.9949146  15.9949146   1.0078250   1.0078250  83.9115064
 NucSpn=           0           0           1           1           0
 AtZEff=   0.0000000   0.0000000   0.0000000   0.0000000   0.0000000
 NQMom=    0.0000000   0.0000000   0.0000000   0.0000000   0.0000000
 NMagM=    0.0000000   0.0000000   2.7928460   2.7928460   0.0000000
 Leave Link  101 at Sat May  9 16:23:49 2020, MaxMem= 1073741824 cpu:       0.3
 (Enter /home/matheus/.gaussian/g09/l108.exe)
 Scan the potential surface.
 Variable   Value     No. Steps Step-Size
 -------- ----------- --------- ---------
     1       3.000000      20      0.1000
 A total of     21 points will be computed.
 Leave Link  108 at Sat May  9 16:23:49 2020, MaxMem= 1073741824 cpu:       0.0
 (Enter /home/matheus/.gaussian/g09/l202.exe)
 ---------------------------------------------------------------------------------------------------
                            Z-MATRIX (ANGSTROMS AND DEGREES)
   CD    Cent   Atom    N1       Length/X        N2       Alpha/Y        N3        Beta/Z          J
 ---------------------------------------------------------------------------------------------------
      1      1  O        0   0.000000          0.000000          0.725000
      2      2  O        0   0.000000          0.000000         -0.725000
      3      3  H        0   0.459360          0.795635          1.023510
      4      4  H        0   0.000000          0.918721         -1.023510
      5      5  Kr       0   0.000000          3.000000          0.000000
 ---------------------------------------------------------------------------------------------------
                         Z-Matrix orientation:                         
 ---------------------------------------------------------------------
 Center     Atomic      Atomic             Coordinates (Angstroms)
 Number     Number       Type             X           Y           Z
 ---------------------------------------------------------------------
      1          8           0        0.000000    0.000000    0.725000
      2          8           0        0.000000    0.000000   -0.725000
      3          1           0        0.459360    0.795635    1.023510
      4          1           0        0.000000    0.918721   -1.023510
      5         36           0        0.000000    3.000000    0.000000
 ---------------------------------------------------------------------
                    Distance matrix (angstroms):
                    1          2          3          4          5
     1  O    0.000000
     2  O    1.450000   0.000000
     3  H    0.966000   1.975180   0.000000
     4  H    1.975180   0.966000   2.101537   0.000000
     5  Kr   3.086361   3.086361   2.473420   2.319331   0.000000
 Stoichiometry    H2KrO2
 Framework group  C1[X(H2KrO2)]
 Deg. of freedom     9
 Full point group                 C1      NOp   1
 Largest Abelian subgroup         C1      NOp   1
 Largest concise Abelian subgroup C1      NOp   1
                         Standard orientation:                         
 ---------------------------------------------------------------------
 Center     Atomic      Atomic             Coordinates (Angstroms)
 Number     Number       Type             X           Y           Z
 ---------------------------------------------------------------------
      1          8           0        2.032679   -0.720517   -0.052579
      2          8           0        2.030654    0.727985    0.013298
      3          1           0        1.240025   -1.040895    0.397102
      4          1           0        1.111532    1.024673    0.031898
      5         36           0       -0.968284   -0.001209   -0.003188
 ---------------------------------------------------------------------
 Rotational constants (GHZ):     26.4110984      2.3830252      2.1895357
 Leave Link  202 at Sat May  9 16:23:49 2020, MaxMem= 1073741824 cpu:       0.0
 (Enter /home/matheus/.gaussian/g09/l122.exe)
 Leave Link  122 at Sat May  9 16:23:49 2020, MaxMem= 1073741824 cpu:       0.0
 (Enter /home/matheus/.gaussian/g09/l301.exe)
 Standard basis: Aug-CC-pVTZ (5D, 7F)
 Ernie: Thresh=  0.10000D-02 Tol=  0.10000D-05 Strict=F.
 Ernie:  38 primitive shells out of 205 were deleted.
 There are   197 symmetry adapted basis functions of A   symmetry.
 Integral buffers will be    131072 words long.
 Raffenetti 2 integral format.
 Two-electron integral symmetry is turned on.
   197 basis functions,   415 primitive gaussians,   229 cartesian basis functions
    27 alpha electrons       27 beta electrons
       nuclear repulsion energy       151.3348661682 Hartrees.
 IExCor= 4639 DFT=T Ex+Corr=wB97XD ExCW=0 ScaHFX=  1.000000
 ScaDFX=  1.000000  1.000000  1.000000  1.000000 ScalE2=  1.000000  1.000000
 IRadAn=      5 IRanWt=     -1 IRanGd=            0 ICorTp=0
  HFx wShort=  0.000000 wLong=  0.200000 cFull=  0.222036 cShort=  0.000000 cLong=  0.777964
  DFx wShort=  0.000000 wLong=  0.200000 cFull=  0.000000 cShort=  0.000000 cLong=  1.000000
 NAtoms=    5 NActive=    5 NUniq=    5 SFac= 1.00D+00 NAtFMM=   60 NAOKFM=F Big=F
 R6Disp: Dispersion energy =        -0.0007967424 Hartrees.
 Nuclear repulsion after empirical dispersion term =      151.3340694258 Hartrees.
 Leave Link  301 at Sat May  9 16:23:49 2020, MaxMem= 1073741824 cpu:       0.2
 (Enter /home/matheus/.gaussian/g09/l302.exe)
 NPDir=0 NMtPBC=     1 NCelOv=     1 NCel=       1 NClECP=     1 NCelD=      1
         NCelK=      1 NCelE2=     1 NClLst=     1 CellRange=     0.0.
 One-electron integrals computed using PRISM.
 NBasis=   197 RedAO= T  NBF=   197
 NBsUse=   197 1.00D-06 NBFU=   197
 Precomputing XC quadrature grid using
 IXCGrd= 2 IRadAn=           5 IRanWt=          -1 IRanGd=           0 AccXCQ= 0.00D+00.
 NRdTot=     427 NPtTot=      123512 NUsed=      126579 NTot=      126611
 NSgBfM=   229   229   229   229   229 NAtAll=     5     5.
 Leave Link  302 at Sat May  9 16:23:49 2020, MaxMem= 1073741824 cpu:       1.2
 (Enter /home/matheus/.gaussian/g09/l303.exe)
 DipDrv:  MaxL=1.
 Leave Link  303 at Sat May  9 16:23:49 2020, MaxMem= 1073741824 cpu:       0.2
 (Enter /home/matheus/.gaussian/g09/l401.exe)
 Harris functional with IExCor= 4639 diagonalized for initial guess.
 ExpMin= 2.53D-02 ExpMax= 1.17D+07 ExpMxC= 1.33D+04 IAcc=3 IRadAn=         5 AccDes= 0.00D+00
 HarFok:  IExCor= 4639 AccDes= 0.00D+00 IRadAn=         5 IDoV= 1
 ScaDFX=  1.000000  1.000000  1.000000  1.000000
 FoFCou: FMM=F IPFlag=           0 FMFlag=      100000 FMFlg1=           0
         NFxFlg=           0 DoJE=T BraDBF=F KetDBF=T FulRan=T
         Omega=  0.000000  0.000000  1.000000  0.000000  0.000000 ICntrl=     500 IOpCl=  0
         NMat0=    1 NMatS0=    1 NMatT0=    0 NMatD0=    1 NMtDS0=    0 NMtDT0=    0
         I1Cent=           4 NGrid=           0.
 Petite list used in FoFCou.
 Harris En= -2876.48198209841    
 Initial guess orbital symmetries:
       Occupied  (A) (A) (A) (A) (A) (A) (A) (A) (A) (A) (A) (A)
                 (A) (A) (A) (A) (A) (A) (A) (A) (A) (A) (A) (A)
                 (A) (A) (A)
       Virtual   (A) (A) (A) (A) (A) (A) (A) (A) (A) (A) (A) (A)
                 (A) (A) (A) (A) (A) (A) (A) (A) (A) (A) (A) (A)
                 (A) (A) (A) (A) (A) (A) (A) (A) (A) (A) (A) (A)
                 (A) (A) (A) (A) (A) (A) (A) (A) (A) (A) (A) (A)
                 (A) (A) (A) (A) (A) (A) (A) (A) (A) (A) (A) (A)
                 (A) (A) (A) (A) (A) (A) (A) (A) (A) (A) (A) (A)
                 (A) (A) (A) (A) (A) (A) (A) (A) (A) (A) (A) (A)
                 (A) (A) (A) (A) (A) (A) (A) (A) (A) (A) (A) (A)
                 (A) (A) (A) (A) (A) (A) (A) (A) (A) (A) (A) (A)
                 (A) (A) (A) (A) (A) (A) (A) (A) (A) (A) (A) (A)
                 (A) (A) (A) (A) (A) (A) (A) (A) (A) (A) (A) (A)
                 (A) (A) (A) (A) (A) (A) (A) (A) (A) (A) (A) (A)
                 (A) (A) (A) (A) (A) (A) (A) (A) (A) (A) (A) (A)
                 (A) (A) (A) (A) (A) (A) (A) (A) (A) (A) (A) (A)
                 (A) (A)
 The electronic state of the initial guess is 1-A.
 Leave Link  401 at Sat May  9 16:23:50 2020, MaxMem= 1073741824 cpu:       5.7
 (Enter /home/matheus/.gaussian/g09/l502.exe)
 Closed shell SCF:
 Requested convergence on RMS density matrix=1.00D-08 within 128 cycles.
 Requested convergence on MAX density matrix=1.00D-06.
 Requested convergence on             energy=1.00D-06.
 No special actions if energy rises.
 Using DIIS extrapolation, IDIIS=  1040.
 Integral symmetry usage will be decided dynamically.
       126521 words used for storage of precomputed grid.
 IEnd=      305468 IEndB=      305468 NGot=  1073741824 MDV=  1073505667
 LenX=  1073505667 LenY=  1073452785
 Fock matrices will be formed incrementally for  20 cycles.

 Cycle   1  Pass 1  IDiag  1:
 FoFJK:  IHMeth= 1 ICntrl=     0 DoSepK=T KAlg= 1 I1Cent= 0 FoldK=F
 FoFCou: FMM=F IPFlag=           0 FMFlag=      100000 FMFlg1=           0
         NFxFlg=           0 DoJE=T BraDBF=F KetDBF=F FulRan=T
         Omega=  0.000000  0.000000  1.000000  0.000000  0.000000 ICntrl=     500 IOpCl=  0
         NMat0=    1 NMatS0=    1 NMatT0=    0 NMatD0=    1 NMtDS0=    0 NMtDT0=    0
         I1Cent=           0 NGrid=           0.
 Symmetry not used in FoFCou.
 E= -2904.92508443997    
 DIIS: error= 8.62D-02 at cycle   1 NSaved=   1.
 NSaved= 1 IEnMin= 1 EnMin= -2904.92508443997     IErMin= 1 ErrMin= 8.62D-02
 ErrMax= 8.62D-02 EMaxC= 1.00D-01 BMatC= 2.19D+00 BMatP= 2.19D+00
 IDIUse=3 WtCom= 1.38D-01 WtEn= 8.62D-01
 Coeff-Com:  0.100D+01
 Coeff-En:   0.100D+01
 Coeff:      0.100D+01
 Gap=     0.491 Goal=   None    Shift=    0.000
 GapD=    0.491 DampG=2.000 DampE=0.500 DampFc=1.0000 IDamp=-1.
 RMSDP=6.30D-03 MaxDP=3.77D-01              OVMax= 1.84D-01

 Cycle   2  Pass 1  IDiag  1:
 RMSU=  4.43D-03    CP:  1.02D+00
 FoFJK:  IHMeth= 1 ICntrl=     0 DoSepK=T KAlg= 1 I1Cent= 0 FoldK=F
 E= -2905.22586743601     Delta-E=       -0.300782996038 Rises=F Damp=F
 DIIS: error= 3.33D-02 at cycle   2 NSaved=   2.
 NSaved= 2 IEnMin= 2 EnMin= -2905.22586743601     IErMin= 2 ErrMin= 3.33D-02
 ErrMax= 3.33D-02 EMaxC= 1.00D-01 BMatC= 5.64D-01 BMatP= 2.19D+00
 IDIUse=3 WtCom= 6.67D-01 WtEn= 3.33D-01
 Coeff-Com:  0.329D+00 0.671D+00
 Coeff-En:   0.208D+00 0.792D+00
 Coeff:      0.289D+00 0.711D+00
 Gap=     0.441 Goal=   None    Shift=    0.000
 RMSDP=2.77D-03 MaxDP=1.63D-01 DE=-3.01D-01 OVMax= 7.59D-02

 Cycle   3  Pass 1  IDiag  1:
 RMSU=  5.59D-04    CP:  1.01D+00  5.79D-01
 FoFJK:  IHMeth= 1 ICntrl=     0 DoSepK=T KAlg= 1 I1Cent= 0 FoldK=F
 E= -2905.41514784723     Delta-E=       -0.189280411219 Rises=F Damp=F
 DIIS: error= 5.56D-03 at cycle   3 NSaved=   3.
 NSaved= 3 IEnMin= 3 EnMin= -2905.41514784723     IErMin= 3 ErrMin= 5.56D-03
 ErrMax= 5.56D-03 EMaxC= 1.00D-01 BMatC= 1.89D-02 BMatP= 5.64D-01
 IDIUse=3 WtCom= 9.44D-01 WtEn= 5.56D-02
 Coeff-Com:  0.319D-01 0.188D+00 0.780D+00
 Coeff-En:   0.000D+00 0.000D+00 0.100D+01
 Coeff:      0.301D-01 0.178D+00 0.792D+00
 Gap=     0.404 Goal=   None    Shift=    0.000
 RMSDP=5.18D-04 MaxDP=1.87D-02 DE=-1.89D-01 OVMax= 2.54D-02

 Cycle   4  Pass 1  IDiag  1:
 RMSU=  2.42D-04    CP:  1.01D+00  6.40D-01  9.14D-01
 FoFJK:  IHMeth= 1 ICntrl=     0 DoSepK=T KAlg= 1 I1Cent= 0 FoldK=F
 E= -2905.42333973075     Delta-E=       -0.008191883522 Rises=F Damp=F
 DIIS: error= 2.19D-03 at cycle   4 NSaved=   4.
 NSaved= 4 IEnMin= 4 EnMin= -2905.42333973075     IErMin= 4 ErrMin= 2.19D-03
 ErrMax= 2.19D-03 EMaxC= 1.00D-01 BMatC= 1.93D-03 BMatP= 1.89D-02
 IDIUse=3 WtCom= 9.78D-01 WtEn= 2.19D-02
 Coeff-Com: -0.142D-02 0.548D-01 0.385D+00 0.561D+00
 Coeff-En:   0.000D+00 0.000D+00 0.000D+00 0.100D+01
 Coeff:     -0.139D-02 0.536D-01 0.377D+00 0.571D+00
 Gap=     0.388 Goal=   None    Shift=    0.000
 RMSDP=1.38D-04 MaxDP=6.74D-03 DE=-8.19D-03 OVMax= 7.51D-03

 Cycle   5  Pass 1  IDiag  1:
 RMSU=  3.77D-05    CP:  1.02D+00  6.36D-01  9.39D-01  6.44D-01
 FoFJK:  IHMeth= 1 ICntrl=     0 DoSepK=T KAlg= 1 I1Cent= 0 FoldK=F
 E= -2905.42454662907     Delta-E=       -0.001206898321 Rises=F Damp=F
 DIIS: error= 1.21D-04 at cycle   5 NSaved=   5.
 NSaved= 5 IEnMin= 5 EnMin= -2905.42454662907     IErMin= 5 ErrMin= 1.21D-04
 ErrMax= 1.21D-04 EMaxC= 1.00D-01 BMatC= 7.03D-06 BMatP= 1.93D-03
 IDIUse=3 WtCom= 9.99D-01 WtEn= 1.21D-03
 Coeff-Com: -0.811D-03 0.109D-02 0.252D-01 0.543D-01 0.920D+00
 Coeff-En:   0.000D+00 0.000D+00 0.000D+00 0.000D+00 0.100D+01
 Coeff:     -0.810D-03 0.109D-02 0.252D-01 0.543D-01 0.920D+00
 Gap=     0.388 Goal=   None    Shift=    0.000
 RMSDP=1.87D-05 MaxDP=6.72D-04 DE=-1.21D-03 OVMax= 1.03D-03

 Cycle   6  Pass 1  IDiag  1:
 RMSU=  9.66D-06    CP:  1.02D+00  6.36D-01  9.48D-01  6.55D-01  1.18D+00
 FoFJK:  IHMeth= 1 ICntrl=     0 DoSepK=T KAlg= 1 I1Cent= 0 FoldK=F
 E= -2905.42455012714     Delta-E=       -0.000003498076 Rises=F Damp=F
 DIIS: error= 1.49D-04 at cycle   6 NSaved=   6.
 NSaved= 6 IEnMin= 6 EnMin= -2905.42455012714     IErMin= 5 ErrMin= 1.21D-04
 ErrMax= 1.49D-04 EMaxC= 1.00D-01 BMatC= 5.68D-06 BMatP= 7.03D-06
 IDIUse=3 WtCom= 9.99D-01 WtEn= 1.21D-03
 Coeff-Com: -0.343D-03-0.449D-02-0.208D-01-0.217D-01 0.517D+00 0.531D+00
 Coeff-En:   0.000D+00 0.000D+00 0.000D+00 0.000D+00 0.216D+00 0.784D+00
 Coeff:     -0.342D-03-0.448D-02-0.208D-01-0.217D-01 0.516D+00 0.531D+00
 Gap=     0.388 Goal=   None    Shift=    0.000
 RMSDP=7.58D-06 MaxDP=3.11D-04 DE=-3.50D-06 OVMax= 4.96D-04

 Cycle   7  Pass 1  IDiag  1:
 RMSU=  3.71D-06    CP:  1.02D+00  6.36D-01  9.50D-01  6.57D-01  1.25D+00
                    CP:  7.46D-01
 FoFJK:  IHMeth= 1 ICntrl=     0 DoSepK=T KAlg= 1 I1Cent= 0 FoldK=F
 E= -2905.42455387431     Delta-E=       -0.000003747165 Rises=F Damp=F
 DIIS: error= 2.49D-05 at cycle   7 NSaved=   7.
 NSaved= 7 IEnMin= 7 EnMin= -2905.42455387431     IErMin= 7 ErrMin= 2.49D-05
 ErrMax= 2.49D-05 EMaxC= 1.00D-01 BMatC= 1.97D-07 BMatP= 5.68D-06
 IDIUse=1 WtCom= 1.00D+00 WtEn= 0.00D+00
 Coeff-Com: -0.770D-05-0.152D-02-0.949D-02-0.130D-01 0.355D-01 0.169D+00
 Coeff-Com:  0.820D+00
 Coeff:     -0.770D-05-0.152D-02-0.949D-02-0.130D-01 0.355D-01 0.169D+00
 Coeff:      0.820D+00
 Gap=     0.388 Goal=   None    Shift=    0.000
 RMSDP=2.40D-06 MaxDP=6.19D-05 DE=-3.75D-06 OVMax= 1.55D-04

 Cycle   8  Pass 1  IDiag  1:
 RMSU=  9.29D-07    CP:  1.02D+00  6.36D-01  9.51D-01  6.57D-01  1.27D+00
                    CP:  8.45D-01  1.08D+00
 FoFJK:  IHMeth= 1 ICntrl=     0 DoSepK=T KAlg= 1 I1Cent= 0 FoldK=F
 E= -2905.42455407524     Delta-E=       -0.000000200928 Rises=F Damp=F
 DIIS: error= 4.39D-06 at cycle   8 NSaved=   8.
 NSaved= 8 IEnMin= 8 EnMin= -2905.42455407524     IErMin= 8 ErrMin= 4.39D-06
 ErrMax= 4.39D-06 EMaxC= 1.00D-01 BMatC= 5.20D-09 BMatP= 1.97D-07
 IDIUse=1 WtCom= 1.00D+00 WtEn= 0.00D+00
 Coeff-Com:  0.208D-04 0.992D-04 0.198D-03-0.314D-03-0.305D-01-0.172D-01
 Coeff-Com:  0.712D-01 0.976D+00
 Coeff:      0.208D-04 0.992D-04 0.198D-03-0.314D-03-0.305D-01-0.172D-01
 Coeff:      0.712D-01 0.976D+00
 Gap=     0.388 Goal=   None    Shift=    0.000
 RMSDP=8.33D-07 MaxDP=1.92D-05 DE=-2.01D-07 OVMax= 6.24D-05

 Cycle   9  Pass 1  IDiag  1:
 RMSU=  2.55D-07    CP:  1.02D+00  6.36D-01  9.51D-01  6.57D-01  1.28D+00
                    CP:  8.63D-01  1.16D+00  1.29D+00
 FoFJK:  IHMeth= 1 ICntrl=     0 DoSepK=T KAlg= 1 I1Cent= 0 FoldK=F
 E= -2905.42455408709     Delta-E=       -0.000000011848 Rises=F Damp=F
 DIIS: error= 1.80D-06 at cycle   9 NSaved=   9.
 NSaved= 9 IEnMin= 9 EnMin= -2905.42455408709     IErMin= 9 ErrMin= 1.80D-06
 ErrMax= 1.80D-06 EMaxC= 1.00D-01 BMatC= 4.29D-10 BMatP= 5.20D-09
 IDIUse=1 WtCom= 1.00D+00 WtEn= 0.00D+00
 Coeff-Com:  0.964D-06 0.917D-04 0.569D-03 0.533D-03-0.383D-02-0.972D-02
 Coeff-Com: -0.411D-01 0.249D-01 0.103D+01
 Coeff:      0.964D-06 0.917D-04 0.569D-03 0.533D-03-0.383D-02-0.972D-02
 Coeff:     -0.411D-01 0.249D-01 0.103D+01
 Gap=     0.388 Goal=   None    Shift=    0.000
 RMSDP=2.39D-07 MaxDP=6.23D-06 DE=-1.18D-08 OVMax= 2.29D-05

 Cycle  10  Pass 1  IDiag  1:
 RMSU=  7.56D-08    CP:  1.02D+00  6.36D-01  9.51D-01  6.56D-01  1.28D+00
                    CP:  8.67D-01  1.18D+00  1.39D+00  1.25D+00
 FoFJK:  IHMeth= 1 ICntrl=     0 DoSepK=T KAlg= 1 I1Cent= 0 FoldK=F
 E= -2905.42455408812     Delta-E=       -0.000000001036 Rises=F Damp=F
 DIIS: error= 4.62D-07 at cycle  10 NSaved=  10.
 NSaved=10 IEnMin=10 EnMin= -2905.42455408812     IErMin=10 ErrMin= 4.62D-07
 ErrMax= 4.62D-07 EMaxC= 1.00D-01 BMatC= 3.85D-11 BMatP= 4.29D-10
 IDIUse=1 WtCom= 1.00D+00 WtEn= 0.00D+00
 Coeff-Com: -0.139D-05 0.111D-05 0.354D-04 0.436D-04 0.261D-02 0.143D-02
 Coeff-Com: -0.754D-02-0.103D+00 0.134D+00 0.973D+00
 Coeff:     -0.139D-05 0.111D-05 0.354D-04 0.436D-04 0.261D-02 0.143D-02
 Coeff:     -0.754D-02-0.103D+00 0.134D+00 0.973D+00
 Gap=     0.388 Goal=   None    Shift=    0.000
 RMSDP=6.55D-08 MaxDP=1.76D-06 DE=-1.04D-09 OVMax= 7.30D-06

 Cycle  11  Pass 1  IDiag  1:
 RMSU=  1.89D-08    CP:  1.02D+00  6.36D-01  9.51D-01  6.56D-01  1.28D+00
                    CP:  8.67D-01  1.18D+00  1.40D+00  1.36D+00  1.24D+00
 FoFJK:  IHMeth= 1 ICntrl=     0 DoSepK=T KAlg= 1 I1Cent= 0 FoldK=F
 E= -2905.42455408821     Delta-E=       -0.000000000088 Rises=F Damp=F
 DIIS: error= 1.01D-07 at cycle  11 NSaved=  11.
 NSaved=11 IEnMin=11 EnMin= -2905.42455408821     IErMin=11 ErrMin= 1.01D-07
 ErrMax= 1.01D-07 EMaxC= 1.00D-01 BMatC= 1.98D-12 BMatP= 3.85D-11
 IDIUse=1 WtCom= 1.00D+00 WtEn= 0.00D+00
 Coeff-Com:  0.325D-06-0.371D-05-0.319D-04-0.136D-04-0.637D-04 0.442D-03
 Coeff-Com:  0.339D-02 0.361D-02-0.634D-01-0.846D-01 0.114D+01
 Coeff:      0.325D-06-0.371D-05-0.319D-04-0.136D-04-0.637D-04 0.442D-03
 Coeff:      0.339D-02 0.361D-02-0.634D-01-0.846D-01 0.114D+01
 Gap=     0.388 Goal=   None    Shift=    0.000
 RMSDP=1.73D-08 MaxDP=3.50D-07 DE=-8.82D-11 OVMax= 1.86D-06

 Cycle  12  Pass 1  IDiag  1:
 RMSU=  3.78D-09    CP:  1.02D+00  6.36D-01  9.51D-01  6.56D-01  1.28D+00
                    CP:  8.66D-01  1.18D+00  1.40D+00  1.38D+00  1.35D+00
                    CP:  1.26D+00
 FoFJK:  IHMeth= 1 ICntrl=     0 DoSepK=T KAlg= 1 I1Cent= 0 FoldK=F
 E= -2905.42455408822     Delta-E=       -0.000000000011 Rises=F Damp=F
 DIIS: error= 1.71D-08 at cycle  12 NSaved=  12.
 NSaved=12 IEnMin=12 EnMin= -2905.42455408822     IErMin=12 ErrMin= 1.71D-08
 ErrMax= 1.71D-08 EMaxC= 1.00D-01 BMatC= 5.47D-14 BMatP= 1.98D-12
 IDIUse=1 WtCom= 1.00D+00 WtEn= 0.00D+00
 Coeff-Com: -0.148D-07-0.274D-06-0.803D-06-0.390D-05-0.889D-04-0.567D-04
 Coeff-Com:  0.174D-03 0.277D-02 0.117D-02-0.180D-01-0.123D+00 0.114D+01
 Coeff:     -0.148D-07-0.274D-06-0.803D-06-0.390D-05-0.889D-04-0.567D-04
 Coeff:      0.174D-03 0.277D-02 0.117D-02-0.180D-01-0.123D+00 0.114D+01
 Gap=     0.388 Goal=   None    Shift=    0.000
 RMSDP=3.40D-09 MaxDP=1.22D-07 DE=-1.09D-11 OVMax= 2.95D-07

 SCF Done:  E(RwB97XD) =  -2905.42455409     A.U. after   12 cycles
             Convg  =    0.3403D-08             -V/T =  2.0015
 KE= 2.901005563868D+03 PE=-7.240195902471D+03 EE= 1.282431715090D+03
 Leave Link  502 at Sat May  9 16:24:42 2020, MaxMem= 1073741824 cpu:     412.7
 (Enter /home/matheus/.gaussian/g09/l601.exe)
 Copying SCF densities to generalized density rwf, IOpCl= 0 IROHF=0.

 **********************************************************************

            Population analysis using the SCF density.

 **********************************************************************

 Orbital symmetries:
       Occupied  (A) (A) (A) (A) (A) (A) (A) (A) (A) (A) (A) (A)
                 (A) (A) (A) (A) (A) (A) (A) (A) (A) (A) (A) (A)
                 (A) (A) (A)
       Virtual   (A) (A) (A) (A) (A) (A) (A) (A) (A) (A) (A) (A)
                 (A) (A) (A) (A) (A) (A) (A) (A) (A) (A) (A) (A)
                 (A) (A) (A) (A) (A) (A) (A) (A) (A) (A) (A) (A)
                 (A) (A) (A) (A) (A) (A) (A) (A) (A) (A) (A) (A)
                 (A) (A) (A) (A) (A) (A) (A) (A) (A) (A) (A) (A)
                 (A) (A) (A) (A) (A) (A) (A) (A) (A) (A) (A) (A)
                 (A) (A) (A) (A) (A) (A) (A) (A) (A) (A) (A) (A)
                 (A) (A) (A) (A) (A) (A) (A) (A) (A) (A) (A) (A)
                 (A) (A) (A) (A) (A) (A) (A) (A) (A) (A) (A) (A)
                 (A) (A) (A) (A) (A) (A) (A) (A) (A) (A) (A) (A)
                 (A) (A) (A) (A) (A) (A) (A) (A) (A) (A) (A) (A)
                 (A) (A) (A) (A) (A) (A) (A) (A) (A) (A) (A) (A)
                 (A) (A) (A) (A) (A) (A) (A) (A) (A) (A) (A) (A)
                 (A) (A) (A) (A) (A) (A) (A) (A) (A) (A) (A) (A)
                 (A) (A)
 The electronic state is 1-A.
 Alpha  occ. eigenvalues -- -513.09443 -67.36117 -60.90999 -60.90992 -60.90983
 Alpha  occ. eigenvalues --  -19.31492 -19.31338  -9.81419  -7.50741  -7.50717
 Alpha  occ. eigenvalues --   -7.50685  -3.37484  -3.37481  -3.37455  -3.37435
 Alpha  occ. eigenvalues --   -3.37431  -1.22190  -1.02201  -1.00630  -0.67121
 Alpha  occ. eigenvalues --   -0.53193  -0.52263  -0.50432  -0.49790  -0.48784
 Alpha  occ. eigenvalues --   -0.44951  -0.35347
 Alpha virt. eigenvalues --    0.03463   0.04330   0.08496   0.08852   0.09699
 Alpha virt. eigenvalues --    0.11849   0.12515   0.15263   0.16797   0.17390
 Alpha virt. eigenvalues --    0.18185   0.18996   0.20045   0.21494   0.22746
 Alpha virt. eigenvalues --    0.23601   0.24093   0.26677   0.29656   0.32716
 Alpha virt. eigenvalues --    0.34756   0.35337   0.37307   0.37884   0.39601
 Alpha virt. eigenvalues --    0.41293   0.43704   0.47268   0.51274   0.52783
 Alpha virt. eigenvalues --    0.56973   0.59268   0.60218   0.62746   0.64806
 Alpha virt. eigenvalues --    0.66964   0.68250   0.71448   0.71953   0.73178
 Alpha virt. eigenvalues --    0.74012   0.75534   0.78424   0.80436   0.83609
 Alpha virt. eigenvalues --    0.84329   0.85094   0.86139   0.87413   0.89689
 Alpha virt. eigenvalues --    0.91606   0.92242   0.94938   0.96690   0.98688
 Alpha virt. eigenvalues --    1.00742   1.01779   1.04096   1.05124   1.08624
 Alpha virt. eigenvalues --    1.11404   1.17627   1.19474   1.20390   1.23004
 Alpha virt. eigenvalues --    1.28972   1.30929   1.35697   1.37259   1.44572
 Alpha virt. eigenvalues --    1.46961   1.49247   1.51426   1.53888   1.57655
 Alpha virt. eigenvalues --    1.59141   1.65114   1.81474   1.85945   1.91527
 Alpha virt. eigenvalues --    1.96378   2.04211   2.05256   2.10474   2.11341
 Alpha virt. eigenvalues --    2.12135   2.17787   2.18333   2.19130   2.25645
 Alpha virt. eigenvalues --    2.25975   2.28504   2.30178   2.30263   2.31498
 Alpha virt. eigenvalues --    2.35256   2.37315   2.41127   2.44083   2.45171
 Alpha virt. eigenvalues --    2.47036   2.48677   2.52524   2.54328   2.55232
 Alpha virt. eigenvalues --    2.58427   2.63406   2.65634   2.66509   2.69974
 Alpha virt. eigenvalues --    2.71142   2.73150   2.77672   2.86543   2.88673
 Alpha virt. eigenvalues --    2.90412   3.03833   3.08506   3.09471   3.56017
 Alpha virt. eigenvalues --    3.66089   3.88582   3.96806   3.99124   4.03975
 Alpha virt. eigenvalues --    4.13077   4.15027   4.17067   4.18778   4.21304
 Alpha virt. eigenvalues --    4.41847   4.50138   4.53023   4.63929   4.68037
 Alpha virt. eigenvalues --    4.96379   4.96978   5.04072   5.06109   5.06942
 Alpha virt. eigenvalues --    5.11444   5.46415   5.81134   6.01107   6.03613
 Alpha virt. eigenvalues --    6.10437   6.33228   6.35853   6.43528   6.54100
 Alpha virt. eigenvalues --    6.65593   6.70557   6.76190   6.81193   6.82904
 Alpha virt. eigenvalues --    6.84029   6.87554   6.88724   6.89445   7.05807
 Alpha virt. eigenvalues --    7.12832   7.15667   7.22494   7.35382   7.53994
 Alpha virt. eigenvalues --    7.95857   7.98161   8.14234  13.87589  14.68846
          Condensed to atoms (all electrons):
              1          2          3          4          5
     1  O    8.274946  -0.218343   0.154067   0.031468  -0.021759
     2  O   -0.218343   8.292932   0.034327   0.157126  -0.018263
     3  H    0.154067   0.034327   0.603466  -0.011477  -0.001204
     4  H    0.031468   0.157126  -0.011477   0.594901  -0.011340
     5  Kr  -0.021759  -0.018263  -0.001204  -0.011340  36.044552
 Mulliken atomic charges:
              1
     1  O   -0.220378
     2  O   -0.247779
     3  H    0.220821
     4  H    0.239322
     5  Kr   0.008014
 Sum of Mulliken atomic charges =   0.00000
 Mulliken charges with hydrogens summed into heavy atoms:
              1
     1  O    0.000442
     2  O   -0.008457
     5  Kr   0.008014
 Sum of Mulliken charges with hydrogens summed into heavy atoms =   0.00000
          Condensed to fragments (all electrons):
     1      -0.008014
     2       0.008014
 Electronic spatial extent (au):  <R**2>=            476.2022
 Charge=              0.0000 electrons
 Dipole moment (field-independent basis, Debye):
    X=             -3.3660    Y=             -0.0958    Z=              0.6491  Tot=              3.4293
 Quadrupole moment (field-independent basis, Debye-Ang):
   XX=            -38.2608   YY=            -28.0380   ZZ=            -30.1146
   XY=             -0.3000   XZ=              0.7852   YZ=             -0.8697
 Traceless Quadrupole moment (field-independent basis, Debye-Ang):
   XX=             -6.1230   YY=              4.0998   ZZ=              2.0232
   XY=             -0.3000   XZ=              0.7852   YZ=             -0.8697
 Octapole moment (field-independent basis, Debye-Ang**2):
  XXX=            -43.7095  YYY=             -0.2337  ZZZ=              0.0590  XYY=             -7.5262
  XXY=             -0.7038  XXZ=              0.0998  XZZ=             -8.2959  YZZ=             -0.4631
  YYZ=              1.0030  XYZ=             -1.0388
 Hexadecapole moment (field-independent basis, Debye-Ang**3):
 XXXX=           -454.7876 YYYY=            -63.0758 ZZZZ=            -29.4396 XXXY=             -0.7316
 XXXZ=             -1.1222 YYYX=             -0.5528 YYYZ=             -1.1898 ZZZX=              0.3384
 ZZZY=             -0.5600 XXYY=            -85.3238 XXZZ=            -75.6342 YYZZ=            -17.0107
 XXYZ=             -1.1819 YYXZ=              1.2225 ZZXY=             -0.6305
 N-N= 1.513340694258D+02 E-N=-7.240195899560D+03  KE= 2.901005563868D+03
 No NMR shielding tensors so no spin-rotation constants.
 Leave Link  601 at Sat May  9 16:24:42 2020, MaxMem= 1073741824 cpu:       0.8
 (Enter /home/matheus/.gaussian/g09/l122.exe)
 Counterpoise: doing DCBS calculation for fragment   1 NewBq=T
 Leave Link  122 at Sat May  9 16:24:42 2020, MaxMem= 1073741824 cpu:       0.0
 (Enter /home/matheus/.gaussian/g09/l301.exe)
 Basis read from rwf:  (5D, 7F)
 No pseudopotential information found on rwf file.
 There are   197 symmetry adapted basis functions of A   symmetry.
 Integral buffers will be    131072 words long.
 Raffenetti 2 integral format.
 Two-electron integral symmetry is turned on.
   197 basis functions,   415 primitive gaussians,   229 cartesian basis functions
     9 alpha electrons        9 beta electrons
       nuclear repulsion energy        36.6600463863 Hartrees.
 IExCor= 4639 DFT=T Ex+Corr=wB97XD ExCW=0 ScaHFX=  1.000000
 ScaDFX=  1.000000  1.000000  1.000000  1.000000 ScalE2=  1.000000  1.000000
 IRadAn=      5 IRanWt=     -1 IRanGd=            0 ICorTp=0
  HFx wShort=  0.000000 wLong=  0.200000 cFull=  0.222036 cShort=  0.000000 cLong=  0.777964
  DFx wShort=  0.000000 wLong=  0.200000 cFull=  0.000000 cShort=  0.000000 cLong=  1.000000
 NAtoms=    5 NActive=    5 NUniq=    5 SFac= 1.00D+00 NAtFMM=   60 NAOKFM=F Big=F
 R6Disp: Dispersion energy =        -0.0002307925 Hartrees.
 Nuclear repulsion after empirical dispersion term =       36.6598155938 Hartrees.
 No density basis found on file   718.
 Leave Link  301 at Sat May  9 16:24:42 2020, MaxMem= 1073741824 cpu:       0.2
 (Enter /home/matheus/.gaussian/g09/l302.exe)
 NPDir=0 NMtPBC=     1 NCelOv=     1 NCel=       1 NClECP=     1 NCelD=      1
         NCelK=      1 NCelE2=     1 NClLst=     1 CellRange=     0.0.
 One-electron integrals computed using PRISM.
 NBasis=   197 RedAO= T  NBF=   197
 NBsUse=   197 1.00D-06 NBFU=   197
 Precomputing XC quadrature grid using
 IXCGrd= 2 IRadAn=           5 IRanWt=          -1 IRanGd=           0 AccXCQ= 0.00D+00.
 NRdTot=     427 NPtTot=      123512 NUsed=      126579 NTot=      126611
 NSgBfM=   229   229   229   229   229 NAtAll=     5     5.
 Leave Link  302 at Sat May  9 16:24:42 2020, MaxMem= 1073741824 cpu:       1.1
 (Enter /home/matheus/.gaussian/g09/l303.exe)
 DipDrv:  MaxL=1.
 Leave Link  303 at Sat May  9 16:24:42 2020, MaxMem= 1073741824 cpu:       0.3
 (Enter /home/matheus/.gaussian/g09/l401.exe)
 Harris functional with IExCor= 4639 diagonalized for initial guess.
 ExpMin= 2.53D-02 ExpMax= 1.17D+07 ExpMxC= 1.33D+04 IAcc=3 IRadAn=         5 AccDes= 0.00D+00
 HarFok:  IExCor= 4639 AccDes= 0.00D+00 IRadAn=         5 IDoV= 1
 ScaDFX=  1.000000  1.000000  1.000000  1.000000
 FoFCou: FMM=F IPFlag=           0 FMFlag=      100000 FMFlg1=           0
         NFxFlg=           0 DoJE=T BraDBF=F KetDBF=T FulRan=T
         Omega=  0.000000  0.000000  1.000000  0.000000  0.000000 ICntrl=     500 IOpCl=  0
         NMat0=    1 NMatS0=    1 NMatT0=    0 NMatD0=    1 NMtDS0=    0 NMtDT0=    0
         I1Cent=           4 NGrid=           0.
 Petite list used in FoFCou.
 Harris En= -146.291791475149    
 Initial guess orbital symmetries:
       Occupied  (A) (A) (A) (A) (A) (A) (A) (A) (A)
       Virtual   (A) (A) (A) (A) (A) (A) (A) (A) (A) (A) (A) (A)
                 (A) (A) (A) (A) (A) (A) (A) (A) (A) (A) (A) (A)
                 (A) (A) (A) (A) (A) (A) (A) (A) (A) (A) (A) (A)
                 (A) (A) (A) (A) (A) (A) (A) (A) (A) (A) (A) (A)
                 (A) (A) (A) (A) (A) (A) (A) (A) (A) (A) (A) (A)
                 (A) (A) (A) (A) (A) (A) (A) (A) (A) (A) (A) (A)
                 (A) (A) (A) (A) (A) (A) (A) (A) (A) (A) (A) (A)
                 (A) (A) (A) (A) (A) (A) (A) (A) (A) (A) (A) (A)
                 (A) (A) (A) (A) (A) (A) (A) (A) (A) (A) (A) (A)
                 (A) (A) (A) (A) (A) (A) (A) (A) (A) (A) (A) (A)
                 (A) (A) (A) (A) (A) (A) (A) (A) (A) (A) (A) (A)
                 (A) (A) (A) (A) (A) (A) (A) (A) (A) (A) (A) (A)
                 (A) (A) (A) (A) (A) (A) (A) (A) (A) (A) (A) (A)
                 (A) (A) (A) (A) (A) (A) (A) (A) (A) (A) (A) (A)
                 (A) (A) (A) (A) (A) (A) (A) (A) (A) (A) (A) (A)
                 (A) (A) (A) (A) (A) (A) (A) (A)
 The electronic state of the initial guess is 1-A.
 Leave Link  401 at Sat May  9 16:24:43 2020, MaxMem= 1073741824 cpu:       5.0
 (Enter /home/matheus/.gaussian/g09/l502.exe)
 Closed shell SCF:
 Requested convergence on RMS density matrix=1.00D-08 within 128 cycles.
 Requested convergence on MAX density matrix=1.00D-06.
 Requested convergence on             energy=1.00D-06.
 No special actions if energy rises.
 Using DIIS extrapolation, IDIIS=  1040.
 Integral symmetry usage will be decided dynamically.
       126521 words used for storage of precomputed grid.
 IEnd=      305468 IEndB=      305468 NGot=  1073741824 MDV=  1073505667
 LenX=  1073505667 LenY=  1073452785
 Fock matrices will be formed incrementally for  20 cycles.

 Cycle   1  Pass 1  IDiag  1:
 FoFJK:  IHMeth= 1 ICntrl=     0 DoSepK=T KAlg= 1 I1Cent= 0 FoldK=F
 FoFCou: FMM=F IPFlag=           0 FMFlag=      100000 FMFlg1=           0
         NFxFlg=           0 DoJE=T BraDBF=F KetDBF=F FulRan=T
         Omega=  0.000000  0.000000  1.000000  0.000000  0.000000 ICntrl=     500 IOpCl=  0
         NMat0=    1 NMatS0=    1 NMatT0=    0 NMatD0=    1 NMtDS0=    0 NMtDT0=    0
         I1Cent=           0 NGrid=           0.
 Symmetry not used in FoFCou.
 E= -151.472742752646    
 DIIS: error= 3.59D-02 at cycle   1 NSaved=   1.
 NSaved= 1 IEnMin= 1 EnMin= -151.472742752646     IErMin= 1 ErrMin= 3.59D-02
 ErrMax= 3.59D-02 EMaxC= 1.00D-01 BMatC= 2.99D-01 BMatP= 2.99D-01
 IDIUse=3 WtCom= 6.41D-01 WtEn= 3.59D-01
 Coeff-Com:  0.100D+01
 Coeff-En:   0.100D+01
 Coeff:      0.100D+01
 Gap=     0.491 Goal=   None    Shift=    0.000
 GapD=    0.491 DampG=2.000 DampE=0.500 DampFc=1.0000 IDamp=-1.
 RMSDP=2.55D-03 MaxDP=1.08D-01              OVMax= 1.09D-01

 Cycle   2  Pass 1  IDiag  1:
 RMSU=  1.75D-03    CP:  9.41D-01
 FoFJK:  IHMeth= 1 ICntrl=     0 DoSepK=T KAlg= 1 I1Cent= 0 FoldK=F
 E= -151.505692104269     Delta-E=       -0.032949351623 Rises=F Damp=F
 DIIS: error= 1.47D-02 at cycle   2 NSaved=   2.
 NSaved= 2 IEnMin= 2 EnMin= -151.505692104269     IErMin= 2 ErrMin= 1.47D-02
 ErrMax= 1.47D-02 EMaxC= 1.00D-01 BMatC= 8.54D-02 BMatP= 2.99D-01
 IDIUse=3 WtCom= 8.53D-01 WtEn= 1.47D-01
 Coeff-Com:  0.325D+00 0.675D+00
 Coeff-En:   0.342D+00 0.658D+00
 Coeff:      0.327D+00 0.673D+00
 Gap=     0.442 Goal=   None    Shift=    0.000
 RMSDP=1.05D-03 MaxDP=4.88D-02 DE=-3.29D-02 OVMax= 6.05D-02

 Cycle   3  Pass 1  IDiag  1:
 RMSU=  3.84D-04    CP:  9.65D-01  6.51D-01
 FoFJK:  IHMeth= 1 ICntrl=     0 DoSepK=T KAlg= 1 I1Cent= 0 FoldK=F
 E= -151.550480921812     Delta-E=       -0.044788817543 Rises=F Damp=F
 DIIS: error= 4.63D-03 at cycle   3 NSaved=   3.
 NSaved= 3 IEnMin= 3 EnMin= -151.550480921812     IErMin= 3 ErrMin= 4.63D-03
 ErrMax= 4.63D-03 EMaxC= 1.00D-01 BMatC= 7.57D-03 BMatP= 8.54D-02
 IDIUse=3 WtCom= 9.54D-01 WtEn= 4.63D-02
 Coeff-Com:  0.189D-01 0.240D+00 0.741D+00
 Coeff-En:   0.000D+00 0.000D+00 0.100D+01
 Coeff:      0.180D-01 0.229D+00 0.753D+00
 Gap=     0.384 Goal=   None    Shift=    0.000
 RMSDP=3.08D-04 MaxDP=1.10D-02 DE=-4.48D-02 OVMax= 1.77D-02

 Cycle   4  Pass 1  IDiag  1:
 RMSU=  7.17D-05    CP:  9.58D-01  7.56D-01  7.90D-01
 FoFJK:  IHMeth= 1 ICntrl=     0 DoSepK=T KAlg= 1 I1Cent= 0 FoldK=F
 E= -151.555405342441     Delta-E=       -0.004924420629 Rises=F Damp=F
 DIIS: error= 6.05D-04 at cycle   4 NSaved=   4.
 NSaved= 4 IEnMin= 4 EnMin= -151.555405342441     IErMin= 4 ErrMin= 6.05D-04
 ErrMax= 6.05D-04 EMaxC= 1.00D-01 BMatC= 9.93D-05 BMatP= 7.57D-03
 IDIUse=3 WtCom= 9.94D-01 WtEn= 6.05D-03
 Coeff-Com:  0.559D-03 0.334D-01 0.185D+00 0.781D+00
 Coeff-En:   0.000D+00 0.000D+00 0.000D+00 0.100D+01
 Coeff:      0.556D-03 0.332D-01 0.184D+00 0.782D+00
 Gap=     0.381 Goal=   None    Shift=    0.000
 RMSDP=4.45D-05 MaxDP=2.36D-03 DE=-4.92D-03 OVMax= 2.17D-03

 Cycle   5  Pass 1  IDiag  1:
 RMSU=  1.59D-05    CP:  9.60D-01  7.47D-01  8.42D-01  1.09D+00
 FoFJK:  IHMeth= 1 ICntrl=     0 DoSepK=T KAlg= 1 I1Cent= 0 FoldK=F
 E= -151.555475149614     Delta-E=       -0.000069807174 Rises=F Damp=F
 DIIS: error= 5.21D-05 at cycle   5 NSaved=   5.
 NSaved= 5 IEnMin= 5 EnMin= -151.555475149614     IErMin= 5 ErrMin= 5.21D-05
 ErrMax= 5.21D-05 EMaxC= 1.00D-01 BMatC= 8.94D-07 BMatP= 9.93D-05
 IDIUse=1 WtCom= 1.00D+00 WtEn= 0.00D+00
 Coeff-Com: -0.704D-03-0.118D-01-0.379D-01-0.819D-01 0.113D+01
 Coeff:     -0.704D-03-0.118D-01-0.379D-01-0.819D-01 0.113D+01
 Gap=     0.381 Goal=   None    Shift=    0.000
 RMSDP=1.39D-05 MaxDP=5.21D-04 DE=-6.98D-05 OVMax= 7.12D-04

 Cycle   6  Pass 1  IDiag  1:
 RMSU=  3.28D-06    CP:  9.60D-01  7.47D-01  8.56D-01  1.17D+00  1.29D+00
 FoFJK:  IHMeth= 1 ICntrl=     0 DoSepK=T KAlg= 1 I1Cent= 0 FoldK=F
 E= -151.555477180824     Delta-E=       -0.000002031210 Rises=F Damp=F
 DIIS: error= 1.25D-05 at cycle   6 NSaved=   6.
 NSaved= 6 IEnMin= 6 EnMin= -151.555477180824     IErMin= 6 ErrMin= 1.25D-05
 ErrMax= 1.25D-05 EMaxC= 1.00D-01 BMatC= 3.47D-08 BMatP= 8.94D-07
 IDIUse=1 WtCom= 1.00D+00 WtEn= 0.00D+00
 Coeff-Com:  0.208D-04-0.652D-03-0.515D-02-0.200D-01-0.101D-01 0.104D+01
 Coeff:      0.208D-04-0.652D-03-0.515D-02-0.200D-01-0.101D-01 0.104D+01
 Gap=     0.381 Goal=   None    Shift=    0.000
 RMSDP=2.40D-06 MaxDP=8.14D-05 DE=-2.03D-06 OVMax= 1.72D-04

 Cycle   7  Pass 1  IDiag  1:
 RMSU=  7.71D-07    CP:  9.60D-01  7.46D-01  8.57D-01  1.18D+00  1.34D+00
                    CP:  1.31D+00
 FoFJK:  IHMeth= 1 ICntrl=     0 DoSepK=T KAlg= 1 I1Cent= 0 FoldK=F
 E= -151.555477262386     Delta-E=       -0.000000081562 Rises=F Damp=F
 DIIS: error= 8.18D-06 at cycle   7 NSaved=   7.
 NSaved= 7 IEnMin= 7 EnMin= -151.555477262386     IErMin= 7 ErrMin= 8.18D-06
 ErrMax= 8.18D-06 EMaxC= 1.00D-01 BMatC= 1.81D-08 BMatP= 3.47D-08
 IDIUse=1 WtCom= 1.00D+00 WtEn= 0.00D+00
 Coeff-Com:  0.438D-04 0.239D-03-0.696D-03-0.643D-02-0.629D-01 0.511D+00
 Coeff-Com:  0.559D+00
 Coeff:      0.438D-04 0.239D-03-0.696D-03-0.643D-02-0.629D-01 0.511D+00
 Coeff:      0.559D+00
 Gap=     0.381 Goal=   None    Shift=    0.000
 RMSDP=5.15D-07 MaxDP=2.45D-05 DE=-8.16D-08 OVMax= 4.07D-05

 Cycle   8  Pass 1  IDiag  1:
 RMSU=  2.94D-07    CP:  9.60D-01  7.46D-01  8.57D-01  1.18D+00  1.34D+00
                    CP:  1.36D+00  9.79D-01
 FoFJK:  IHMeth= 1 ICntrl=     0 DoSepK=T KAlg= 1 I1Cent= 0 FoldK=F
 E= -151.555477276471     Delta-E=       -0.000000014085 Rises=F Damp=F
 DIIS: error= 2.11D-06 at cycle   8 NSaved=   8.
 NSaved= 8 IEnMin= 8 EnMin= -151.555477276471     IErMin= 8 ErrMin= 2.11D-06
 ErrMax= 2.11D-06 EMaxC= 1.00D-01 BMatC= 2.20D-09 BMatP= 1.81D-08
 IDIUse=1 WtCom= 1.00D+00 WtEn= 0.00D+00
 Coeff-Com:  0.150D-05 0.198D-03 0.124D-02 0.322D-02-0.116D-01-0.176D+00
 Coeff-Com:  0.191D+00 0.992D+00
 Coeff:      0.150D-05 0.198D-03 0.124D-02 0.322D-02-0.116D-01-0.176D+00
 Coeff:      0.191D+00 0.992D+00
 Gap=     0.381 Goal=   None    Shift=    0.000
 RMSDP=3.69D-07 MaxDP=1.17D-05 DE=-1.41D-08 OVMax= 3.95D-05

 Cycle   9  Pass 1  IDiag  1:
 RMSU=  9.25D-08    CP:  9.60D-01  7.46D-01  8.57D-01  1.18D+00  1.35D+00
                    CP:  1.40D+00  1.19D+00  1.11D+00
 FoFJK:  IHMeth= 1 ICntrl=     0 DoSepK=T KAlg= 1 I1Cent= 0 FoldK=F
 E= -151.555477279552     Delta-E=       -0.000000003081 Rises=F Damp=F
 DIIS: error= 4.72D-07 at cycle   9 NSaved=   9.
 NSaved= 9 IEnMin= 9 EnMin= -151.555477279552     IErMin= 9 ErrMin= 4.72D-07
 ErrMax= 4.72D-07 EMaxC= 1.00D-01 BMatC= 3.08D-11 BMatP= 2.20D-09
 IDIUse=1 WtCom= 1.00D+00 WtEn= 0.00D+00
 Coeff-Com: -0.166D-07 0.104D-04 0.820D-04 0.190D-03 0.265D-02-0.285D-01
 Coeff-Com: -0.609D-02 0.726D-01 0.959D+00
 Coeff:     -0.166D-07 0.104D-04 0.820D-04 0.190D-03 0.265D-02-0.285D-01
 Coeff:     -0.609D-02 0.726D-01 0.959D+00
 Gap=     0.381 Goal=   None    Shift=    0.000
 RMSDP=6.26D-08 MaxDP=1.50D-06 DE=-3.08D-09 OVMax= 6.23D-06

 Cycle  10  Pass 1  IDiag  1:
 RMSU=  1.49D-08    CP:  9.60D-01  7.46D-01  8.57D-01  1.18D+00  1.35D+00
                    CP:  1.39D+00  1.21D+00  1.18D+00  1.30D+00
 FoFJK:  IHMeth= 1 ICntrl=     0 DoSepK=T KAlg= 1 I1Cent= 0 FoldK=F
 E= -151.555477279624     Delta-E=       -0.000000000072 Rises=F Damp=F
 DIIS: error= 1.63D-07 at cycle  10 NSaved=  10.
 NSaved=10 IEnMin=10 EnMin= -151.555477279624     IErMin=10 ErrMin= 1.63D-07
 ErrMax= 1.63D-07 EMaxC= 1.00D-01 BMatC= 3.96D-12 BMatP= 3.08D-11
 IDIUse=1 WtCom= 1.00D+00 WtEn= 0.00D+00
 Coeff-Com:  0.389D-06-0.127D-04-0.114D-03-0.357D-03 0.115D-02 0.155D-01
 Coeff-Com: -0.204D-01-0.976D-01 0.287D-01 0.107D+01
 Coeff:      0.389D-06-0.127D-04-0.114D-03-0.357D-03 0.115D-02 0.155D-01
 Coeff:     -0.204D-01-0.976D-01 0.287D-01 0.107D+01
 Gap=     0.381 Goal=   None    Shift=    0.000
 RMSDP=2.49D-08 MaxDP=6.68D-07 DE=-7.19D-11 OVMax= 2.69D-06

 Cycle  11  Pass 1  IDiag  1:
 RMSU=  4.23D-09    CP:  9.60D-01  7.46D-01  8.57D-01  1.18D+00  1.35D+00
                    CP:  1.39D+00  1.21D+00  1.20D+00  1.42D+00  1.34D+00
 FoFJK:  IHMeth= 1 ICntrl=     0 DoSepK=T KAlg= 1 I1Cent= 0 FoldK=F
 E= -151.555477279632     Delta-E=       -0.000000000009 Rises=F Damp=F
 DIIS: error= 2.44D-08 at cycle  11 NSaved=  11.
 NSaved=11 IEnMin=11 EnMin= -151.555477279632     IErMin=11 ErrMin= 2.44D-08
 ErrMax= 2.44D-08 EMaxC= 1.00D-01 BMatC= 9.41D-14 BMatP= 3.96D-12
 IDIUse=1 WtCom= 1.00D+00 WtEn= 0.00D+00
 Coeff-Com: -0.141D-06-0.390D-06 0.712D-05 0.217D-04-0.133D-03-0.780D-03
 Coeff-Com:  0.263D-02 0.951D-02-0.260D-01-0.185D+00 0.120D+01
 Coeff:     -0.141D-06-0.390D-06 0.712D-05 0.217D-04-0.133D-03-0.780D-03
 Coeff:      0.263D-02 0.951D-02-0.260D-01-0.185D+00 0.120D+01
 Gap=     0.381 Goal=   None    Shift=    0.000
 RMSDP=4.74D-09 MaxDP=1.89D-07 DE=-8.64D-12 OVMax= 4.72D-07

 SCF Done:  E(RwB97XD) =  -151.555477280     A.U. after   11 cycles
             Convg  =    0.4742D-08             -V/T =  2.0057
 KE= 1.506969179617D+02 PE=-4.317943330518D+02 EE= 9.288212221660D+01
 Leave Link  502 at Sat May  9 16:25:30 2020, MaxMem= 1073741824 cpu:     373.6
 (Enter /home/matheus/.gaussian/g09/l601.exe)
 Copying SCF densities to generalized density rwf, IOpCl= 0 IROHF=0.

 **********************************************************************

            Population analysis using the SCF density.

 **********************************************************************

 Orbital symmetries:
       Occupied  (A) (A) (A) (A) (A) (A) (A) (A) (A)
       Virtual   (A) (A) (A) (A) (A) (A) (A) (A) (A) (A) (A) (A)
                 (A) (A) (A) (A) (A) (A) (A) (A) (A) (A) (A) (A)
                 (A) (A) (A) (A) (A) (A) (A) (A) (A) (A) (A) (A)
                 (A) (A) (A) (A) (A) (A) (A) (A) (A) (A) (A) (A)
                 (A) (A) (A) (A) (A) (A) (A) (A) (A) (A) (A) (A)
                 (A) (A) (A) (A) (A) (A) (A) (A) (A) (A) (A) (A)
                 (A) (A) (A) (A) (A) (A) (A) (A) (A) (A) (A) (A)
                 (A) (A) (A) (A) (A) (A) (A) (A) (A) (A) (A) (A)
                 (A) (A) (A) (A) (A) (A) (A) (A) (A) (A) (A) (A)
                 (A) (A) (A) (A) (A) (A) (A) (A) (A) (A) (A) (A)
                 (A) (A) (A) (A) (A) (A) (A) (A) (A) (A) (A) (A)
                 (A) (A) (A) (A) (A) (A) (A) (A) (A) (A) (A) (A)
                 (A) (A) (A) (A) (A) (A) (A) (A) (A) (A) (A) (A)
                 (A) (A) (A) (A) (A) (A) (A) (A) (A) (A) (A) (A)
                 (A) (A) (A) (A) (A) (A) (A) (A) (A) (A) (A) (A)
                 (A) (A) (A) (A) (A) (A) (A) (A)
 The electronic state is 1-A.
 Alpha  occ. eigenvalues --  -19.32132 -19.32127  -1.22734  -1.01191  -0.67295
 Alpha  occ. eigenvalues --   -0.52470  -0.52224  -0.45860  -0.35916
 Alpha virt. eigenvalues --    0.02173   0.03841   0.07409   0.08139   0.08777
 Alpha virt. eigenvalues --    0.09357   0.10671   0.16016   0.17441   0.18105
 Alpha virt. eigenvalues --    0.18328   0.19368   0.20771   0.21686   0.25540
 Alpha virt. eigenvalues --    0.26965   0.28795   0.29261   0.32743   0.35126
 Alpha virt. eigenvalues --    0.35952   0.36267   0.38179   0.40303   0.40999
 Alpha virt. eigenvalues --    0.44154   0.45052   0.46536   0.48784   0.52200
 Alpha virt. eigenvalues --    0.54323   0.56892   0.58841   0.61192   0.65515
 Alpha virt. eigenvalues --    0.68618   0.70866   0.75333   0.76172   0.78633
 Alpha virt. eigenvalues --    0.81100   0.82131   0.85882   0.86642   0.88698
 Alpha virt. eigenvalues --    0.92041   0.94414   0.96044   0.98175   0.99089
 Alpha virt. eigenvalues --    1.00554   1.04021   1.05342   1.07715   1.08316
 Alpha virt. eigenvalues --    1.12872   1.16347   1.19144   1.21377   1.24541
 Alpha virt. eigenvalues --    1.25787   1.29586   1.31219   1.31455   1.33743
 Alpha virt. eigenvalues --    1.34472   1.36305   1.37677   1.43364   1.44582
 Alpha virt. eigenvalues --    1.47500   1.49331   1.52623   1.54637   1.58446
 Alpha virt. eigenvalues --    1.60848   1.63286   1.67997   1.73302   1.76284
 Alpha virt. eigenvalues --    1.81752   1.84334   1.90407   1.95386   2.00774
 Alpha virt. eigenvalues --    2.05794   2.11016   2.14302   2.18918   2.20767
 Alpha virt. eigenvalues --    2.25667   2.30226   2.30997   2.32307   2.37581
 Alpha virt. eigenvalues --    2.46618   2.49994   2.55157   2.61089   2.62732
 Alpha virt. eigenvalues --    2.65786   2.68806   2.83358   2.86958   2.88364
 Alpha virt. eigenvalues --    3.00858   3.07082   3.07851   3.25062   3.32627
 Alpha virt. eigenvalues --    3.41553   3.54284   3.60529   3.64875   3.78082
 Alpha virt. eigenvalues --    3.78939   3.80642   3.82248   3.82638   3.86287
 Alpha virt. eigenvalues --    3.90465   3.91824   3.92216   3.93598   3.96729
 Alpha virt. eigenvalues --    3.98481   4.01419   4.05309   4.10505   4.13254
 Alpha virt. eigenvalues --    4.16238   4.19911   4.21264   4.25034   4.31045
 Alpha virt. eigenvalues --    4.51319   4.52926   4.54269   4.64690   4.96141
 Alpha virt. eigenvalues --    4.96730   5.03860   5.06000   5.07141   5.11150
 Alpha virt. eigenvalues --    5.46138   5.80748   6.00515   6.03073   6.09747
 Alpha virt. eigenvalues --    6.32803   6.35415   6.43216   6.53628   6.65082
 Alpha virt. eigenvalues --    6.69855   6.75551   6.80683   6.82211   6.83564
 Alpha virt. eigenvalues --    6.86997   6.88283   6.88844   7.05390   7.12278
 Alpha virt. eigenvalues --    7.15351   7.21836   7.34800   7.53543   7.95241
 Alpha virt. eigenvalues --    7.97467   8.13468  11.07761  13.86546  14.67207
 Alpha virt. eigenvalues --   14.82362  14.92324  15.11257  29.02444  29.03152
 Alpha virt. eigenvalues --   29.07166  29.20136  29.22699  49.22698 148.30475
 Alpha virt. eigenvalues --  148.45341 148.71998 752.93700
          Condensed to atoms (all electrons):
              1          2          3          4          5
     1  O    8.221238  -0.207750   0.170850   0.026107   0.003482
     2  O   -0.207750   8.223215   0.029851   0.177100  -0.000958
     3  H    0.170850   0.029851   0.590921  -0.002739  -0.003236
     4  H    0.026107   0.177100  -0.002739   0.587034  -0.005094
     5  Kr   0.003482  -0.000958  -0.003236  -0.005094   0.002364
 Mulliken atomic charges:
              1
     1  O   -0.213927
     2  O   -0.221458
     3  H    0.214352
     4  H    0.217591
     5  Kr   0.003443
 Sum of Mulliken atomic charges =   0.00000
 Mulliken charges with hydrogens summed into heavy atoms:
              1
     1  O    0.000425
     2  O   -0.003868
     5  Kr   0.003443
 Sum of Mulliken charges with hydrogens summed into heavy atoms =   0.00000
          Condensed to fragments (all electrons):
     1      -0.003443
     2       0.003443
 Electronic spatial extent (au):  <R**2>=            316.7207
 Charge=              0.0000 electrons
 Dipole moment (field-independent basis, Debye):
    X=             -2.8678    Y=             -0.0401    Z=              0.7841  Tot=              2.9734
 Quadrupole moment (field-independent basis, Debye-Ang):
   XX=            -20.9628   YY=            -10.4272   ZZ=            -12.6382
   XY=             -0.3202   XZ=              0.6880   YZ=             -0.8986
 Traceless Quadrupole moment (field-independent basis, Debye-Ang):
   XX=             -6.2868   YY=              4.2489   ZZ=              2.0379
   XY=             -0.3202   XZ=              0.6880   YZ=             -0.8986
 Octapole moment (field-independent basis, Debye-Ang**2):
  XXX=            -92.2234  YYY=             -0.2407  ZZZ=              0.1052  XYY=            -24.1277
  XXY=             -0.6211  XXZ=              0.1652  XZZ=            -24.9820  YZZ=             -0.4713
  YYZ=              1.0284  XYZ=             -1.0388
 Hexadecapole moment (field-independent basis, Debye-Ang**3):
 XXXX=           -337.4672 YYYY=            -44.8660 ZZZZ=            -11.5496 XXXY=             -0.6231
 XXXZ=             -1.2501 YYYX=             -0.5537 YYYZ=             -1.2351 ZZZX=              0.3382
 ZZZY=             -0.5972 XXYY=            -62.7640 XXZZ=            -53.3141 YYZZ=            -10.9783
 XXYZ=             -1.1814 YYXZ=              1.2077 ZZXY=             -0.6134
 N-N= 3.665981559382D+01 E-N=-4.317943325406D+02  KE= 1.506969179617D+02
 No NMR shielding tensors so no spin-rotation constants.
 Leave Link  601 at Sat May  9 16:25:30 2020, MaxMem= 1073741824 cpu:       0.9
 (Enter /home/matheus/.gaussian/g09/l122.exe)
 Counterpoise: doing DCBS calculation for fragment   2 NewBq=T
 Leave Link  122 at Sat May  9 16:25:30 2020, MaxMem= 1073741824 cpu:       0.0
 (Enter /home/matheus/.gaussian/g09/l301.exe)
 Basis read from rwf:  (5D, 7F)
 No pseudopotential information found on rwf file.
 There are   197 symmetry adapted basis functions of A   symmetry.
 Integral buffers will be    131072 words long.
 Raffenetti 2 integral format.
 Two-electron integral symmetry is turned on.
   197 basis functions,   415 primitive gaussians,   229 cartesian basis functions
    18 alpha electrons       18 beta electrons
       nuclear repulsion energy         0.0000000000 Hartrees.
 IExCor= 4639 DFT=T Ex+Corr=wB97XD ExCW=0 ScaHFX=  1.000000
 ScaDFX=  1.000000  1.000000  1.000000  1.000000 ScalE2=  1.000000  1.000000
 IRadAn=      5 IRanWt=     -1 IRanGd=            0 ICorTp=0
  HFx wShort=  0.000000 wLong=  0.200000 cFull=  0.222036 cShort=  0.000000 cLong=  0.777964
  DFx wShort=  0.000000 wLong=  0.200000 cFull=  0.000000 cShort=  0.000000 cLong=  1.000000
 NAtoms=    5 NActive=    5 NUniq=    5 SFac= 1.00D+00 NAtFMM=   60 NAOKFM=F Big=F
 R6Disp: Dispersion energy =         0.0000000000 Hartrees.
 Nuclear repulsion after empirical dispersion term =        0.0000000000 Hartrees.
 No density basis found on file   718.
 Leave Link  301 at Sat May  9 16:25:30 2020, MaxMem= 1073741824 cpu:       0.2
 (Enter /home/matheus/.gaussian/g09/l302.exe)
 NPDir=0 NMtPBC=     1 NCelOv=     1 NCel=       1 NClECP=     1 NCelD=      1
         NCelK=      1 NCelE2=     1 NClLst=     1 CellRange=     0.0.
 One-electron integrals computed using PRISM.
 NBasis=   197 RedAO= T  NBF=   197
 NBsUse=   197 1.00D-06 NBFU=   197
 Precomputing XC quadrature grid using
 IXCGrd= 2 IRadAn=           5 IRanWt=          -1 IRanGd=           0 AccXCQ= 0.00D+00.
 NRdTot=     427 NPtTot=      123512 NUsed=      126579 NTot=      126611
 NSgBfM=   229   229   229   229   229 NAtAll=     5     5.
 Leave Link  302 at Sat May  9 16:25:30 2020, MaxMem= 1073741824 cpu:       1.3
 (Enter /home/matheus/.gaussian/g09/l303.exe)
 DipDrv:  MaxL=1.
 Leave Link  303 at Sat May  9 16:25:30 2020, MaxMem= 1073741824 cpu:       0.3
 (Enter /home/matheus/.gaussian/g09/l401.exe)
 Harris functional with IExCor= 4639 diagonalized for initial guess.
 ExpMin= 2.53D-02 ExpMax= 1.17D+07 ExpMxC= 1.33D+04 IAcc=3 IRadAn=         5 AccDes= 0.00D+00
 HarFok:  IExCor= 4639 AccDes= 0.00D+00 IRadAn=         5 IDoV= 1
 ScaDFX=  1.000000  1.000000  1.000000  1.000000
 FoFCou: FMM=F IPFlag=           0 FMFlag=      100000 FMFlg1=           0
         NFxFlg=           0 DoJE=T BraDBF=F KetDBF=T FulRan=T
         Omega=  0.000000  0.000000  1.000000  0.000000  0.000000 ICntrl=     500 IOpCl=  0
         NMat0=    1 NMatS0=    1 NMatT0=    0 NMatD0=    1 NMtDS0=    0 NMtDT0=    0
         I1Cent=           4 NGrid=           0.
 Petite list used in FoFCou.
 Harris En= -2730.20478916810    
 Initial guess orbital symmetries:
       Occupied  (A) (A) (A) (A) (A) (A) (A) (A) (A) (A) (A) (A)
                 (A) (A) (A) (A) (A) (A)
       Virtual   (A) (A) (A) (A) (A) (A) (A) (A) (A) (A) (A) (A)
                 (A) (A) (A) (A) (A) (A) (A) (A) (A) (A) (A) (A)
                 (A) (A) (A) (A) (A) (A) (A) (A) (A) (A) (A) (A)
                 (A) (A) (A) (A) (A) (A) (A) (A) (A) (A) (A) (A)
                 (A) (A) (A) (A) (A) (A) (A) (A) (A) (A) (A) (A)
                 (A) (A) (A) (A) (A) (A) (A) (A) (A) (A) (A) (A)
                 (A) (A) (A) (A) (A) (A) (A) (A) (A) (A) (A) (A)
                 (A) (A) (A) (A) (A) (A) (A) (A) (A) (A) (A) (A)
                 (A) (A) (A) (A) (A) (A) (A) (A) (A) (A) (A) (A)
                 (A) (A) (A) (A) (A) (A) (A) (A) (A) (A) (A) (A)
                 (A) (A) (A) (A) (A) (A) (A) (A) (A) (A) (A) (A)
                 (A) (A) (A) (A) (A) (A) (A) (A) (A) (A) (A) (A)
                 (A) (A) (A) (A) (A) (A) (A) (A) (A) (A) (A) (A)
                 (A) (A) (A) (A) (A) (A) (A) (A) (A) (A) (A) (A)
                 (A) (A) (A) (A) (A) (A) (A) (A) (A) (A) (A)
 The electronic state of the initial guess is 1-A.
 Leave Link  401 at Sat May  9 16:25:31 2020, MaxMem= 1073741824 cpu:       5.1
 (Enter /home/matheus/.gaussian/g09/l502.exe)
 Closed shell SCF:
 Requested convergence on RMS density matrix=1.00D-08 within 128 cycles.
 Requested convergence on MAX density matrix=1.00D-06.
 Requested convergence on             energy=1.00D-06.
 No special actions if energy rises.
 Using DIIS extrapolation, IDIIS=  1040.
 Integral symmetry usage will be decided dynamically.
       126521 words used for storage of precomputed grid.
 IEnd=      305468 IEndB=      305468 NGot=  1073741824 MDV=  1073505667
 LenX=  1073505667 LenY=  1073452785
 Fock matrices will be formed incrementally for  20 cycles.

 Cycle   1  Pass 1  IDiag  1:
 FoFJK:  IHMeth= 1 ICntrl=     0 DoSepK=T KAlg= 1 I1Cent= 0 FoldK=F
 FoFCou: FMM=F IPFlag=           0 FMFlag=      100000 FMFlg1=           0
         NFxFlg=           0 DoJE=T BraDBF=F KetDBF=F FulRan=T
         Omega=  0.000000  0.000000  1.000000  0.000000  0.000000 ICntrl=     500 IOpCl=  0
         NMat0=    1 NMatS0=    1 NMatT0=    0 NMatD0=    1 NMtDS0=    0 NMtDT0=    0
         I1Cent=           0 NGrid=           0.
 Symmetry not used in FoFCou.
 E= -2753.46397315764    
 DIIS: error= 8.61D-02 at cycle   1 NSaved=   1.
 NSaved= 1 IEnMin= 1 EnMin= -2753.46397315764     IErMin= 1 ErrMin= 8.61D-02
 ErrMax= 8.61D-02 EMaxC= 1.00D-01 BMatC= 1.88D+00 BMatP= 1.88D+00
 IDIUse=3 WtCom= 1.39D-01 WtEn= 8.61D-01
 Coeff-Com:  0.100D+01
 Coeff-En:   0.100D+01
 Coeff:      0.100D+01
 Gap=     0.634 Goal=   None    Shift=    0.000
 GapD=    0.634 DampG=2.000 DampE=0.500 DampFc=1.0000 IDamp=-1.
 RMSDP=5.71D-03 MaxDP=3.77D-01              OVMax= 1.78D-01

 Cycle   2  Pass 1  IDiag  1:
 RMSU=  3.98D-03    CP:  1.04D+00
 FoFJK:  IHMeth= 1 ICntrl=     0 DoSepK=T KAlg= 1 I1Cent= 0 FoldK=F
 E= -2753.72368505378     Delta-E=       -0.259711896136 Rises=F Damp=F
 DIIS: error= 3.28D-02 at cycle   2 NSaved=   2.
 NSaved= 2 IEnMin= 2 EnMin= -2753.72368505378     IErMin= 2 ErrMin= 3.28D-02
 ErrMax= 3.28D-02 EMaxC= 1.00D-01 BMatC= 4.79D-01 BMatP= 1.88D+00
 IDIUse=3 WtCom= 6.72D-01 WtEn= 3.28D-01
 Coeff-Com:  0.330D+00 0.670D+00
 Coeff-En:   0.184D+00 0.816D+00
 Coeff:      0.282D+00 0.718D+00
 Gap=     0.474 Goal=   None    Shift=    0.000
 RMSDP=2.57D-03 MaxDP=1.63D-01 DE=-2.60D-01 OVMax= 7.91D-02

 Cycle   3  Pass 1  IDiag  1:
 RMSU=  3.74D-04    CP:  1.03D+00  5.58D-01
 FoFJK:  IHMeth= 1 ICntrl=     0 DoSepK=T KAlg= 1 I1Cent= 0 FoldK=F
 E= -2753.87106357110     Delta-E=       -0.147378517325 Rises=F Damp=F
 DIIS: error= 4.33D-03 at cycle   3 NSaved=   3.
 NSaved= 3 IEnMin= 3 EnMin= -2753.87106357110     IErMin= 3 ErrMin= 4.33D-03
 ErrMax= 4.33D-03 EMaxC= 1.00D-01 BMatC= 1.04D-02 BMatP= 4.79D-01
 IDIUse=3 WtCom= 9.57D-01 WtEn= 4.33D-02
 Coeff-Com: -0.523D-02 0.120D+00 0.885D+00
 Coeff-En:   0.000D+00 0.000D+00 0.100D+01
 Coeff:     -0.501D-02 0.115D+00 0.890D+00
 Gap=     0.502 Goal=   None    Shift=    0.000
 RMSDP=3.03D-04 MaxDP=1.74D-02 DE=-1.47D-01 OVMax= 1.26D-02

 Cycle   4  Pass 1  IDiag  1:
 RMSU=  4.26D-05    CP:  1.03D+00  6.10D-01  9.38D-01
 FoFJK:  IHMeth= 1 ICntrl=     0 DoSepK=T KAlg= 1 I1Cent= 0 FoldK=F
 E= -2753.87437384931     Delta-E=       -0.003310278210 Rises=F Damp=F
 DIIS: error= 1.96D-04 at cycle   4 NSaved=   4.
 NSaved= 4 IEnMin= 4 EnMin= -2753.87437384931     IErMin= 4 ErrMin= 1.96D-04
 ErrMax= 1.96D-04 EMaxC= 1.00D-01 BMatC= 1.85D-05 BMatP= 1.04D-02
 IDIUse=3 WtCom= 9.98D-01 WtEn= 1.96D-03
 Coeff-Com: -0.829D-03-0.149D-01-0.478D-01 0.106D+01
 Coeff-En:   0.000D+00 0.000D+00 0.000D+00 0.100D+01
 Coeff:     -0.828D-03-0.148D-01-0.477D-01 0.106D+01
 Gap=     0.500 Goal=   None    Shift=    0.000
 RMSDP=2.27D-05 MaxDP=9.13D-04 DE=-3.31D-03 OVMax= 8.00D-04

 Cycle   5  Pass 1  IDiag  1:
 RMSU=  1.10D-05    CP:  1.03D+00  6.08D-01  9.57D-01  1.10D+00
 FoFJK:  IHMeth= 1 ICntrl=     0 DoSepK=T KAlg= 1 I1Cent= 0 FoldK=F
 E= -2753.87438306918     Delta-E=       -0.000009219866 Rises=F Damp=F
 DIIS: error= 1.87D-05 at cycle   5 NSaved=   5.
 NSaved= 5 IEnMin= 5 EnMin= -2753.87438306918     IErMin= 5 ErrMin= 1.87D-05
 ErrMax= 1.87D-05 EMaxC= 1.00D-01 BMatC= 3.87D-08 BMatP= 1.85D-05
 IDIUse=1 WtCom= 1.00D+00 WtEn= 0.00D+00
 Coeff-Com:  0.115D-03-0.926D-03-0.933D-02-0.234D-01 0.103D+01
 Coeff:      0.115D-03-0.926D-03-0.933D-02-0.234D-01 0.103D+01
 Gap=     0.500 Goal=   None    Shift=    0.000
 RMSDP=2.46D-06 MaxDP=1.11D-04 DE=-9.22D-06 OVMax= 1.85D-04

 Cycle   6  Pass 1  IDiag  1:
 RMSU=  8.68D-07    CP:  1.03D+00  6.08D-01  9.58D-01  1.13D+00  1.09D+00
 FoFJK:  IHMeth= 1 ICntrl=     0 DoSepK=T KAlg= 1 I1Cent= 0 FoldK=F
 E= -2753.87438318888     Delta-E=       -0.000000119702 Rises=F Damp=F
 DIIS: error= 4.07D-06 at cycle   6 NSaved=   6.
 NSaved= 6 IEnMin= 6 EnMin= -2753.87438318888     IErMin= 6 ErrMin= 4.07D-06
 ErrMax= 4.07D-06 EMaxC= 1.00D-01 BMatC= 4.17D-09 BMatP= 3.87D-08
 IDIUse=1 WtCom= 1.00D+00 WtEn= 0.00D+00
 Coeff-Com:  0.808D-05 0.203D-03 0.220D-03-0.364D-01 0.586D-01 0.977D+00
 Coeff:      0.808D-05 0.203D-03 0.220D-03-0.364D-01 0.586D-01 0.977D+00
 Gap=     0.500 Goal=   None    Shift=    0.000
 RMSDP=6.14D-07 MaxDP=2.69D-05 DE=-1.20D-07 OVMax= 2.82D-05

 Cycle   7  Pass 1  IDiag  1:
 RMSU=  1.05D-07    CP:  1.03D+00  6.08D-01  9.58D-01  1.13D+00  1.12D+00
                    CP:  1.19D+00
 FoFJK:  IHMeth= 1 ICntrl=     0 DoSepK=T KAlg= 1 I1Cent= 0 FoldK=F
 E= -2753.87438319328     Delta-E=       -0.000000004403 Rises=F Damp=F
 DIIS: error= 4.93D-07 at cycle   7 NSaved=   7.
 NSaved= 7 IEnMin= 7 EnMin= -2753.87438319328     IErMin= 7 ErrMin= 4.93D-07
 ErrMax= 4.93D-07 EMaxC= 1.00D-01 BMatC= 5.10D-11 BMatP= 4.17D-09
 IDIUse=1 WtCom= 1.00D+00 WtEn= 0.00D+00
 Coeff-Com:  0.463D-06 0.707D-04 0.207D-03-0.937D-02 0.268D-02 0.243D+00
 Coeff-Com:  0.764D+00
 Coeff:      0.463D-06 0.707D-04 0.207D-03-0.937D-02 0.268D-02 0.243D+00
 Coeff:      0.764D+00
 Gap=     0.500 Goal=   None    Shift=    0.000
 RMSDP=4.56D-08 MaxDP=1.42D-06 DE=-4.40D-09 OVMax= 2.98D-06

 Cycle   8  Pass 1  IDiag  1:
 RMSU=  2.00D-08    CP:  1.03D+00  6.08D-01  9.58D-01  1.13D+00  1.12D+00
                    CP:  1.22D+00  1.02D+00
 FoFJK:  IHMeth= 1 ICntrl=     0 DoSepK=T KAlg= 1 I1Cent= 0 FoldK=F
 E= -2753.87438319334     Delta-E=       -0.000000000060 Rises=F Damp=F
 DIIS: error= 7.27D-08 at cycle   8 NSaved=   8.
 NSaved= 8 IEnMin= 8 EnMin= -2753.87438319334     IErMin= 8 ErrMin= 7.27D-08
 ErrMax= 7.27D-08 EMaxC= 1.00D-01 BMatC= 1.57D-12 BMatP= 5.10D-11
 IDIUse=1 WtCom= 1.00D+00 WtEn= 0.00D+00
 Coeff-Com: -0.136D-06-0.358D-05 0.137D-04 0.154D-02-0.238D-02-0.427D-01
 Coeff-Com:  0.177D-01 0.103D+01
 Coeff:     -0.136D-06-0.358D-05 0.137D-04 0.154D-02-0.238D-02-0.427D-01
 Coeff:      0.177D-01 0.103D+01
 Gap=     0.500 Goal=   None    Shift=    0.000
 RMSDP=1.96D-08 MaxDP=7.60D-07 DE=-5.96D-11 OVMax= 5.59D-07

 Cycle   9  Pass 1  IDiag  1:
 RMSU=  3.55D-09    CP:  1.03D+00  6.08D-01  9.58D-01  1.13D+00  1.12D+00
                    CP:  1.23D+00  1.08D+00  1.14D+00
 FoFJK:  IHMeth= 1 ICntrl=     0 DoSepK=T KAlg= 1 I1Cent= 0 FoldK=F
 E= -2753.87438319334     Delta-E=        0.000000000003 Rises=F Damp=F
 DIIS: error= 9.73D-09 at cycle   9 NSaved=   9.
 NSaved= 9 IEnMin= 8 EnMin= -2753.87438319334     IErMin= 9 ErrMin= 9.73D-09
 ErrMax= 9.73D-09 EMaxC= 1.00D-01 BMatC= 7.25D-15 BMatP= 1.57D-12
 IDIUse=1 WtCom= 1.00D+00 WtEn= 0.00D+00
 Coeff-Com:  0.114D-07 0.171D-06-0.140D-05-0.138D-03 0.549D-04 0.471D-02
 Coeff-Com: -0.645D-02-0.154D+00 0.116D+01
 Coeff:      0.114D-07 0.171D-06-0.140D-05-0.138D-03 0.549D-04 0.471D-02
 Coeff:     -0.645D-02-0.154D+00 0.116D+01
 Gap=     0.500 Goal=   None    Shift=    0.000
 RMSDP=1.84D-09 MaxDP=8.15D-08 DE= 2.73D-12 OVMax= 9.81D-08

 SCF Done:  E(RwB97XD) =  -2753.87438319     A.U. after    9 cycles
             Convg  =    0.1839D-08             -V/T =  2.0013
 KE= 2.750251156794D+03 PE=-6.580188998229D+03 EE= 1.076063458242D+03
 Leave Link  502 at Sat May  9 16:26:11 2020, MaxMem= 1073741824 cpu:     322.0
 (Enter /home/matheus/.gaussian/g09/l601.exe)
 Copying SCF densities to generalized density rwf, IOpCl= 0 IROHF=0.

 **********************************************************************

            Population analysis using the SCF density.

 **********************************************************************

 Orbital symmetries:
       Occupied  (A) (A) (A) (A) (A) (A) (A) (A) (A) (A) (A) (A)
                 (A) (A) (A) (A) (A) (A)
       Virtual   (A) (A) (A) (A) (A) (A) (A) (A) (A) (A) (A) (A)
                 (A) (A) (A) (A) (A) (A) (A) (A) (A) (A) (A) (A)
                 (A) (A) (A) (A) (A) (A) (A) (A) (A) (A) (A) (A)
                 (A) (A) (A) (A) (A) (A) (A) (A) (A) (A) (A) (A)
                 (A) (A) (A) (A) (A) (A) (A) (A) (A) (A) (A) (A)
                 (A) (A) (A) (A) (A) (A) (A) (A) (A) (A) (A) (A)
                 (A) (A) (A) (A) (A) (A) (A) (A) (A) (A) (A) (A)
                 (A) (A) (A) (A) (A) (A) (A) (A) (A) (A) (A) (A)
                 (A) (A) (A) (A) (A) (A) (A) (A) (A) (A) (A) (A)
                 (A) (A) (A) (A) (A) (A) (A) (A) (A) (A) (A) (A)
                 (A) (A) (A) (A) (A) (A) (A) (A) (A) (A) (A) (A)
                 (A) (A) (A) (A) (A) (A) (A) (A) (A) (A) (A) (A)
                 (A) (A) (A) (A) (A) (A) (A) (A) (A) (A) (A) (A)
                 (A) (A) (A) (A) (A) (A) (A) (A) (A) (A) (A) (A)
                 (A) (A) (A) (A) (A) (A) (A) (A) (A) (A) (A)
 The electronic state is 1-A.
 Alpha  occ. eigenvalues -- -513.05939 -67.32602 -60.87479 -60.87478 -60.87478
 Alpha  occ. eigenvalues --   -9.77891  -7.47187  -7.47185  -7.47185  -3.33928
 Alpha  occ. eigenvalues --   -3.33928  -3.33928  -3.33927  -3.33927  -0.98487
 Alpha  occ. eigenvalues --   -0.46646  -0.46643  -0.46640
 Alpha virt. eigenvalues --    0.03357   0.05263   0.08782   0.09993   0.12468
 Alpha virt. eigenvalues --    0.13322   0.13887   0.14006   0.16231   0.17406
 Alpha virt. eigenvalues --    0.17957   0.18861   0.21079   0.25464   0.26159
 Alpha virt. eigenvalues --    0.26325   0.29278   0.30883   0.33044   0.36533
 Alpha virt. eigenvalues --    0.36962   0.38241   0.39082   0.39887   0.41886
 Alpha virt. eigenvalues --    0.41988   0.45248   0.52269   0.56279   0.57052
 Alpha virt. eigenvalues --    0.61216   0.64711   0.68705   0.69824   0.70953
 Alpha virt. eigenvalues --    0.71886   0.73461   0.74741   0.75016   0.76936
 Alpha virt. eigenvalues --    0.77918   0.82356   0.84383   0.85476   0.87995
 Alpha virt. eigenvalues --    0.88530   0.89853   0.91633   0.92421   0.96056
 Alpha virt. eigenvalues --    0.97461   0.98344   0.99081   1.00463   1.01535
 Alpha virt. eigenvalues --    1.03877   1.07671   1.09260   1.13429   1.14409
 Alpha virt. eigenvalues --    1.19426   1.22344   1.26402   1.32438   1.35380
 Alpha virt. eigenvalues --    1.38359   1.41213   1.43291   1.47271   1.52646
 Alpha virt. eigenvalues --    1.55748   1.58937   1.60978   1.74678   1.77300
 Alpha virt. eigenvalues --    1.84263   1.84346   1.86509   1.90129   2.14748
 Alpha virt. eigenvalues --    2.22255   2.22747   2.26456   2.27624   2.29999
 Alpha virt. eigenvalues --    2.31319   2.34179   2.36799   2.37806   2.41935
 Alpha virt. eigenvalues --    2.43716   2.46516   2.48317   2.49644   2.49977
 Alpha virt. eigenvalues --    2.51301   2.53253   2.57601   2.58415   2.59857
 Alpha virt. eigenvalues --    2.61823   2.64804   2.68259   2.68890   2.70084
 Alpha virt. eigenvalues --    2.75964   2.79827   2.80708   2.88854   2.91394
 Alpha virt. eigenvalues --    2.95277   2.99815   3.05631   3.11536   3.20136
 Alpha virt. eigenvalues --    3.24853   3.27292   3.31721   3.41590   3.49317
 Alpha virt. eigenvalues --    3.61498   3.65660   3.86014   3.88471   4.02818
 Alpha virt. eigenvalues --    4.43530   4.47443   4.53640   4.58963   4.69814
 Alpha virt. eigenvalues --    4.71818   4.86475   4.90299   4.98336   5.04280
 Alpha virt. eigenvalues --    5.16154   5.23984   5.59931   5.61236   5.74382
 Alpha virt. eigenvalues --    5.98064   6.03013   6.14493   6.76000   6.89987
 Alpha virt. eigenvalues --    7.34009   7.37341   7.64968   7.69690   7.77522
 Alpha virt. eigenvalues --    7.86386   8.01934   8.14938   8.19491   8.27347
 Alpha virt. eigenvalues --    8.27744   8.42352   8.68655   8.97823   9.52366
 Alpha virt. eigenvalues --    9.73186   9.81537   9.90842   9.94082   9.95179
 Alpha virt. eigenvalues --   10.20115  10.22865  10.65372  10.90587  11.53081
 Alpha virt. eigenvalues --   11.63204  11.71713  11.97891  12.02342  13.25251
 Alpha virt. eigenvalues --   13.62774  14.54664  62.43355  64.72666
          Condensed to atoms (all electrons):
              1          2          3          4          5
     1  O    0.001445  -0.000338  -0.001106   0.000522  -0.008546
     2  O   -0.000338   0.003872   0.000121  -0.003223  -0.003821
     3  H   -0.001106   0.000121   0.001735  -0.000177  -0.012480
     4  H    0.000522  -0.003223  -0.000177   0.003902  -0.019549
     5  Kr  -0.008546  -0.003821  -0.012480  -0.019549  36.086241
 Mulliken atomic charges:
              1
     1  O    0.008024
     2  O    0.003389
     3  H    0.011907
     4  H    0.018525
     5  Kr  -0.041845
 Sum of Mulliken atomic charges =   0.00000
 Mulliken charges with hydrogens summed into heavy atoms:
              1
     1  O    0.019930
     2  O    0.021915
     5  Kr  -0.041845
 Sum of Mulliken charges with hydrogens summed into heavy atoms =   0.00000
          Condensed to fragments (all electrons):
     1       0.041845
     2      -0.041845
 Electronic spatial extent (au):  <R**2>=            159.8746
 Charge=              0.0000 electrons
 Dipole moment (field-independent basis, Debye):
    X=              0.0007    Y=              0.0001    Z=             -0.0001  Tot=              0.0007
 Quadrupole moment (field-independent basis, Debye-Ang):
   XX=            -17.6255   YY=            -17.6393   ZZ=            -17.6490
   XY=              0.0010   XZ=              0.0029   YZ=             -0.0015
 Traceless Quadrupole moment (field-independent basis, Debye-Ang):
   XX=              0.0124   YY=             -0.0014   ZZ=             -0.0111
   XY=              0.0010   XZ=              0.0029   YZ=             -0.0015
 Octapole moment (field-independent basis, Debye-Ang**2):
  XXX=             51.1943  YYY=              0.0631  ZZZ=              0.1663  XYY=             17.0820
  XXY=              0.0187  XXZ=              0.0514  XZZ=             17.0879  YZZ=              0.0217
  YYZ=              0.0559  XYZ=              0.0004
 Hexadecapole moment (field-independent basis, Debye-Ang**3):
 XXXX=           -117.5418 YYYY=            -18.4435 ZZZZ=            -18.4674 XXXY=             -0.0573
 XXXZ=             -0.1536 YYYX=             -0.0586 YYYZ=              0.0003 ZZZX=             -0.1545
 ZZZY=             -0.0022 XXYY=            -22.6773 XXZZ=            -22.6853 YYZZ=             -6.1505
 XXYZ=             -0.0007 YYXZ=             -0.0521 ZZXY=             -0.0184
 N-N= 0.000000000000D+00 E-N=-6.580188999025D+03  KE= 2.750251156794D+03
 No NMR shielding tensors so no spin-rotation constants.
 Leave Link  601 at Sat May  9 16:26:11 2020, MaxMem= 1073741824 cpu:       1.1
 (Enter /home/matheus/.gaussian/g09/l122.exe)
 Counterpoise: doing MCBS calculation for fragment   1
 Leave Link  122 at Sat May  9 16:26:11 2020, MaxMem= 1073741824 cpu:       0.0
 (Enter /home/matheus/.gaussian/g09/l301.exe)
 Basis read from rwf:  (5D, 7F)
 No pseudopotential information found on rwf file.
 There are   138 symmetry adapted basis functions of A   symmetry.
 Integral buffers will be    131072 words long.
 Raffenetti 2 integral format.
 Two-electron integral symmetry is turned on.
   138 basis functions,   198 primitive gaussians,   160 cartesian basis functions
     9 alpha electrons        9 beta electrons
       nuclear repulsion energy        36.6600463863 Hartrees.
 IExCor= 4639 DFT=T Ex+Corr=wB97XD ExCW=0 ScaHFX=  1.000000
 ScaDFX=  1.000000  1.000000  1.000000  1.000000 ScalE2=  1.000000  1.000000
 IRadAn=      5 IRanWt=     -1 IRanGd=            0 ICorTp=0
  HFx wShort=  0.000000 wLong=  0.200000 cFull=  0.222036 cShort=  0.000000 cLong=  0.777964
  DFx wShort=  0.000000 wLong=  0.200000 cFull=  0.000000 cShort=  0.000000 cLong=  1.000000
 NAtoms=    5 NActive=    4 NUniq=    4 SFac= 1.00D+00 NAtFMM=   60 NAOKFM=F Big=F
 R6Disp: Dispersion energy =        -0.0002307925 Hartrees.
 Nuclear repulsion after empirical dispersion term =       36.6598155938 Hartrees.
 No density basis found on file   718.
 Leave Link  301 at Sat May  9 16:26:11 2020, MaxMem= 1073741824 cpu:       0.3
 (Enter /home/matheus/.gaussian/g09/l302.exe)
 NPDir=0 NMtPBC=     1 NCelOv=     1 NCel=       1 NClECP=     1 NCelD=      1
         NCelK=      1 NCelE2=     1 NClLst=     1 CellRange=     0.0.
 One-electron integrals computed using PRISM.
 NBasis=   138 RedAO= T  NBF=   138
 NBsUse=   138 1.00D-06 NBFU=   138
 Precomputing XC quadrature grid using
 IXCGrd= 2 IRadAn=           5 IRanWt=          -1 IRanGd=           0 AccXCQ= 0.00D+00.
 NRdTot=     344 NPtTot=       92556 NUsed=       95038 NTot=       95070
 NSgBfM=   160   160   160   160   160 NAtAll=     4     4.
 Leave Link  302 at Sat May  9 16:26:11 2020, MaxMem= 1073741824 cpu:       0.9
 (Enter /home/matheus/.gaussian/g09/l303.exe)
 DipDrv:  MaxL=1.
 Leave Link  303 at Sat May  9 16:26:11 2020, MaxMem= 1073741824 cpu:       0.2
 (Enter /home/matheus/.gaussian/g09/l401.exe)
 Harris functional with IExCor= 4639 diagonalized for initial guess.
 ExpMin= 2.53D-02 ExpMax= 1.53D+04 ExpMxC= 5.22D+02 IAcc=3 IRadAn=         5 AccDes= 0.00D+00
 HarFok:  IExCor= 4639 AccDes= 0.00D+00 IRadAn=         5 IDoV= 1
 ScaDFX=  1.000000  1.000000  1.000000  1.000000
 FoFCou: FMM=F IPFlag=           0 FMFlag=      100000 FMFlg1=           0
         NFxFlg=           0 DoJE=T BraDBF=F KetDBF=T FulRan=T
         Omega=  0.000000  0.000000  1.000000  0.000000  0.000000 ICntrl=     500 IOpCl=  0
         NMat0=    1 NMatS0=    1 NMatT0=    0 NMatD0=    1 NMtDS0=    0 NMtDT0=    0
         I1Cent=           4 NGrid=           0.
 Petite list used in FoFCou.
 Harris En= -146.291682105704    
 Initial guess orbital symmetries:
       Occupied  (A) (A) (A) (A) (A) (A) (A) (A) (A)
       Virtual   (A) (A) (A) (A) (A) (A) (A) (A) (A) (A) (A) (A)
                 (A) (A) (A) (A) (A) (A) (A) (A) (A) (A) (A) (A)
                 (A) (A) (A) (A) (A) (A) (A) (A) (A) (A) (A) (A)
                 (A) (A) (A) (A) (A) (A) (A) (A) (A) (A) (A) (A)
                 (A) (A) (A) (A) (A) (A) (A) (A) (A) (A) (A) (A)
                 (A) (A) (A) (A) (A) (A) (A) (A) (A) (A) (A) (A)
                 (A) (A) (A) (A) (A) (A) (A) (A) (A) (A) (A) (A)
                 (A) (A) (A) (A) (A) (A) (A) (A) (A) (A) (A) (A)
                 (A) (A) (A) (A) (A) (A) (A) (A) (A) (A) (A) (A)
                 (A) (A) (A) (A) (A) (A) (A) (A) (A) (A) (A) (A)
                 (A) (A) (A) (A) (A) (A) (A) (A) (A)
 The electronic state of the initial guess is 1-A.
 Leave Link  401 at Sat May  9 16:26:12 2020, MaxMem= 1073741824 cpu:       2.6
 (Enter /home/matheus/.gaussian/g09/l502.exe)
 Closed shell SCF:
 Requested convergence on RMS density matrix=1.00D-08 within 128 cycles.
 Requested convergence on MAX density matrix=1.00D-06.
 Requested convergence on             energy=1.00D-06.
 No special actions if energy rises.
 Using DIIS extrapolation, IDIIS=  1040.
 Integral symmetry usage will be decided dynamically.
        94980 words used for storage of precomputed grid.
 IEnd=      192360 IEndB=      192360 NGot=  1073741824 MDV=  1073591865
 LenX=  1073591865 LenY=  1073565824
 Fock matrices will be formed incrementally for  20 cycles.

 Cycle   1  Pass 1  IDiag  1:
 FoFJK:  IHMeth= 1 ICntrl=     0 DoSepK=T KAlg= 1 I1Cent= 0 FoldK=F
 FoFCou: FMM=F IPFlag=           0 FMFlag=      100000 FMFlg1=           0
         NFxFlg=           0 DoJE=T BraDBF=F KetDBF=F FulRan=T
         Omega=  0.000000  0.000000  1.000000  0.000000  0.000000 ICntrl=     500 IOpCl=  0
         NMat0=    1 NMatS0=    1 NMatT0=    0 NMatD0=    1 NMtDS0=    0 NMtDT0=    0
         I1Cent=           0 NGrid=           0.
 Symmetry not used in FoFCou.
 E= -151.472793535881    
 DIIS: error= 5.61D-02 at cycle   1 NSaved=   1.
 NSaved= 1 IEnMin= 1 EnMin= -151.472793535881     IErMin= 1 ErrMin= 5.61D-02
 ErrMax= 5.61D-02 EMaxC= 1.00D-01 BMatC= 2.98D-01 BMatP= 2.98D-01
 IDIUse=3 WtCom= 4.39D-01 WtEn= 5.61D-01
 Coeff-Com:  0.100D+01
 Coeff-En:   0.100D+01
 Coeff:      0.100D+01
 Gap=     0.492 Goal=   None    Shift=    0.000
 GapD=    0.492 DampG=2.000 DampE=0.500 DampFc=1.0000 IDamp=-1.
 RMSDP=3.44D-03 MaxDP=1.05D-01              OVMax= 1.08D-01

 Cycle   2  Pass 1  IDiag  1:
 RMSU=  2.38D-03    CP:  9.49D-01
 FoFJK:  IHMeth= 1 ICntrl=     0 DoSepK=T KAlg= 1 I1Cent= 0 FoldK=F
 E= -151.505664313049     Delta-E=       -0.032870777168 Rises=F Damp=F
 DIIS: error= 2.77D-02 at cycle   2 NSaved=   2.
 NSaved= 2 IEnMin= 2 EnMin= -151.505664313049     IErMin= 2 ErrMin= 2.77D-02
 ErrMax= 2.77D-02 EMaxC= 1.00D-01 BMatC= 8.53D-02 BMatP= 2.98D-01
 IDIUse=3 WtCom= 7.23D-01 WtEn= 2.77D-01
 Coeff-Com:  0.325D+00 0.675D+00
 Coeff-En:   0.343D+00 0.657D+00
 Coeff:      0.330D+00 0.670D+00
 Gap=     0.442 Goal=   None    Shift=    0.000
 RMSDP=1.47D-03 MaxDP=4.83D-02 DE=-3.29D-02 OVMax= 6.02D-02

 Cycle   3  Pass 1  IDiag  1:
 RMSU=  5.34D-04    CP:  9.72D-01  6.38D-01
 FoFJK:  IHMeth= 1 ICntrl=     0 DoSepK=T KAlg= 1 I1Cent= 0 FoldK=F
 E= -151.550578969001     Delta-E=       -0.044914655952 Rises=F Damp=F
 DIIS: error= 8.08D-03 at cycle   3 NSaved=   3.
 NSaved= 3 IEnMin= 3 EnMin= -151.550578969001     IErMin= 3 ErrMin= 8.08D-03
 ErrMax= 8.08D-03 EMaxC= 1.00D-01 BMatC= 7.30D-03 BMatP= 8.53D-02
 IDIUse=3 WtCom= 9.19D-01 WtEn= 8.08D-02
 Coeff-Com:  0.188D-01 0.237D+00 0.744D+00
 Coeff-En:   0.000D+00 0.000D+00 0.100D+01
 Coeff:      0.173D-01 0.218D+00 0.765D+00
[...]
         NMat0=    1 NMatS0=    1 NMatT0=    0 NMatD0=    1 NMtDS0=    0 NMtDT0=    0
         I1Cent=           0 NGrid=           0.
 Symmetry not used in FoFCou.
 E= -2753.87423928354    
 DIIS: error= 1.68D-04 at cycle   1 NSaved=   1.
 NSaved= 1 IEnMin= 1 EnMin= -2753.87423928354     IErMin= 1 ErrMin= 1.68D-04
 ErrMax= 1.68D-04 EMaxC= 1.00D-01 BMatC= 3.89D-06 BMatP= 3.89D-06
 IDIUse=3 WtCom= 9.98D-01 WtEn= 1.68D-03
 Coeff-Com:  0.100D+01
 Coeff-En:   0.100D+01
 Coeff:      0.100D+01
 Gap=     0.498 Goal=   None    Shift=    0.000
 RMSDP=1.52D-05 MaxDP=6.96D-04              OVMax= 3.90D-04

 Cycle   2  Pass 1  IDiag  1:
 RMSU=  1.07D-05    CP:  1.00D+00
 FoFJK:  IHMeth= 1 ICntrl=     0 DoSepK=T KAlg= 1 I1Cent= 0 FoldK=F
 E= -2753.87423998898     Delta-E=       -0.000000705448 Rises=F Damp=F
 DIIS: error= 6.13D-06 at cycle   2 NSaved=   2.
 NSaved= 2 IEnMin= 2 EnMin= -2753.87423998898     IErMin= 2 ErrMin= 6.13D-06
 ErrMax= 6.13D-06 EMaxC= 1.00D-01 BMatC= 5.35D-09 BMatP= 3.89D-06
 IDIUse=1 WtCom= 1.00D+00 WtEn= 0.00D+00
 Coeff-Com: -0.122D-01 0.101D+01
 Coeff:     -0.122D-01 0.101D+01
 Gap=     0.498 Goal=   None    Shift=    0.000
 RMSDP=1.34D-06 MaxDP=5.87D-05 DE=-7.05D-07 OVMax= 5.85D-05

 Cycle   3  Pass 1  IDiag  1:
 RMSU=  5.31D-07    CP:  1.00D+00  1.07D+00
 FoFJK:  IHMeth= 1 ICntrl=     0 DoSepK=T KAlg= 1 I1Cent= 0 FoldK=F
 E= -2753.87423999873     Delta-E=       -0.000000009748 Rises=F Damp=F
 DIIS: error= 9.62D-07 at cycle   3 NSaved=   3.
 NSaved= 3 IEnMin= 3 EnMin= -2753.87423999873     IErMin= 3 ErrMin= 9.62D-07
 ErrMax= 9.62D-07 EMaxC= 1.00D-01 BMatC= 1.60D-10 BMatP= 5.35D-09
 IDIUse=1 WtCom= 1.00D+00 WtEn= 0.00D+00
 Coeff-Com: -0.271D-03-0.789D-01 0.108D+01
 Coeff:     -0.271D-03-0.789D-01 0.108D+01
 Gap=     0.498 Goal=   None    Shift=    0.000
 RMSDP=1.94D-07 MaxDP=7.29D-06 DE=-9.75D-09 OVMax= 1.13D-05

 Cycle   4  Pass 1  IDiag  1:
 RMSU=  5.42D-08    CP:  1.00D+00  1.08D+00  1.23D+00
 FoFJK:  IHMeth= 1 ICntrl=     0 DoSepK=T KAlg= 1 I1Cent= 0 FoldK=F
 E= -2753.87423999897     Delta-E=       -0.000000000243 Rises=F Damp=F
 DIIS: error= 5.69D-07 at cycle   4 NSaved=   4.
 NSaved= 4 IEnMin= 4 EnMin= -2753.87423999897     IErMin= 4 ErrMin= 5.69D-07
 ErrMax= 5.69D-07 EMaxC= 1.00D-01 BMatC= 2.68D-11 BMatP= 1.60D-10
 IDIUse=1 WtCom= 1.00D+00 WtEn= 0.00D+00
 Coeff-Com:  0.253D-03-0.517D-01 0.321D+00 0.730D+00
 Coeff:      0.253D-03-0.517D-01 0.321D+00 0.730D+00
 Gap=     0.498 Goal=   None    Shift=    0.000
 RMSDP=2.95D-08 MaxDP=1.02D-06 DE=-2.43D-10 OVMax= 1.93D-06

 Cycle   5  Pass 1  IDiag  1:
 RMSU=  1.20D-08    CP:  1.00D+00  1.08D+00  1.26D+00  1.01D+00
 FoFJK:  IHMeth= 1 ICntrl=     0 DoSepK=T KAlg= 1 I1Cent= 0 FoldK=F
 E= -2753.87423999900     Delta-E=       -0.000000000024 Rises=F Damp=F
 DIIS: error= 4.00D-08 at cycle   5 NSaved=   5.
 NSaved= 5 IEnMin= 5 EnMin= -2753.87423999900     IErMin= 5 ErrMin= 4.00D-08
 ErrMax= 4.00D-08 EMaxC= 1.00D-01 BMatC= 1.69D-13 BMatP= 2.68D-11
 IDIUse=1 WtCom= 1.00D+00 WtEn= 0.00D+00
 Coeff-Com: -0.113D-04 0.485D-02-0.435D-01-0.378D-01 0.108D+01
 Coeff:     -0.113D-04 0.485D-02-0.435D-01-0.378D-01 0.108D+01
 Gap=     0.498 Goal=   None    Shift=    0.000
 RMSDP=1.03D-08 MaxDP=4.71D-07 DE=-2.41D-11 OVMax= 4.12D-07

 Cycle   6  Pass 1  IDiag  1:
 RMSU=  1.20D-09    CP:  1.00D+00  1.08D+00  1.27D+00  1.07D+00  1.16D+00
 FoFJK:  IHMeth= 1 ICntrl=     0 DoSepK=T KAlg= 1 I1Cent= 0 FoldK=F
 E= -2753.87423999900     Delta-E=       -0.000000000005 Rises=F Damp=F
 DIIS: error= 1.04D-08 at cycle   6 NSaved=   6.
 NSaved= 6 IEnMin= 6 EnMin= -2753.87423999900     IErMin= 6 ErrMin= 1.04D-08
 ErrMax= 1.04D-08 EMaxC= 1.00D-01 BMatC= 2.28D-14 BMatP= 1.69D-13
 IDIUse=1 WtCom= 1.00D+00 WtEn= 0.00D+00
 Coeff-Com: -0.120D-04 0.331D-02-0.248D-01-0.355D-01 0.339D+00 0.718D+00
 Coeff:     -0.120D-04 0.331D-02-0.248D-01-0.355D-01 0.339D+00 0.718D+00
 Gap=     0.498 Goal=   None    Shift=    0.000
 RMSDP=9.75D-10 MaxDP=4.22D-08 DE=-5.00D-12 OVMax= 5.81D-08

 SCF Done:  E(RwB97XD) =  -2753.87424000     A.U. after    6 cycles
             Convg  =    0.9754D-09             -V/T =  2.0013
 KE= 2.750294929541D+03 PE=-6.580235557054D+03 EE= 1.076066387514D+03
 Leave Link  502 at Sat May  9 16:56:13 2020, MaxMem= 1073741824 cpu:     134.9
 (Enter /home/matheus/.gaussian/g09/l122.exe)
 Restoring MOs from calculation   4 to rwf.
 Counterpoise: doing MCBS calculation for fragment   1
 Leave Link  122 at Sat May  9 16:56:13 2020, MaxMem= 1073741824 cpu:       0.0
 (Enter /home/matheus/.gaussian/g09/l301.exe)
 Basis read from rwf:  (5D, 7F)
 No pseudopotential information found on rwf file.
 There are   138 symmetry adapted basis functions of A   symmetry.
 Integral buffers will be    131072 words long.
 Raffenetti 2 integral format.
 Two-electron integral symmetry is turned on.
   138 basis functions,   198 primitive gaussians,   160 cartesian basis functions
     9 alpha electrons        9 beta electrons
       nuclear repulsion energy        36.6600463863 Hartrees.
 IExCor= 4639 DFT=T Ex+Corr=wB97XD ExCW=0 ScaHFX=  1.000000
 ScaDFX=  1.000000  1.000000  1.000000  1.000000 ScalE2=  1.000000  1.000000
 IRadAn=      5 IRanWt=     -1 IRanGd=            0 ICorTp=0
  HFx wShort=  0.000000 wLong=  0.200000 cFull=  0.222036 cShort=  0.000000 cLong=  0.777964
  DFx wShort=  0.000000 wLong=  0.200000 cFull=  0.000000 cShort=  0.000000 cLong=  1.000000
 NAtoms=    5 NActive=    4 NUniq=    4 SFac= 1.00D+00 NAtFMM=   60 NAOKFM=F Big=F
 R6Disp: Dispersion energy =        -0.0002307925 Hartrees.
 Nuclear repulsion after empirical dispersion term =       36.6598155938 Hartrees.
 No density basis found on file   718.
 Leave Link  301 at Sat May  9 16:56:13 2020, MaxMem= 1073741824 cpu:       0.2
 (Enter /home/matheus/.gaussian/g09/l302.exe)
 NPDir=0 NMtPBC=     1 NCelOv=     1 NCel=       1 NClECP=     1 NCelD=      1
         NCelK=      1 NCelE2=     1 NClLst=     1 CellRange=     0.0.
 One-electron integrals computed using PRISM.
 NBasis=   138 RedAO= T  NBF=   138
 NBsUse=   138 1.00D-06 NBFU=   138
 Precomputing XC quadrature grid using
 IXCGrd= 2 IRadAn=           5 IRanWt=          -1 IRanGd=           0 AccXCQ= 0.00D+00.
 NRdTot=     344 NPtTot=       92556 NUsed=       95038 NTot=       95070
 NSgBfM=   160   160   160   160   160 NAtAll=     4     4.
 Leave Link  302 at Sat May  9 16:56:13 2020, MaxMem= 1073741824 cpu:       0.9
 (Enter /home/matheus/.gaussian/g09/l303.exe)
 DipDrv:  MaxL=1.
 Leave Link  303 at Sat May  9 16:56:13 2020, MaxMem= 1073741824 cpu:       0.3
 (Enter /home/matheus/.gaussian/g09/l401.exe)
 Initial guess read from the read-write file.
 Guess basis will be translated and rotated to current coordinates.
 Initial guess orbital symmetries:
       Occupied  (A) (A) (A) (A) (A) (A) (A) (A) (A)
       Virtual   (A) (A) (A) (A) (A) (A) (A) (A) (A) (A) (A) (A)
                 (A) (A) (A) (A) (A) (A) (A) (A) (A) (A) (A) (A)
                 (A) (A) (A) (A) (A) (A) (A) (A) (A) (A) (A) (A)
                 (A) (A) (A) (A) (A) (A) (A) (A) (A) (A) (A) (A)
                 (A) (A) (A) (A) (A) (A) (A) (A) (A) (A) (A) (A)
                 (A) (A) (A) (A) (A) (A) (A) (A) (A) (A) (A) (A)
                 (A) (A) (A) (A) (A) (A) (A) (A) (A) (A) (A) (A)
                 (A) (A) (A) (A) (A) (A) (A) (A) (A) (A) (A) (A)
                 (A) (A) (A) (A) (A) (A) (A) (A) (A) (A) (A) (A)
                 (A) (A) (A) (A) (A) (A) (A) (A) (A) (A) (A) (A)
                 (A) (A) (A) (A) (A) (A) (A) (A) (A)
 The electronic state of the initial guess is 1-A.
 Generating alternative initial guess.
 Harris functional with IExCor= 4639 diagonalized for initial guess.
 ExpMin= 2.53D-02 ExpMax= 1.53D+04 ExpMxC= 5.22D+02 IAcc=3 IRadAn=         5 AccDes= 0.00D+00
 HarFok:  IExCor= 4639 AccDes= 0.00D+00 IRadAn=         5 IDoV= 1
 ScaDFX=  1.000000  1.000000  1.000000  1.000000
 FoFCou: FMM=F IPFlag=           0 FMFlag=      100000 FMFlg1=           0
         NFxFlg=           0 DoJE=T BraDBF=F KetDBF=T FulRan=T
         Omega=  0.000000  0.000000  1.000000  0.000000  0.000000 ICntrl=     500 IOpCl=  0
         NMat0=    1 NMatS0=    1 NMatT0=    0 NMatD0=    1 NMtDS0=    0 NMtDT0=    0
         I1Cent=           4 NGrid=           0.
 Petite list used in FoFCou.
 Harris En= -146.291682106228    
 Leave Link  401 at Sat May  9 16:56:13 2020, MaxMem= 1073741824 cpu:       2.6
 (Enter /home/matheus/.gaussian/g09/l502.exe)
 Closed shell SCF:
 Requested convergence on RMS density matrix=1.00D-08 within 128 cycles.
 Requested convergence on MAX density matrix=1.00D-06.
 Requested convergence on             energy=1.00D-06.
 No special actions if energy rises.
 Using DIIS extrapolation, IDIIS=  1040.
 Integral symmetry usage will be decided dynamically.
        94980 words used for storage of precomputed grid.
 IEnd=      192360 IEndB=      192360 NGot=  1073741824 MDV=  1073591865
 LenX=  1073591865 LenY=  1073565824
 Fock matrices will be formed incrementally for  20 cycles.

 Cycle   1  Pass 1  IDiag  1:
 FoFJK:  IHMeth= 1 ICntrl=     0 DoSepK=T KAlg= 1 I1Cent= 0 FoldK=F
 FoFCou: FMM=F IPFlag=           0 FMFlag=      100000 FMFlg1=           0
         NFxFlg=           0 DoJE=T BraDBF=F KetDBF=F FulRan=T
         Omega=  0.000000  0.000000  1.000000  0.000000  0.000000 ICntrl=     500 IOpCl=  0
         NMat0=    1 NMatS0=    1 NMatT0=    0 NMatD0=    1 NMtDS0=    0 NMtDT0=    0
         I1Cent=           0 NGrid=           0.
 Symmetry not used in FoFCou.
 E= -151.555404722327    
 DIIS: error= 2.60D-06 at cycle   1 NSaved=   1.
 NSaved= 1 IEnMin= 1 EnMin= -151.555404722327     IErMin= 1 ErrMin= 2.60D-06
 ErrMax= 2.60D-06 EMaxC= 1.00D-01 BMatC= 1.22D-09 BMatP= 1.22D-09
 IDIUse=1 WtCom= 1.00D+00 WtEn= 0.00D+00
 Coeff-Com:  0.100D+01
 Coeff:      0.100D+01
 Gap=     0.385 Goal=   None    Shift=    0.000
 RMSDP=2.70D-07 MaxDP=6.63D-06              OVMax= 1.08D-05

 Cycle   2  Pass 1  IDiag  1:
 RMSU=  1.91D-07    CP:  1.00D+00
 FoFJK:  IHMeth= 1 ICntrl=     0 DoSepK=T KAlg= 1 I1Cent= 0 FoldK=F
 E= -151.555404723582     Delta-E=       -0.000000001256 Rises=F Damp=F
 DIIS: error= 5.15D-07 at cycle   2 NSaved=   2.
 NSaved= 2 IEnMin= 2 EnMin= -151.555404723582     IErMin= 2 ErrMin= 5.15D-07
 ErrMax= 5.15D-07 EMaxC= 1.00D-01 BMatC= 4.16D-11 BMatP= 1.22D-09
 IDIUse=1 WtCom= 1.00D+00 WtEn= 0.00D+00
 Coeff-Com: -0.912D-01 0.109D+01
 Coeff:     -0.912D-01 0.109D+01
 Gap=     0.385 Goal=   None    Shift=    0.000
 RMSDP=6.91D-08 MaxDP=2.09D-06 DE=-1.26D-09 OVMax= 2.89D-06

 Cycle   3  Pass 1  IDiag  1:
 RMSU=  2.35D-08    CP:  1.00D+00  1.22D+00
 FoFJK:  IHMeth= 1 ICntrl=     0 DoSepK=T KAlg= 1 I1Cent= 0 FoldK=F
 E= -151.555404723646     Delta-E=       -0.000000000063 Rises=F Damp=F
 DIIS: error= 1.68D-07 at cycle   3 NSaved=   3.
 NSaved= 3 IEnMin= 3 EnMin= -151.555404723646     IErMin= 3 ErrMin= 1.68D-07
 ErrMax= 1.68D-07 EMaxC= 1.00D-01 BMatC= 3.87D-12 BMatP= 4.16D-11
 IDIUse=1 WtCom= 1.00D+00 WtEn= 0.00D+00
 Coeff-Com: -0.288D-01 0.161D+00 0.868D+00
 Coeff:     -0.288D-01 0.161D+00 0.868D+00
 Gap=     0.385 Goal=   None    Shift=    0.000
 RMSDP=1.72D-08 MaxDP=4.29D-07 DE=-6.33D-11 OVMax= 9.21D-07

 Cycle   4  Pass 1  IDiag  1:
 RMSU=  7.83D-09    CP:  1.00D+00  1.27D+00  1.09D+00
 FoFJK:  IHMeth= 1 ICntrl=     0 DoSepK=T KAlg= 1 I1Cent= 0 FoldK=F
 E= -151.555404723649     Delta-E=       -0.000000000003 Rises=F Damp=F
 DIIS: error= 1.54D-07 at cycle   4 NSaved=   4.
 NSaved= 4 IEnMin= 4 EnMin= -151.555404723649     IErMin= 4 ErrMin= 1.54D-07
 ErrMax= 1.54D-07 EMaxC= 1.00D-01 BMatC= 2.56D-12 BMatP= 3.87D-12
 IDIUse=1 WtCom= 1.00D+00 WtEn= 0.00D+00
 Coeff-Com: -0.704D-02-0.854D-02 0.452D+00 0.564D+00
 Coeff:     -0.704D-02-0.854D-02 0.452D+00 0.564D+00
 Gap=     0.385 Goal=   None    Shift=    0.000
 RMSDP=8.05D-09 MaxDP=2.38D-07 DE=-3.41D-12 OVMax= 5.67D-07

 SCF Done:  E(RwB97XD) =  -151.555404724     A.U. after    4 cycles
             Convg  =    0.8055D-08             -V/T =  2.0057
 KE= 1.506959545042D+02 PE=-4.317917962329D+02 EE= 9.288062141121D+01
 Leave Link  502 at Sat May  9 16:56:18 2020, MaxMem= 1073741824 cpu:      33.6
 (Enter /home/matheus/.gaussian/g09/l122.exe)
 Restoring MOs from calculation   5 to rwf.
 Counterpoise: doing MCBS calculation for fragment   2
 Leave Link  122 at Sat May  9 16:56:18 2020, MaxMem= 1073741824 cpu:       0.0
 (Enter /home/matheus/.gaussian/g09/l301.exe)
 Basis read from rwf:  (5D, 7F)
 No pseudopotential information found on rwf file.
 There are    59 symmetry adapted basis functions of A   symmetry.
 Integral buffers will be    131072 words long.
 Raffenetti 2 integral format.
 Two-electron integral symmetry is turned on.
    59 basis functions,   217 primitive gaussians,    69 cartesian basis functions
    18 alpha electrons       18 beta electrons
       nuclear repulsion energy         0.0000000000 Hartrees.
 IExCor= 4639 DFT=T Ex+Corr=wB97XD ExCW=0 ScaHFX=  1.000000
 ScaDFX=  1.000000  1.000000  1.000000  1.000000 ScalE2=  1.000000  1.000000
 IRadAn=      5 IRanWt=     -1 IRanGd=            0 ICorTp=0
  HFx wShort=  0.000000 wLong=  0.200000 cFull=  0.222036 cShort=  0.000000 cLong=  0.777964
  DFx wShort=  0.000000 wLong=  0.200000 cFull=  0.000000 cShort=  0.000000 cLong=  1.000000
 NAtoms=    5 NActive=    1 NUniq=    1 SFac= 1.00D+00 NAtFMM=   60 NAOKFM=F Big=F
 R6Disp: Dispersion energy =         0.0000000000 Hartrees.
 Nuclear repulsion after empirical dispersion term =        0.0000000000 Hartrees.
 No density basis found on file   718.
 Leave Link  301 at Sat May  9 16:56:18 2020, MaxMem= 1073741824 cpu:       0.2
 (Enter /home/matheus/.gaussian/g09/l302.exe)
 NPDir=0 NMtPBC=     1 NCelOv=     1 NCel=       1 NClECP=     1 NCelD=      1
         NCelK=      1 NCelE2=     1 NClLst=     1 CellRange=     0.0.
 One-electron integrals computed using PRISM.
 NBasis=    59 RedAO= T  NBF=    59
 NBsUse=    59 1.00D-06 NBFU=    59
 Precomputing XC quadrature grid using
 IXCGrd= 2 IRadAn=           5 IRanWt=          -1 IRanGd=           0 AccXCQ= 0.00D+00.
 NRdTot=      81 NPtTot=       30352 NUsed=       30981 NTot=       31013
 NSgBfM=    69    69    69    69    69 NAtAll=     1     1.
 Leave Link  302 at Sat May  9 16:56:18 2020, MaxMem= 1073741824 cpu:       0.7
 (Enter /home/matheus/.gaussian/g09/l303.exe)
 DipDrv:  MaxL=1.
 Leave Link  303 at Sat May  9 16:56:18 2020, MaxMem= 1073741824 cpu:       0.2
 (Enter /home/matheus/.gaussian/g09/l401.exe)
 Initial guess read from the read-write file.
 Guess basis will be translated and rotated to current coordinates.
 Initial guess orbital symmetries:
       Occupied  (A) (A) (A) (A) (A) (A) (A) (A) (A) (A) (A) (A)
                 (A) (A) (A) (A) (A) (A)
       Virtual   (A) (A) (A) (A) (A) (A) (A) (A) (A) (A) (A) (A)
                 (A) (A) (A) (A) (A) (A) (A) (A) (A) (A) (A) (A)
                 (A) (A) (A) (A) (A) (A) (A) (A) (A) (A) (A) (A)
                 (A) (A) (A) (A) (A)
 The electronic state of the initial guess is 1-A.
 Generating alternative initial guess.
 Harris functional with IExCor= 4639 diagonalized for initial guess.
 ExpMin= 4.00D-02 ExpMax= 1.17D+07 ExpMxC= 1.33D+04 IAcc=3 IRadAn=         5 AccDes= 0.00D+00
 HarFok:  IExCor= 4639 AccDes= 0.00D+00 IRadAn=         5 IDoV= 1
 ScaDFX=  1.000000  1.000000  1.000000  1.000000
 FoFCou: FMM=F IPFlag=           0 FMFlag=      100000 FMFlg1=           0
         NFxFlg=           0 DoJE=T BraDBF=F KetDBF=T FulRan=T
         Omega=  0.000000  0.000000  1.000000  0.000000  0.000000 ICntrl=     500 IOpCl=  0
         NMat0=    1 NMatS0=    1 NMatT0=    0 NMatD0=    1 NMtDS0=    0 NMtDT0=    0
         I1Cent=           4 NGrid=           0.
 Petite list used in FoFCou.
 Harris En= -2730.20235208354    
 Leave Link  401 at Sat May  9 16:56:18 2020, MaxMem= 1073741824 cpu:       1.1
 (Enter /home/matheus/.gaussian/g09/l502.exe)
 Closed shell SCF:
 Requested convergence on RMS density matrix=1.00D-08 within 128 cycles.
 Requested convergence on MAX density matrix=1.00D-06.
 Requested convergence on             energy=1.00D-06.
 No special actions if energy rises.
 Using DIIS extrapolation, IDIIS=  1040.
 Integral symmetry usage will be decided dynamically.
        30923 words used for storage of precomputed grid.
 IEnd=       64406 IEndB=       64406 NGot=  1073741824 MDV=  1073698889
 LenX=  1073698889 LenY=  1073693687
 Fock matrices will be formed incrementally for  20 cycles.

 Cycle   1  Pass 1  IDiag  1:
 FoFJK:  IHMeth= 1 ICntrl=     0 DoSepK=T KAlg= 1 I1Cent= 0 FoldK=F
 FoFCou: FMM=F IPFlag=           0 FMFlag=      100000 FMFlg1=           0
         NFxFlg=           0 DoJE=T BraDBF=F KetDBF=F FulRan=T
         Omega=  0.000000  0.000000  1.000000  0.000000  0.000000 ICntrl=     500 IOpCl=  0
         NMat0=    1 NMatS0=    1 NMatT0=    0 NMatD0=    1 NMtDS0=    0 NMtDT0=    0
         I1Cent=           0 NGrid=           0.
 Symmetry not used in FoFCou.
 E= -2753.87421986326    
 DIIS: error= 9.81D-14 at cycle   1 NSaved=   1.
 NSaved= 1 IEnMin= 1 EnMin= -2753.87421986326     IErMin= 1 ErrMin= 9.81D-14
 ErrMax= 9.81D-14 EMaxC= 1.00D-01 BMatC= 9.54D-25 BMatP= 9.54D-25
 IDIUse=1 WtCom= 1.00D+00 WtEn= 0.00D+00
 Coeff-Com:  0.100D+01
 Coeff:      0.100D+01
 Gap=     0.562 Goal=   None    Shift=    0.000
 DSYEVD returned Info=          89 IAlg= 4 N=    59 NDim=    59 NE2=    18198197 trying DSYEV.
 RMSDP=1.34D-14 MaxDP=2.02D-13              OVMax= 1.36D-13

 SCF Done:  E(RwB97XD) =  -2753.87421986     A.U. after    1 cycles
             Convg  =    0.1340D-13             -V/T =  2.0013
 KE= 2.750300381543D+03 PE=-6.580241205809D+03 EE= 1.076066604402D+03
 Leave Link  502 at Sat May  9 16:56:20 2020, MaxMem= 1073741824 cpu:      13.4
 (Enter /home/matheus/.gaussian/g09/l122.exe)
 Restoring MOs from calculation   1 to rwf.
 Counterpoise: corrected energy =   -2905.430050852674
 Counterpoise: BSSE energy =       0.000023861630
 Leave Link  122 at Sat May  9 16:56:20 2020, MaxMem= 1073741824 cpu:       0.0
 (Enter /home/matheus/.gaussian/g09/l108.exe)
 Scan completed.

 Summary of the potential surface scan:
   N      R1          SCF    
 ----  ---------  -----------
    1     3.0000  -2753.87422
    2     3.1000  -2753.87422
    3     3.2000  -2753.87422
    4     3.3000  -2753.87422
    5     3.4000  -2753.87422
    6     3.5000  -2753.87422
    7     3.6000  -2753.87422
    8     3.7000  -2753.87422
    9     3.8000  -2753.87422
   10     3.9000  -2753.87422
   11     4.0000  -2753.87422
   12     4.1000  -2753.87422
   13     4.2000  -2753.87422
   14     4.3000  -2753.87422
   15     4.4000  -2753.87422
   16     4.5000  -2753.87422
   17     4.6000  -2753.87422
   18     4.7000  -2753.87422
   19     4.8000  -2753.87422
   20     4.9000  -2753.87422
   21     5.0000  -2753.87422
 ----  ---------  -----------
  
 Leave Link  108 at Sat May  9 16:56:20 2020, MaxMem= 1073741824 cpu:       0.0
 (Enter /home/matheus/.gaussian/g09/l9999.exe)
 1\1\GINC-REDGIANT\Scan\RwB97XD\Aug-CC-pVTZ\H2Kr1O2\MATHEUS\09-May-2020
 \1\\#p wb97xd/aug-cc-PVTz int=ultrafine counterpoise=2 Scan\\TCC\\0,1\
 O,0,0.,0.,0.725\O,0,0.,0.,-0.725\H,0,0.4593602974,0.795635374,1.023510
 4166\H,0,0.,0.9187205947,-1.0235104166\Kr,0,0.,R1,0.\\R1=3.,s,20,0.1\\
 Version=EM64L-G09RevC.01\State=1-A\HF=-2753.8742199,-2753.8742199,-275
 3.8742199,-2753.8742199,-2753.8742199,-2753.8742199,-2753.8742199,-275
 3.8742199,-2753.8742199,-2753.8742199,-2753.8742199,-2753.8742199,-275
 3.8742199,-2753.8742199,-2753.8742199,-2753.8742199,-2753.8742199,-275
 3.8742199,-2753.8742199,-2753.8742199,-2753.8742199\RMSD=9.120e-09,1.9
 20e-10,6.362e-11,4.202e-11,2.496e-11,1.570e-11,9.724e-12,6.059e-12,3.7
 63e-12,2.341e-12,1.453e-12,9.009e-13,5.650e-13,3.587e-13,2.184e-13,1.3
 37e-13,8.147e-14,5.310e-14,3.593e-14,1.924e-14,1.340e-14\PG=C01 [X(H2K
 r1O2)]\\@


 REALITY IS FOR PEOPLE WHO CAN'T FACE SCIENCE FICTION.
 Job cpu time:  0 days  4 hours 17 minutes 59.4 seconds.
 File lengths (MBytes):  RWF=     33 Int=      0 D2E=      0 Chk=      8 Scr=      1
 Normal termination of Gaussian 09 at Sat May  9 16:56:20 2020.
