 Entering Gaussian System, Link 0=g09
 Input=/home/matheus/.tcc/Inputs/Inputs-wb97xd-default/H2O2-Kr_20.com
 Output=/home/matheus/.tcc/Logs/Logs-wb97xd-default/H2O2-Kr_20.log
 Initial command:
 /home/matheus/.gaussian/g09/l1.exe /home/matheus/.gaussian/g09/scratch/Gau-16182.inp -scrdir=/home/matheus/.gaussian/g09/scratch/
 Entering Link 1 = /home/matheus/.gaussian/g09/l1.exe PID=     16186.
  
 Copyright (c) 1988,1990,1992,1993,1995,1998,2003,2009,2011,
            Gaussian, Inc.  All Rights Reserved.
  
 This is part of the Gaussian(R) 09 program.  It is based on
 the Gaussian(R) 03 system (copyright 2003, Gaussian, Inc.),
 the Gaussian(R) 98 system (copyright 1998, Gaussian, Inc.),
 the Gaussian(R) 94 system (copyright 1995, Gaussian, Inc.),
 the Gaussian 92(TM) system (copyright 1992, Gaussian, Inc.),
 the Gaussian 90(TM) system (copyright 1990, Gaussian, Inc.),
 the Gaussian 88(TM) system (copyright 1988, Gaussian, Inc.),
 the Gaussian 86(TM) system (copyright 1986, Carnegie Mellon
 University), and the Gaussian 82(TM) system (copyright 1983,
 Carnegie Mellon University). Gaussian is a federally registered
 trademark of Gaussian, Inc.
  
 This software contains proprietary and confidential information,
 including trade secrets, belonging to Gaussian, Inc.
  
 This software is provided under written license and may be
 used, copied, transmitted, or stored only in accord with that
 written license.
  
 The following legend is applicable only to US Government
 contracts under FAR:
  
                    RESTRICTED RIGHTS LEGEND
  
 Use, reproduction and disclosure by the US Government is
 subject to restrictions as set forth in subparagraphs (a)
 and (c) of the Commercial Computer Software - Restricted
 Rights clause in FAR 52.227-19.
  
 Gaussian, Inc.
 340 Quinnipiac St., Bldg. 40, Wallingford CT 06492
  
  
 ---------------------------------------------------------------
 Warning -- This program may not be used in any manner that
 competes with the business of Gaussian, Inc. or will provide
 assistance to any competitor of Gaussian, Inc.  The licensee
 of this program is prohibited from giving any competitor of
 Gaussian, Inc. access to this program.  By using this program,
 the user acknowledges that Gaussian, Inc. is engaged in the
 business of creating and licensing software in the field of
 computational chemistry and represents and warrants to the
 licensee that it is not a competitor of Gaussian, Inc. and that
 it will not use this program in any manner prohibited above.
 ---------------------------------------------------------------
  

 Cite this work as:
 Gaussian 09, Revision C.01,
 M. J. Frisch, G. W. Trucks, H. B. Schlegel, G. E. Scuseria, 
 M. A. Robb, J. R. Cheeseman, G. Scalmani, V. Barone, B. Mennucci, 
 G. A. Petersson, H. Nakatsuji, M. Caricato, X. Li, H. P. Hratchian, 
 A. F. Izmaylov, J. Bloino, G. Zheng, J. L. Sonnenberg, M. Hada, 
 M. Ehara, K. Toyota, R. Fukuda, J. Hasegawa, M. Ishida, T. Nakajima, 
 Y. Honda, O. Kitao, H. Nakai, T. Vreven, J. A. Montgomery, Jr., 
 J. E. Peralta, F. Ogliaro, M. Bearpark, J. J. Heyd, E. Brothers, 
 K. N. Kudin, V. N. Staroverov, T. Keith, R. Kobayashi, J. Normand, 
 K. Raghavachari, A. Rendell, J. C. Burant, S. S. Iyengar, J. Tomasi, 
 M. Cossi, N. Rega, J. M. Millam, M. Klene, J. E. Knox, J. B. Cross, 
 V. Bakken, C. Adamo, J. Jaramillo, R. Gomperts, R. E. Stratmann, 
 O. Yazyev, A. J. Austin, R. Cammi, C. Pomelli, J. W. Ochterski, 
 R. L. Martin, K. Morokuma, V. G. Zakrzewski, G. A. Voth, 
 P. Salvador, J. J. Dannenberg, S. Dapprich, A. D. Daniels, 
 O. Farkas, J. B. Foresman, J. V. Ortiz, J. Cioslowski, 
 and D. J. Fox, Gaussian, Inc., Wallingford CT, 2010.
 
 ******************************************
 Gaussian 09:  EM64L-G09RevC.01 23-Sep-2011
                10-May-2020 
 ******************************************
 %mem=8GB
 %nproc=8
 Will use up to    8 processors via shared memory.
 -------------------------------------------------------
 #p wb97xd/aug-cc-PVTz int=ultrafine counterpoise=2 Scan
 -------------------------------------------------------
 1/38=1,60=1,62=2/1,8;
 2/12=2,17=6,18=5,29=3,40=1/2;
 1/38=1,53=5172,62=2/22;
 3/5=16,6=1,7=10,11=2,16=1,25=1,30=1,74=-58,75=-5/1,2,3;
 4//1;
 5/5=2,38=5/2;
 6/7=2,8=2,9=2,10=2,18=1,28=1/1;
 1/53=4052,62=2,63=1/22;
 3/5=7,6=11,7=10,11=2,16=1,25=1,30=1,74=-58,75=-5,82=7/1,2,3;
 4//1;
 5/5=2,38=5/2;
 6/7=2,8=2,9=2,10=2,18=1,28=1/1;
 1/53=3042,62=2,63=2/22;
 3/5=7,6=11,7=10,11=2,16=1,25=1,30=1,74=-58,75=-5,82=7/1,2,3;
 4//1;
 5/5=2,38=5/2;
 6/7=2,8=2,9=2,10=2,18=1,28=1/1;
 1/53=2032,62=2,63=3/22;
 3/5=7,6=11,7=10,11=2,16=1,25=1,30=1,74=-58,75=-5,82=7/1,2,3;
 4//1;
 5/5=2,38=5/2;
 6/7=2,8=2,9=2,10=2,18=1,28=1/1;
 1/53=1022,62=2,63=4/22;
 3/5=7,6=11,7=10,11=2,16=1,25=1,30=1,74=-58,75=-5,82=7/1,2,3;
 4//1;
 5/5=2,38=5/2;
 6/7=2,8=2,9=2,10=2,18=1,28=1/1;
 1/53=5014,62=2,63=5/22;
 1/60=1,62=2/8(1);
 99/9=1/99;
 2/29=3/2;
 1/53=5173,62=2/22;
 3/5=7,6=11,7=10,11=2,16=1,25=1,30=1,74=-58,75=-5,82=7/1,2,3;
 4/5=5,16=3/1;
 5/5=2,38=5/2;
 1/53=4053,62=2,63=1/22;
 3/5=7,6=11,7=10,11=2,16=1,25=1,30=1,74=-58,75=-5,82=7/1,2,3;
 4/5=5,16=3/1;
 5/5=2,38=5/2;
 1/53=3043,62=2,63=2/22;
 3/5=7,6=11,7=10,11=2,16=1,25=1,30=1,74=-58,75=-5,82=7/1,2,3;
 4/5=5,16=3/1;
 5/5=2,38=5/2;
 1/53=2033,62=2,63=3/22;
 3/5=7,6=11,7=10,11=2,16=1,25=1,30=1,74=-58,75=-5,82=7/1,2,3;
 4/5=5,16=3/1;
 5/5=2,38=5/2;
 1/53=1024,62=2,63=4/22;
 3/5=7,6=11,7=10,11=2,16=1,25=1,30=1,74=-58,75=-5,82=7/1,2,3;
 4/5=5,16=3/1;
 5/5=2,38=5/2;
 1/53=5014,62=2,63=5/22;
 1/60=1,62=2/8(-22);
 99/9=1/99;
 Leave Link    1 at Sun May 10 00:24:17 2020, MaxMem= 1073741824 cpu:       0.1
 (Enter /home/matheus/.gaussian/g09/l101.exe)
 ---
 TCC
 ---
 Charge =  0 Multiplicity = 1 in supermolecule
 Charge =  0 Multiplicity = 1 in fragment  1.
 Charge =  0 Multiplicity = 1 in fragment  2.
 Symbolic Z-Matrix:
 O(Fragment=1)         0.        0.        0.725 
 O(Fragment=1)         0.        0.       -0.725 
 H(Fragment=1)        -0.31422  -0.86331   1.02351 
 H(Fragment=1)         0.        0.91872  -1.02351 
 Kr(Fragment=2)        0.       R1        0. 
       Variables:
  R1                    3.     Scan 20    0.1    
 
 NAtoms=      5 NQM=        0 NQMF=       0 NMMI=      5 NMMIF=      0
                NMic=       0 NMicF=      0.
                    Isotopes and Nuclear Properties:
 (Nuclear quadrupole moments (NQMom) in fm**2, nuclear magnetic moments (NMagM)
  in nuclear magnetons)

  Atom         1           2           3           4           5
 IAtWgt=          16          16           1           1          84
 AtmWgt=  15.9949146  15.9949146   1.0078250   1.0078250  83.9115064
 NucSpn=           0           0           1           1           0
 AtZEff=   0.0000000   0.0000000   0.0000000   0.0000000   0.0000000
 NQMom=    0.0000000   0.0000000   0.0000000   0.0000000   0.0000000
 NMagM=    0.0000000   0.0000000   2.7928460   2.7928460   0.0000000
 Leave Link  101 at Sun May 10 00:24:17 2020, MaxMem= 1073741824 cpu:       0.3
 (Enter /home/matheus/.gaussian/g09/l108.exe)
 Scan the potential surface.
 Variable   Value     No. Steps Step-Size
 -------- ----------- --------- ---------
     1       3.000000      20      0.1000
 A total of     21 points will be computed.
 Leave Link  108 at Sun May 10 00:24:17 2020, MaxMem= 1073741824 cpu:       0.0
 (Enter /home/matheus/.gaussian/g09/l202.exe)
 ---------------------------------------------------------------------------------------------------
                            Z-MATRIX (ANGSTROMS AND DEGREES)
   CD    Cent   Atom    N1       Length/X        N2       Alpha/Y        N3        Beta/Z          J
 ---------------------------------------------------------------------------------------------------
      1      1  O        0   0.000000          0.000000          0.725000
      2      2  O        0   0.000000          0.000000         -0.725000
      3      3  H        0  -0.314221         -0.863315          1.023510
      4      4  H        0   0.000000          0.918721         -1.023510
      5      5  Kr       0   0.000000          3.000000          0.000000
 ---------------------------------------------------------------------------------------------------
                         Z-Matrix orientation:                         
 ---------------------------------------------------------------------
 Center     Atomic      Atomic             Coordinates (Angstroms)
 Number     Number       Type             X           Y           Z
 ---------------------------------------------------------------------
      1          8           0        0.000000    0.000000    0.725000
      2          8           0        0.000000    0.000000   -0.725000
      3          1           0       -0.314221   -0.863315    1.023510
      4          1           0        0.000000    0.918721   -1.023510
      5         36           0        0.000000    3.000000    0.000000
 ---------------------------------------------------------------------
                    Distance matrix (angstroms):
                    1          2          3          4          5
     1  O    0.000000
     2  O    1.450000   0.000000
     3  H    0.966000   1.975180   0.000000
     4  H    1.975180   0.966000   2.732157   0.000000
     5  Kr   3.086361   3.086361   4.008929   2.319331   0.000000
 Stoichiometry    H2KrO2
 Framework group  C1[X(H2KrO2)]
 Deg. of freedom     9
 Full point group                 C1      NOp   1
 Largest Abelian subgroup         C1      NOp   1
 Largest concise Abelian subgroup C1      NOp   1
                         Standard orientation:                         
 ---------------------------------------------------------------------
 Center     Atomic      Atomic             Coordinates (Angstroms)
 Number     Number       Type             X           Y           Z
 ---------------------------------------------------------------------
      1          8           0       -2.013955   -0.686971   -0.042678
      2          8           0       -1.987181    0.762152    0.000071
      3          1           0       -2.885209   -0.978373    0.255914
      4          1           0       -1.063137    1.043301    0.015982
      5         36           0        0.998818   -0.018511    0.001916
 ---------------------------------------------------------------------
 Rotational constants (GHZ):     26.5935251      2.3048996      2.1226538
 Leave Link  202 at Sun May 10 00:24:17 2020, MaxMem= 1073741824 cpu:       0.0
 (Enter /home/matheus/.gaussian/g09/l122.exe)
 Leave Link  122 at Sun May 10 00:24:17 2020, MaxMem= 1073741824 cpu:       0.0
 (Enter /home/matheus/.gaussian/g09/l301.exe)
 Standard basis: Aug-CC-pVTZ (5D, 7F)
 Ernie: Thresh=  0.10000D-02 Tol=  0.10000D-05 Strict=F.
 Ernie:  38 primitive shells out of 205 were deleted.
 There are   197 symmetry adapted basis functions of A   symmetry.
 Integral buffers will be    131072 words long.
 Raffenetti 2 integral format.
 Two-electron integral symmetry is turned on.
   197 basis functions,   415 primitive gaussians,   229 cartesian basis functions
    27 alpha electrons       27 beta electrons
       nuclear repulsion energy       148.3266950462 Hartrees.
 IExCor= 4639 DFT=T Ex+Corr=wB97XD ExCW=0 ScaHFX=  1.000000
 ScaDFX=  1.000000  1.000000  1.000000  1.000000 ScalE2=  1.000000  1.000000
 IRadAn=      5 IRanWt=     -1 IRanGd=            0 ICorTp=0
  HFx wShort=  0.000000 wLong=  0.200000 cFull=  0.222036 cShort=  0.000000 cLong=  0.777964
  DFx wShort=  0.000000 wLong=  0.200000 cFull=  0.000000 cShort=  0.000000 cLong=  1.000000
 NAtoms=    5 NActive=    5 NUniq=    5 SFac= 1.00D+00 NAtFMM=   60 NAOKFM=F Big=F
 R6Disp: Dispersion energy =        -0.0007733935 Hartrees.
 Nuclear repulsion after empirical dispersion term =      148.3259216527 Hartrees.
 Leave Link  301 at Sun May 10 00:24:17 2020, MaxMem= 1073741824 cpu:       0.2
 (Enter /home/matheus/.gaussian/g09/l302.exe)
 NPDir=0 NMtPBC=     1 NCelOv=     1 NCel=       1 NClECP=     1 NCelD=      1
         NCelK=      1 NCelE2=     1 NClLst=     1 CellRange=     0.0.
 One-electron integrals computed using PRISM.
 NBasis=   197 RedAO= T  NBF=   197
 NBsUse=   197 1.00D-06 NBFU=   197
 Precomputing XC quadrature grid using
 IXCGrd= 2 IRadAn=           5 IRanWt=          -1 IRanGd=           0 AccXCQ= 0.00D+00.
 NRdTot=     427 NPtTot=      123814 NUsed=      126881 NTot=      126913
 NSgBfM=   229   229   229   229   229 NAtAll=     5     5.
 Leave Link  302 at Sun May 10 00:24:17 2020, MaxMem= 1073741824 cpu:       1.0
 (Enter /home/matheus/.gaussian/g09/l303.exe)
 DipDrv:  MaxL=1.
 Leave Link  303 at Sun May 10 00:24:17 2020, MaxMem= 1073741824 cpu:       0.2
 (Enter /home/matheus/.gaussian/g09/l401.exe)
 Harris functional with IExCor= 4639 diagonalized for initial guess.
 ExpMin= 2.53D-02 ExpMax= 1.17D+07 ExpMxC= 1.33D+04 IAcc=3 IRadAn=         5 AccDes= 0.00D+00
 HarFok:  IExCor= 4639 AccDes= 0.00D+00 IRadAn=         5 IDoV= 1
 ScaDFX=  1.000000  1.000000  1.000000  1.000000
 FoFCou: FMM=F IPFlag=           0 FMFlag=      100000 FMFlg1=           0
         NFxFlg=           0 DoJE=T BraDBF=F KetDBF=T FulRan=T
         Omega=  0.000000  0.000000  1.000000  0.000000  0.000000 ICntrl=     500 IOpCl=  0
         NMat0=    1 NMatS0=    1 NMatT0=    0 NMatD0=    1 NMtDS0=    0 NMtDT0=    0
         I1Cent=           4 NGrid=           0.
 Petite list used in FoFCou.
 Harris En= -2876.48629148376    
 Initial guess orbital symmetries:
       Occupied  (A) (A) (A) (A) (A) (A) (A) (A) (A) (A) (A) (A)
                 (A) (A) (A) (A) (A) (A) (A) (A) (A) (A) (A) (A)
                 (A) (A) (A)
       Virtual   (A) (A) (A) (A) (A) (A) (A) (A) (A) (A) (A) (A)
                 (A) (A) (A) (A) (A) (A) (A) (A) (A) (A) (A) (A)
                 (A) (A) (A) (A) (A) (A) (A) (A) (A) (A) (A) (A)
                 (A) (A) (A) (A) (A) (A) (A) (A) (A) (A) (A) (A)
                 (A) (A) (A) (A) (A) (A) (A) (A) (A) (A) (A) (A)
                 (A) (A) (A) (A) (A) (A) (A) (A) (A) (A) (A) (A)
                 (A) (A) (A) (A) (A) (A) (A) (A) (A) (A) (A) (A)
                 (A) (A) (A) (A) (A) (A) (A) (A) (A) (A) (A) (A)
                 (A) (A) (A) (A) (A) (A) (A) (A) (A) (A) (A) (A)
                 (A) (A) (A) (A) (A) (A) (A) (A) (A) (A) (A) (A)
                 (A) (A) (A) (A) (A) (A) (A) (A) (A) (A) (A) (A)
                 (A) (A) (A) (A) (A) (A) (A) (A) (A) (A) (A) (A)
                 (A) (A) (A) (A) (A) (A) (A) (A) (A) (A) (A) (A)
                 (A) (A) (A) (A) (A) (A) (A) (A) (A) (A) (A) (A)
                 (A) (A)
 The electronic state of the initial guess is 1-A.
 Leave Link  401 at Sun May 10 00:24:18 2020, MaxMem= 1073741824 cpu:       5.1
 (Enter /home/matheus/.gaussian/g09/l502.exe)
 Closed shell SCF:
 Requested convergence on RMS density matrix=1.00D-08 within 128 cycles.
 Requested convergence on MAX density matrix=1.00D-06.
 Requested convergence on             energy=1.00D-06.
 No special actions if energy rises.
 Using DIIS extrapolation, IDIIS=  1040.
 Integral symmetry usage will be decided dynamically.
       126823 words used for storage of precomputed grid.
 IEnd=      305770 IEndB=      305770 NGot=  1073741824 MDV=  1073505365
 LenX=  1073505365 LenY=  1073452483
 Fock matrices will be formed incrementally for  20 cycles.

 Cycle   1  Pass 1  IDiag  1:
 FoFJK:  IHMeth= 1 ICntrl=     0 DoSepK=T KAlg= 1 I1Cent= 0 FoldK=F
 FoFCou: FMM=F IPFlag=           0 FMFlag=      100000 FMFlg1=           0
         NFxFlg=           0 DoJE=T BraDBF=F KetDBF=F FulRan=T
         Omega=  0.000000  0.000000  1.000000  0.000000  0.000000 ICntrl=     500 IOpCl=  0
         NMat0=    1 NMatS0=    1 NMatT0=    0 NMatD0=    1 NMtDS0=    0 NMtDT0=    0
         I1Cent=           0 NGrid=           0.
 Symmetry not used in FoFCou.
 E= -2904.93515945014    
 DIIS: error= 7.43D-02 at cycle   1 NSaved=   1.
 NSaved= 1 IEnMin= 1 EnMin= -2904.93515945014     IErMin= 1 ErrMin= 7.43D-02
 ErrMax= 7.43D-02 EMaxC= 1.00D-01 BMatC= 2.17D+00 BMatP= 2.17D+00
 IDIUse=3 WtCom= 2.57D-01 WtEn= 7.43D-01
 Coeff-Com:  0.100D+01
 Coeff-En:   0.100D+01
 Coeff:      0.100D+01
 Gap=     0.499 Goal=   None    Shift=    0.000
 GapD=    0.499 DampG=2.000 DampE=0.500 DampFc=1.0000 IDamp=-1.
 RMSDP=6.11D-03 MaxDP=3.66D-01              OVMax= 1.79D-01

 Cycle   2  Pass 1  IDiag  1:
 RMSU=  4.29D-03    CP:  1.03D+00
 FoFJK:  IHMeth= 1 ICntrl=     0 DoSepK=T KAlg= 1 I1Cent= 0 FoldK=F
 E= -2905.22751069478     Delta-E=       -0.292351244639 Rises=F Damp=F
 DIIS: error= 3.61D-02 at cycle   2 NSaved=   2.
 NSaved= 2 IEnMin= 2 EnMin= -2905.22751069478     IErMin= 2 ErrMin= 3.61D-02
 ErrMax= 3.61D-02 EMaxC= 1.00D-01 BMatC= 5.63D-01 BMatP= 2.17D+00
 IDIUse=3 WtCom= 6.39D-01 WtEn= 3.61D-01
 Coeff-Com:  0.330D+00 0.670D+00
 Coeff-En:   0.217D+00 0.783D+00
 Coeff:      0.289D+00 0.711D+00
 Gap=     0.438 Goal=   None    Shift=    0.000
 RMSDP=2.71D-03 MaxDP=1.58D-01 DE=-2.92D-01 OVMax= 7.64D-02

 Cycle   3  Pass 1  IDiag  1:
 RMSU=  5.66D-04    CP:  1.02D+00  5.76D-01
 FoFJK:  IHMeth= 1 ICntrl=     0 DoSepK=T KAlg= 1 I1Cent= 0 FoldK=F
 E= -2905.41875110291     Delta-E=       -0.191240408132 Rises=F Damp=F
 DIIS: error= 6.90D-03 at cycle   3 NSaved=   3.
 NSaved= 3 IEnMin= 3 EnMin= -2905.41875110291     IErMin= 3 ErrMin= 6.90D-03
 ErrMax= 6.90D-03 EMaxC= 1.00D-01 BMatC= 1.97D-02 BMatP= 5.63D-01
 IDIUse=3 WtCom= 9.31D-01 WtEn= 6.90D-02
 Coeff-Com:  0.345D-01 0.194D+00 0.772D+00
 Coeff-En:   0.000D+00 0.000D+00 0.100D+01
 Coeff:      0.321D-01 0.181D+00 0.787D+00
 Gap=     0.403 Goal=   None    Shift=    0.000
 RMSDP=5.05D-04 MaxDP=2.04D-02 DE=-1.91D-01 OVMax= 2.61D-02

 Cycle   4  Pass 1  IDiag  1:
 RMSU=  2.38D-04    CP:  1.02D+00  6.35D-01  8.71D-01
 FoFJK:  IHMeth= 1 ICntrl=     0 DoSepK=T KAlg= 1 I1Cent= 0 FoldK=F
 E= -2905.42746755404     Delta-E=       -0.008716451125 Rises=F Damp=F
 DIIS: error= 2.91D-03 at cycle   4 NSaved=   4.
 NSaved= 4 IEnMin= 4 EnMin= -2905.42746755404     IErMin= 4 ErrMin= 2.91D-03
 ErrMax= 2.91D-03 EMaxC= 1.00D-01 BMatC= 2.00D-03 BMatP= 1.97D-02
 IDIUse=3 WtCom= 9.71D-01 WtEn= 2.91D-02
 Coeff-Com: -0.101D-02 0.552D-01 0.382D+00 0.564D+00
 Coeff-En:   0.000D+00 0.000D+00 0.000D+00 0.100D+01
 Coeff:     -0.985D-03 0.536D-01 0.370D+00 0.577D+00
 Gap=     0.388 Goal=   None    Shift=    0.000
 RMSDP=1.26D-04 MaxDP=7.22D-03 DE=-8.72D-03 OVMax= 7.69D-03

 Cycle   5  Pass 1  IDiag  1:
 RMSU=  3.96D-05    CP:  1.02D+00  6.33D-01  9.17D-01  6.90D-01
 FoFJK:  IHMeth= 1 ICntrl=     0 DoSepK=T KAlg= 1 I1Cent= 0 FoldK=F
 E= -2905.42867138560     Delta-E=       -0.001203831559 Rises=F Damp=F
 DIIS: error= 3.82D-04 at cycle   5 NSaved=   5.
 NSaved= 5 IEnMin= 5 EnMin= -2905.42867138560     IErMin= 5 ErrMin= 3.82D-04
 ErrMax= 3.82D-04 EMaxC= 1.00D-01 BMatC= 3.75D-05 BMatP= 2.00D-03
 IDIUse=3 WtCom= 9.96D-01 WtEn= 3.82D-03
 Coeff-Com: -0.113D-02 0.184D-01 0.143D+00 0.238D+00 0.602D+00
 Coeff-En:   0.000D+00 0.000D+00 0.000D+00 0.000D+00 0.100D+01
 Coeff:     -0.112D-02 0.184D-01 0.142D+00 0.237D+00 0.603D+00
 Gap=     0.387 Goal=   None    Shift=    0.000
 RMSDP=2.28D-05 MaxDP=1.00D-03 DE=-1.20D-03 OVMax= 1.85D-03

 Cycle   6  Pass 1  IDiag  1:
 RMSU=  1.54D-05    CP:  1.02D+00  6.33D-01  9.21D-01  7.06D-01  9.68D-01
 FoFJK:  IHMeth= 1 ICntrl=     0 DoSepK=T KAlg= 1 I1Cent= 0 FoldK=F
 E= -2905.42869144737     Delta-E=       -0.000020061778 Rises=F Damp=F
 DIIS: error= 1.78D-04 at cycle   6 NSaved=   6.
 NSaved= 6 IEnMin= 6 EnMin= -2905.42869144737     IErMin= 6 ErrMin= 1.78D-04
 ErrMax= 1.78D-04 EMaxC= 1.00D-01 BMatC= 8.33D-06 BMatP= 3.75D-05
 IDIUse=3 WtCom= 9.98D-01 WtEn= 1.78D-03
 Coeff-Com: -0.363D-03-0.555D-02-0.270D-01-0.320D-01 0.314D+00 0.751D+00
 Coeff-En:   0.000D+00 0.000D+00 0.000D+00 0.000D+00 0.138D+00 0.862D+00
 Coeff:     -0.362D-03-0.554D-02-0.269D-01-0.320D-01 0.314D+00 0.751D+00
 Gap=     0.387 Goal=   None    Shift=    0.000
 RMSDP=1.22D-05 MaxDP=4.60D-04 DE=-2.01D-05 OVMax= 6.55D-04

 Cycle   7  Pass 1  IDiag  1:
 RMSU=  4.01D-06    CP:  1.02D+00  6.33D-01  9.28D-01  7.14D-01  1.12D+00
                    CP:  9.31D-01
 FoFJK:  IHMeth= 1 ICntrl=     0 DoSepK=T KAlg= 1 I1Cent= 0 FoldK=F
 E= -2905.42869746568     Delta-E=       -0.000006018304 Rises=F Damp=F
 DIIS: error= 1.47D-05 at cycle   7 NSaved=   7.
 NSaved= 7 IEnMin= 7 EnMin= -2905.42869746568     IErMin= 7 ErrMin= 1.47D-05
 ErrMax= 1.47D-05 EMaxC= 1.00D-01 BMatC= 4.13D-08 BMatP= 8.33D-06
 IDIUse=1 WtCom= 1.00D+00 WtEn= 0.00D+00
 Coeff-Com:  0.216D-04-0.880D-03-0.621D-02-0.882D-02-0.844D-02 0.397D-01
 Coeff-Com:  0.985D+00
 Coeff:      0.216D-04-0.880D-03-0.621D-02-0.882D-02-0.844D-02 0.397D-01
 Coeff:      0.985D+00
 Gap=     0.387 Goal=   None    Shift=    0.000
 RMSDP=2.28D-06 MaxDP=8.45D-05 DE=-6.02D-06 OVMax= 1.56D-04

 Cycle   8  Pass 1  IDiag  1:
 RMSU=  8.57D-07    CP:  1.02D+00  6.33D-01  9.28D-01  7.17D-01  1.14D+00
                    CP:  9.76D-01  1.15D+00
 FoFJK:  IHMeth= 1 ICntrl=     0 DoSepK=T KAlg= 1 I1Cent= 0 FoldK=F
 E= -2905.42869755191     Delta-E=       -0.000000086237 Rises=F Damp=F
 DIIS: error= 2.02D-06 at cycle   8 NSaved=   8.
 NSaved= 8 IEnMin= 8 EnMin= -2905.42869755191     IErMin= 8 ErrMin= 2.02D-06
 ErrMax= 2.02D-06 EMaxC= 1.00D-01 BMatC= 2.27D-09 BMatP= 4.13D-08
 IDIUse=1 WtCom= 1.00D+00 WtEn= 0.00D+00
 Coeff-Com:  0.115D-04 0.781D-04 0.260D-03 0.104D-04-0.129D-01-0.244D-01
 Coeff-Com:  0.719D-01 0.965D+00
 Coeff:      0.115D-04 0.781D-04 0.260D-03 0.104D-04-0.129D-01-0.244D-01
 Coeff:      0.719D-01 0.965D+00
 Gap=     0.387 Goal=   None    Shift=    0.000
 RMSDP=5.43D-07 MaxDP=1.85D-05 DE=-8.62D-08 OVMax= 4.05D-05

 Cycle   9  Pass 1  IDiag  1:
 RMSU=  1.55D-07    CP:  1.02D+00  6.33D-01  9.28D-01  7.17D-01  1.15D+00
                    CP:  9.83D-01  1.21D+00  1.23D+00
 FoFJK:  IHMeth= 1 ICntrl=     0 DoSepK=T KAlg= 1 I1Cent= 0 FoldK=F
 E= -2905.42869755675     Delta-E=       -0.000000004831 Rises=F Damp=F
 DIIS: error= 7.20D-07 at cycle   9 NSaved=   9.
 NSaved= 9 IEnMin= 9 EnMin= -2905.42869755675     IErMin= 9 ErrMin= 7.20D-07
 ErrMax= 7.20D-07 EMaxC= 1.00D-01 BMatC= 2.05D-10 BMatP= 2.27D-09
 IDIUse=1 WtCom= 1.00D+00 WtEn= 0.00D+00
 Coeff-Com: -0.657D-06 0.581D-04 0.397D-03 0.402D-03-0.964D-03-0.438D-02
 Coeff-Com: -0.531D-01 0.958D-01 0.962D+00
 Coeff:     -0.657D-06 0.581D-04 0.397D-03 0.402D-03-0.964D-03-0.438D-02
 Coeff:     -0.531D-01 0.958D-01 0.962D+00
 Gap=     0.387 Goal=   None    Shift=    0.000
 RMSDP=1.34D-07 MaxDP=4.59D-06 DE=-4.83D-09 OVMax= 1.21D-05

 Cycle  10  Pass 1  IDiag  1:
 RMSU=  4.80D-08    CP:  1.02D+00  6.33D-01  9.28D-01  7.17D-01  1.15D+00
                    CP:  9.85D-01  1.22D+00  1.30D+00  1.15D+00
 FoFJK:  IHMeth= 1 ICntrl=     0 DoSepK=T KAlg= 1 I1Cent= 0 FoldK=F
 E= -2905.42869755718     Delta-E=       -0.000000000430 Rises=F Damp=F
 DIIS: error= 2.01D-07 at cycle  10 NSaved=  10.
 NSaved=10 IEnMin=10 EnMin= -2905.42869755718     IErMin=10 ErrMin= 2.01D-07
 ErrMax= 2.01D-07 EMaxC= 1.00D-01 BMatC= 1.36D-11 BMatP= 2.05D-10
 IDIUse=1 WtCom= 1.00D+00 WtEn= 0.00D+00
 Coeff-Com: -0.473D-06 0.489D-08 0.685D-05 0.131D-04 0.939D-03 0.181D-02
 Coeff-Com: -0.599D-02-0.736D-01 0.511D-01 0.103D+01
 Coeff:     -0.473D-06 0.489D-08 0.685D-05 0.131D-04 0.939D-03 0.181D-02
 Coeff:     -0.599D-02-0.736D-01 0.511D-01 0.103D+01
 Gap=     0.387 Goal=   None    Shift=    0.000
 RMSDP=3.87D-08 MaxDP=7.31D-07 DE=-4.30D-10 OVMax= 4.88D-06

 Cycle  11  Pass 1  IDiag  1:
 RMSU=  1.39D-08    CP:  1.02D+00  6.33D-01  9.28D-01  7.17D-01  1.15D+00
                    CP:  9.85D-01  1.22D+00  1.31D+00  1.25D+00  1.31D+00
 FoFJK:  IHMeth= 1 ICntrl=     0 DoSepK=T KAlg= 1 I1Cent= 0 FoldK=F
 E= -2905.42869755723     Delta-E=       -0.000000000055 Rises=F Damp=F
 DIIS: error= 8.05D-08 at cycle  11 NSaved=  11.
 NSaved=11 IEnMin=11 EnMin= -2905.42869755723     IErMin=11 ErrMin= 8.05D-08
 ErrMax= 8.05D-08 EMaxC= 1.00D-01 BMatC= 1.48D-12 BMatP= 1.36D-11
 IDIUse=1 WtCom= 1.00D+00 WtEn= 0.00D+00
 Coeff-Com:  0.205D-06-0.339D-05-0.269D-04-0.153D-04-0.207D-04 0.118D-03
 Coeff-Com:  0.447D-02-0.395D-02-0.615D-01-0.787D-01 0.114D+01
 Coeff:      0.205D-06-0.339D-05-0.269D-04-0.153D-04-0.207D-04 0.118D-03
 Coeff:      0.447D-02-0.395D-02-0.615D-01-0.787D-01 0.114D+01
 Gap=     0.387 Goal=   None    Shift=    0.000
 RMSDP=1.51D-08 MaxDP=3.48D-07 DE=-5.55D-11 OVMax= 2.20D-06

 Cycle  12  Pass 1  IDiag  1:
 RMSU=  4.04D-09    CP:  1.02D+00  6.33D-01  9.28D-01  7.17D-01  1.15D+00
                    CP:  9.85D-01  1.22D+00  1.31D+00  1.27D+00  1.45D+00
                    CP:  1.42D+00
 FoFJK:  IHMeth= 1 ICntrl=     0 DoSepK=T KAlg= 1 I1Cent= 0 FoldK=F
 E= -2905.42869755723     Delta-E=       -0.000000000002 Rises=F Damp=F
 DIIS: error= 3.67D-08 at cycle  12 NSaved=  12.
 NSaved=12 IEnMin=12 EnMin= -2905.42869755723     IErMin=12 ErrMin= 3.67D-08
 ErrMax= 3.67D-08 EMaxC= 1.00D-01 BMatC= 1.36D-13 BMatP= 1.48D-12
 IDIUse=1 WtCom= 1.00D+00 WtEn= 0.00D+00
 Coeff-Com:  0.788D-08-0.196D-06-0.878D-06-0.349D-05-0.893D-04-0.172D-03
 Coeff-Com:  0.500D-03 0.604D-02 0.275D-03-0.854D-01-0.137D+00 0.122D+01
 Coeff:      0.788D-08-0.196D-06-0.878D-06-0.349D-05-0.893D-04-0.172D-03
 Coeff:      0.500D-03 0.604D-02 0.275D-03-0.854D-01-0.137D+00 0.122D+01
 Gap=     0.387 Goal=   None    Shift=    0.000
 RMSDP=6.71D-09 MaxDP=1.59D-07 DE=-2.27D-12 OVMax= 1.02D-06

 SCF Done:  E(RwB97XD) =  -2905.42869756     A.U. after   12 cycles
             Convg  =    0.6709D-08             -V/T =  2.0015
 KE= 2.900972384401D+03 PE=-7.235108358784D+03 EE= 1.280381355174D+03
 Leave Link  502 at Sun May 10 00:24:58 2020, MaxMem= 1073741824 cpu:     320.2
 (Enter /home/matheus/.gaussian/g09/l601.exe)
 Copying SCF densities to generalized density rwf, IOpCl= 0 IROHF=0.

 **********************************************************************

            Population analysis using the SCF density.

 **********************************************************************

 Orbital symmetries:
       Occupied  (A) (A) (A) (A) (A) (A) (A) (A) (A) (A) (A) (A)
                 (A) (A) (A) (A) (A) (A) (A) (A) (A) (A) (A) (A)
                 (A) (A) (A)
       Virtual   (A) (A) (A) (A) (A) (A) (A) (A) (A) (A) (A) (A)
                 (A) (A) (A) (A) (A) (A) (A) (A) (A) (A) (A) (A)
                 (A) (A) (A) (A) (A) (A) (A) (A) (A) (A) (A) (A)
                 (A) (A) (A) (A) (A) (A) (A) (A) (A) (A) (A) (A)
                 (A) (A) (A) (A) (A) (A) (A) (A) (A) (A) (A) (A)
                 (A) (A) (A) (A) (A) (A) (A) (A) (A) (A) (A) (A)
                 (A) (A) (A) (A) (A) (A) (A) (A) (A) (A) (A) (A)
                 (A) (A) (A) (A) (A) (A) (A) (A) (A) (A) (A) (A)
                 (A) (A) (A) (A) (A) (A) (A) (A) (A) (A) (A) (A)
                 (A) (A) (A) (A) (A) (A) (A) (A) (A) (A) (A) (A)
                 (A) (A) (A) (A) (A) (A) (A) (A) (A) (A) (A) (A)
                 (A) (A) (A) (A) (A) (A) (A) (A) (A) (A) (A) (A)
                 (A) (A) (A) (A) (A) (A) (A) (A) (A) (A) (A) (A)
                 (A) (A) (A) (A) (A) (A) (A) (A) (A) (A) (A) (A)
                 (A) (A)
 The electronic state is 1-A.
 Alpha  occ. eigenvalues -- -513.06815 -67.33500 -60.88385 -60.88371 -60.88364
 Alpha  occ. eigenvalues --  -19.31511 -19.31096  -9.78808  -7.48142  -7.48092
 Alpha  occ. eigenvalues --   -7.48072  -3.34879  -3.34869  -3.34853  -3.34813
 Alpha  occ. eigenvalues --   -3.34811  -1.21865  -1.01027  -0.99421  -0.63230
 Alpha  occ. eigenvalues --   -0.59598  -0.50088  -0.48077  -0.47397  -0.46917
 Alpha  occ. eigenvalues --   -0.43489  -0.35093
 Alpha virt. eigenvalues --    0.03592   0.04221   0.07758   0.09844   0.10753
 Alpha virt. eigenvalues --    0.11650   0.13500   0.14224   0.16931   0.17527
 Alpha virt. eigenvalues --    0.18032   0.19371   0.20675   0.23005   0.23267
 Alpha virt. eigenvalues --    0.24365   0.26212   0.28197   0.30151   0.33218
 Alpha virt. eigenvalues --    0.33812   0.34337   0.36458   0.38549   0.39674
 Alpha virt. eigenvalues --    0.39938   0.42191   0.47756   0.51178   0.53929
 Alpha virt. eigenvalues --    0.56045   0.58237   0.62730   0.64215   0.67662
 Alpha virt. eigenvalues --    0.69818   0.70830   0.71211   0.72777   0.74232
 Alpha virt. eigenvalues --    0.74953   0.75785   0.77329   0.78072   0.80140
 Alpha virt. eigenvalues --    0.82549   0.83640   0.86065   0.87961   0.89266
 Alpha virt. eigenvalues --    0.91070   0.92315   0.94768   0.96649   0.97705
 Alpha virt. eigenvalues --    1.01461   1.01911   1.02816   1.04774   1.07278
 Alpha virt. eigenvalues --    1.10810   1.11090   1.14601   1.16881   1.18339
 Alpha virt. eigenvalues --    1.25872   1.29419   1.33226   1.37845   1.38592
 Alpha virt. eigenvalues --    1.45209   1.50327   1.50474   1.54373   1.57642
 Alpha virt. eigenvalues --    1.60936   1.75433   1.78315   1.83079   1.91734
 Alpha virt. eigenvalues --    1.96932   1.97806   2.01076   2.10808   2.12353
 Alpha virt. eigenvalues --    2.13413   2.16292   2.17086   2.17928   2.22434
 Alpha virt. eigenvalues --    2.25362   2.26987   2.28356   2.30111   2.31762
 Alpha virt. eigenvalues --    2.35289   2.36315   2.42110   2.44795   2.45908
 Alpha virt. eigenvalues --    2.46070   2.48819   2.50980   2.51877   2.54963
 Alpha virt. eigenvalues --    2.56518   2.59074   2.63440   2.64697   2.67247
 Alpha virt. eigenvalues --    2.70153   2.71593   2.74501   2.81216   2.86719
 Alpha virt. eigenvalues --    2.93997   3.04654   3.06783   3.13016   3.51644
 Alpha virt. eigenvalues --    3.69844   3.82476   3.90580   4.01788   4.04128
 Alpha virt. eigenvalues --    4.08804   4.13757   4.15743   4.20383   4.23275
 Alpha virt. eigenvalues --    4.38971   4.43335   4.51323   4.52054   4.71382
 Alpha virt. eigenvalues --    4.89170   4.97974   5.01121   5.04242   5.07725
 Alpha virt. eigenvalues --    5.33403   5.41987   5.81319   5.97297   6.05894
 Alpha virt. eigenvalues --    6.10872   6.29477   6.32743   6.40015   6.46613
 Alpha virt. eigenvalues --    6.67784   6.69197   6.72711   6.79488   6.84129
 Alpha virt. eigenvalues --    6.85791   6.90296   6.91558   6.93682   6.96789
 Alpha virt. eigenvalues --    7.00945   7.21020   7.23027   7.36419   7.62104
 Alpha virt. eigenvalues --    7.82006   8.07545   8.12022  14.09467  14.58769
          Condensed to atoms (all electrons):
              1          2          3          4          5
     1  O    8.156296  -0.162759   0.201715   0.004931  -0.027098
     2  O   -0.162759   8.259740   0.005035   0.196822  -0.018655
     3  H    0.201715   0.005035   0.593336   0.003822   0.003066
     4  H    0.004931   0.196822   0.003822   0.542989  -0.003836
     5  Kr  -0.027098  -0.018655   0.003066  -0.003836  36.041554
 Mulliken atomic charges:
              1
     1  O   -0.173086
     2  O   -0.280183
     3  H    0.193026
     4  H    0.255273
     5  Kr   0.004970
 Sum of Mulliken atomic charges =   0.00000
 Mulliken charges with hydrogens summed into heavy atoms:
              1
     1  O    0.019940
     2  O   -0.024910
     5  Kr   0.004970
 Sum of Mulliken charges with hydrogens summed into heavy atoms =   0.00000
          Condensed to fragments (all electrons):
     1      -0.004970
     2       0.004970
 Electronic spatial extent (au):  <R**2>=            491.9365
 Charge=              0.0000 electrons
 Dipole moment (field-independent basis, Debye):
    X=              0.2647    Y=             -0.3025    Z=              0.5295  Tot=              0.6648
 Quadrupole moment (field-independent basis, Debye-Ang):
   XX=            -26.6904   YY=            -28.2750   ZZ=            -30.4669
   XY=              3.7814   XZ=             -1.6871   YZ=             -0.5621
 Traceless Quadrupole moment (field-independent basis, Debye-Ang):
   XX=              1.7870   YY=              0.2024   ZZ=             -1.9894
   XY=              3.7814   XZ=             -1.6871   YZ=             -0.5621
 Octapole moment (field-independent basis, Debye-Ang**2):
  XXX=              1.7663  YYY=             -0.6746  ZZZ=              0.2010  XYY=              4.2272
  XXY=            -15.9018  XXZ=              5.0700  XZZ=              8.2075  YZZ=             -0.4735
  YYZ=              0.6508  XYZ=              1.7512
 Hexadecapole moment (field-independent basis, Debye-Ang**3):
 XXXX=           -348.5965 YYYY=            -63.7366 ZZZZ=            -29.6946 XXXY=             49.5533
 XXXZ=            -15.4003 YYYX=              5.5020 YYYZ=             -0.6910 ZZZX=             -0.7013
 ZZZY=             -0.3158 XXYY=            -75.0114 XXZZ=            -78.8364 YYZZ=            -17.3746
 XXYZ=             -5.2864 YYXZ=             -1.9335 ZZXY=              0.7998
 N-N= 1.483259216527D+02 E-N=-7.235108358007D+03  KE= 2.900972384401D+03
 No NMR shielding tensors so no spin-rotation constants.
 Leave Link  601 at Sun May 10 00:24:58 2020, MaxMem= 1073741824 cpu:       0.8
 (Enter /home/matheus/.gaussian/g09/l122.exe)
 Counterpoise: doing DCBS calculation for fragment   1 NewBq=T
 Leave Link  122 at Sun May 10 00:24:58 2020, MaxMem= 1073741824 cpu:       0.0
 (Enter /home/matheus/.gaussian/g09/l301.exe)
 Basis read from rwf:  (5D, 7F)
 No pseudopotential information found on rwf file.
 There are   197 symmetry adapted basis functions of A   symmetry.
 Integral buffers will be    131072 words long.
 Raffenetti 2 integral format.
 Two-electron integral symmetry is turned on.
   197 basis functions,   415 primitive gaussians,   229 cartesian basis functions
     9 alpha electrons        9 beta electrons
       nuclear repulsion energy        36.6019262901 Hartrees.
 IExCor= 4639 DFT=T Ex+Corr=wB97XD ExCW=0 ScaHFX=  1.000000
 ScaDFX=  1.000000  1.000000  1.000000  1.000000 ScalE2=  1.000000  1.000000
 IRadAn=      5 IRanWt=     -1 IRanGd=            0 ICorTp=0
  HFx wShort=  0.000000 wLong=  0.200000 cFull=  0.222036 cShort=  0.000000 cLong=  0.777964
  DFx wShort=  0.000000 wLong=  0.200000 cFull=  0.000000 cShort=  0.000000 cLong=  1.000000
 NAtoms=    5 NActive=    5 NUniq=    5 SFac= 1.00D+00 NAtFMM=   60 NAOKFM=F Big=F
 R6Disp: Dispersion energy =        -0.0002006355 Hartrees.
 Nuclear repulsion after empirical dispersion term =       36.6017256546 Hartrees.
 No density basis found on file   718.
 Leave Link  301 at Sun May 10 00:24:58 2020, MaxMem= 1073741824 cpu:       0.2
 (Enter /home/matheus/.gaussian/g09/l302.exe)
 NPDir=0 NMtPBC=     1 NCelOv=     1 NCel=       1 NClECP=     1 NCelD=      1
         NCelK=      1 NCelE2=     1 NClLst=     1 CellRange=     0.0.
 One-electron integrals computed using PRISM.
 NBasis=   197 RedAO= T  NBF=   197
 NBsUse=   197 1.00D-06 NBFU=   197
 Precomputing XC quadrature grid using
 IXCGrd= 2 IRadAn=           5 IRanWt=          -1 IRanGd=           0 AccXCQ= 0.00D+00.
 NRdTot=     427 NPtTot=      123814 NUsed=      126881 NTot=      126913
 NSgBfM=   229   229   229   229   229 NAtAll=     5     5.
 Leave Link  302 at Sun May 10 00:24:58 2020, MaxMem= 1073741824 cpu:       1.0
 (Enter /home/matheus/.gaussian/g09/l303.exe)
 DipDrv:  MaxL=1.
 Leave Link  303 at Sun May 10 00:24:58 2020, MaxMem= 1073741824 cpu:       0.2
 (Enter /home/matheus/.gaussian/g09/l401.exe)
 Harris functional with IExCor= 4639 diagonalized for initial guess.
 ExpMin= 2.53D-02 ExpMax= 1.17D+07 ExpMxC= 1.33D+04 IAcc=3 IRadAn=         5 AccDes= 0.00D+00
 HarFok:  IExCor= 4639 AccDes= 0.00D+00 IRadAn=         5 IDoV= 1
 ScaDFX=  1.000000  1.000000  1.000000  1.000000
 FoFCou: FMM=F IPFlag=           0 FMFlag=      100000 FMFlg1=           0
         NFxFlg=           0 DoJE=T BraDBF=F KetDBF=T FulRan=T
         Omega=  0.000000  0.000000  1.000000  0.000000  0.000000 ICntrl=     500 IOpCl=  0
         NMat0=    1 NMatS0=    1 NMatT0=    0 NMatD0=    1 NMtDS0=    0 NMtDT0=    0
         I1Cent=           4 NGrid=           0.
 Petite list used in FoFCou.
 Harris En= -146.291709530662    
 Initial guess orbital symmetries:
       Occupied  (A) (A) (A) (A) (A) (A) (A) (A) (A)
       Virtual   (A) (A) (A) (A) (A) (A) (A) (A) (A) (A) (A) (A)
                 (A) (A) (A) (A) (A) (A) (A) (A) (A) (A) (A) (A)
                 (A) (A) (A) (A) (A) (A) (A) (A) (A) (A) (A) (A)
                 (A) (A) (A) (A) (A) (A) (A) (A) (A) (A) (A) (A)
                 (A) (A) (A) (A) (A) (A) (A) (A) (A) (A) (A) (A)
                 (A) (A) (A) (A) (A) (A) (A) (A) (A) (A) (A) (A)
                 (A) (A) (A) (A) (A) (A) (A) (A) (A) (A) (A) (A)
                 (A) (A) (A) (A) (A) (A) (A) (A) (A) (A) (A) (A)
                 (A) (A) (A) (A) (A) (A) (A) (A) (A) (A) (A) (A)
                 (A) (A) (A) (A) (A) (A) (A) (A) (A) (A) (A) (A)
                 (A) (A) (A) (A) (A) (A) (A) (A) (A) (A) (A) (A)
                 (A) (A) (A) (A) (A) (A) (A) (A) (A) (A) (A) (A)
                 (A) (A) (A) (A) (A) (A) (A) (A) (A) (A) (A) (A)
                 (A) (A) (A) (A) (A) (A) (A) (A) (A) (A) (A) (A)
                 (A) (A) (A) (A) (A) (A) (A) (A) (A) (A) (A) (A)
                 (A) (A) (A) (A) (A) (A) (A) (A)
 The electronic state of the initial guess is 1-A.
 Leave Link  401 at Sun May 10 00:24:59 2020, MaxMem= 1073741824 cpu:       4.0
 (Enter /home/matheus/.gaussian/g09/l502.exe)
 Closed shell SCF:
 Requested convergence on RMS density matrix=1.00D-08 within 128 cycles.
 Requested convergence on MAX density matrix=1.00D-06.
 Requested convergence on             energy=1.00D-06.
 No special actions if energy rises.
 Using DIIS extrapolation, IDIIS=  1040.
 Integral symmetry usage will be decided dynamically.
       126823 words used for storage of precomputed grid.
 IEnd=      305770 IEndB=      305770 NGot=  1073741824 MDV=  1073505365
 LenX=  1073505365 LenY=  1073452483
 Fock matrices will be formed incrementally for  20 cycles.

 Cycle   1  Pass 1  IDiag  1:
 FoFJK:  IHMeth= 1 ICntrl=     0 DoSepK=T KAlg= 1 I1Cent= 0 FoldK=F
 FoFCou: FMM=F IPFlag=           0 FMFlag=      100000 FMFlg1=           0
         NFxFlg=           0 DoJE=T BraDBF=F KetDBF=F FulRan=T
         Omega=  0.000000  0.000000  1.000000  0.000000  0.000000 ICntrl=     500 IOpCl=  0
         NMat0=    1 NMatS0=    1 NMatT0=    0 NMatD0=    1 NMtDS0=    0 NMtDT0=    0
         I1Cent=           0 NGrid=           0.
 Symmetry not used in FoFCou.
 E= -151.476989319768    
 DIIS: error= 3.28D-02 at cycle   1 NSaved=   1.
 NSaved= 1 IEnMin= 1 EnMin= -151.476989319768     IErMin= 1 ErrMin= 3.28D-02
 ErrMax= 3.28D-02 EMaxC= 1.00D-01 BMatC= 2.99D-01 BMatP= 2.99D-01
 IDIUse=3 WtCom= 6.72D-01 WtEn= 3.28D-01
 Coeff-Com:  0.100D+01
 Coeff-En:   0.100D+01
 Coeff:      0.100D+01
 Gap=     0.498 Goal=   None    Shift=    0.000
 GapD=    0.498 DampG=2.000 DampE=0.500 DampFc=1.0000 IDamp=-1.
 RMSDP=2.33D-03 MaxDP=1.01D-01              OVMax= 1.09D-01

 Cycle   2  Pass 1  IDiag  1:
 RMSU=  1.62D-03    CP:  9.56D-01
 FoFJK:  IHMeth= 1 ICntrl=     0 DoSepK=T KAlg= 1 I1Cent= 0 FoldK=F
 E= -151.506171659815     Delta-E=       -0.029182340047 Rises=F Damp=F
 DIIS: error= 1.76D-02 at cycle   2 NSaved=   2.
 NSaved= 2 IEnMin= 2 EnMin= -151.506171659815     IErMin= 2 ErrMin= 1.76D-02
 ErrMax= 1.76D-02 EMaxC= 1.00D-01 BMatC= 8.93D-02 BMatP= 2.99D-01
 IDIUse=3 WtCom= 8.24D-01 WtEn= 1.76D-01
 Coeff-Com:  0.331D+00 0.669D+00
 Coeff-En:   0.366D+00 0.634D+00
 Coeff:      0.337D+00 0.663D+00
 Gap=     0.437 Goal=   None    Shift=    0.000
 RMSDP=9.82D-04 MaxDP=4.79D-02 DE=-2.92D-02 OVMax= 5.86D-02

 Cycle   3  Pass 1  IDiag  1:
 RMSU=  3.66D-04    CP:  9.76D-01  6.45D-01
 FoFJK:  IHMeth= 1 ICntrl=     0 DoSepK=T KAlg= 1 I1Cent= 0 FoldK=F
 E= -151.554305871670     Delta-E=       -0.048134211856 Rises=F Damp=F
 DIIS: error= 5.00D-03 at cycle   3 NSaved=   3.
 NSaved= 3 IEnMin= 3 EnMin= -151.554305871670     IErMin= 3 ErrMin= 5.00D-03
 ErrMax= 5.00D-03 EMaxC= 1.00D-01 BMatC= 6.36D-03 BMatP= 8.93D-02
 IDIUse=3 WtCom= 9.50D-01 WtEn= 5.00D-02
 Coeff-Com:  0.116D-01 0.218D+00 0.770D+00
 Coeff-En:   0.000D+00 0.000D+00 0.100D+01
 Coeff:      0.110D-01 0.207D+00 0.782D+00
 Gap=     0.389 Goal=   None    Shift=    0.000
 RMSDP=2.76D-04 MaxDP=1.24D-02 DE=-4.81D-02 OVMax= 1.64D-02

 Cycle   4  Pass 1  IDiag  1:
 RMSU=  6.34D-05    CP:  9.70D-01  7.49D-01  8.15D-01
 FoFJK:  IHMeth= 1 ICntrl=     0 DoSepK=T KAlg= 1 I1Cent= 0 FoldK=F
 E= -151.558361995984     Delta-E=       -0.004056124313 Rises=F Damp=F
 DIIS: error= 4.35D-04 at cycle   4 NSaved=   4.
 NSaved= 4 IEnMin= 4 EnMin= -151.558361995984     IErMin= 4 ErrMin= 4.35D-04
 ErrMax= 4.35D-04 EMaxC= 1.00D-01 BMatC= 5.11D-05 BMatP= 6.36D-03
 IDIUse=3 WtCom= 9.96D-01 WtEn= 4.35D-03
 Coeff-Com: -0.869D-03-0.165D-02 0.760D-01 0.927D+00
 Coeff-En:   0.000D+00 0.000D+00 0.000D+00 0.100D+01
 Coeff:     -0.865D-03-0.164D-02 0.756D-01 0.927D+00
 Gap=     0.386 Goal=   None    Shift=    0.000
 RMSDP=3.55D-05 MaxDP=1.99D-03 DE=-4.06D-03 OVMax= 1.48D-03

 Cycle   5  Pass 1  IDiag  1:
 RMSU=  1.19D-05    CP:  9.71D-01  7.42D-01  8.60D-01  1.14D+00
 FoFJK:  IHMeth= 1 ICntrl=     0 DoSepK=T KAlg= 1 I1Cent= 0 FoldK=F
 E= -151.558399043657     Delta-E=       -0.000037047673 Rises=F Damp=F
 DIIS: error= 3.88D-05 at cycle   5 NSaved=   5.
 NSaved= 5 IEnMin= 5 EnMin= -151.558399043657     IErMin= 5 ErrMin= 3.88D-05
 ErrMax= 3.88D-05 EMaxC= 1.00D-01 BMatC= 3.55D-07 BMatP= 5.11D-05
 IDIUse=1 WtCom= 1.00D+00 WtEn= 0.00D+00
 Coeff-Com: -0.448D-03-0.874D-02-0.316D-01-0.269D-01 0.107D+01
 Coeff:     -0.448D-03-0.874D-02-0.316D-01-0.269D-01 0.107D+01
 Gap=     0.385 Goal=   None    Shift=    0.000
 RMSDP=8.33D-06 MaxDP=3.59D-04 DE=-3.70D-05 OVMax= 5.78D-04

 Cycle   6  Pass 1  IDiag  1:
 RMSU=  2.21D-06    CP:  9.71D-01  7.42D-01  8.66D-01  1.21D+00  1.23D+00
 FoFJK:  IHMeth= 1 ICntrl=     0 DoSepK=T KAlg= 1 I1Cent= 0 FoldK=F
 E= -151.558399926609     Delta-E=       -0.000000882952 Rises=F Damp=F
 DIIS: error= 1.02D-05 at cycle   6 NSaved=   6.
 NSaved= 6 IEnMin= 6 EnMin= -151.558399926609     IErMin= 6 ErrMin= 1.02D-05
 ErrMax= 1.02D-05 EMaxC= 1.00D-01 BMatC= 2.35D-08 BMatP= 3.55D-07
 IDIUse=1 WtCom= 1.00D+00 WtEn= 0.00D+00
 Coeff-Com: -0.206D-04-0.100D-02-0.616D-02-0.274D-01 0.132D+00 0.903D+00
 Coeff:     -0.206D-04-0.100D-02-0.616D-02-0.274D-01 0.132D+00 0.903D+00
 Gap=     0.385 Goal=   None    Shift=    0.000
 RMSDP=1.37D-06 MaxDP=5.13D-05 DE=-8.83D-07 OVMax= 1.13D-04

 Cycle   7  Pass 1  IDiag  1:
 RMSU=  5.22D-07    CP:  9.71D-01  7.42D-01  8.66D-01  1.21D+00  1.28D+00
                    CP:  1.25D+00
 FoFJK:  IHMeth= 1 ICntrl=     0 DoSepK=T KAlg= 1 I1Cent= 0 FoldK=F
 E= -151.558399960167     Delta-E=       -0.000000033559 Rises=F Damp=F
 DIIS: error= 7.24D-06 at cycle   7 NSaved=   7.
 NSaved= 7 IEnMin= 7 EnMin= -151.558399960167     IErMin= 7 ErrMin= 7.24D-06
 ErrMax= 7.24D-06 EMaxC= 1.00D-01 BMatC= 1.27D-08 BMatP= 2.35D-08
 IDIUse=1 WtCom= 1.00D+00 WtEn= 0.00D+00
 Coeff-Com:  0.186D-04 0.918D-04-0.853D-03-0.118D-01-0.123D-01 0.444D+00
 Coeff-Com:  0.581D+00
 Coeff:      0.186D-04 0.918D-04-0.853D-03-0.118D-01-0.123D-01 0.444D+00
 Coeff:      0.581D+00
 Gap=     0.385 Goal=   None    Shift=    0.000
 RMSDP=4.42D-07 MaxDP=2.02D-05 DE=-3.36D-08 OVMax= 3.33D-05

 Cycle   8  Pass 1  IDiag  1:
 RMSU=  2.05D-07    CP:  9.71D-01  7.42D-01  8.67D-01  1.21D+00  1.28D+00
                    CP:  1.33D+00  8.09D-01
 FoFJK:  IHMeth= 1 ICntrl=     0 DoSepK=T KAlg= 1 I1Cent= 0 FoldK=F
 E= -151.558399969628     Delta-E=       -0.000000009460 Rises=F Damp=F
 DIIS: error= 2.27D-06 at cycle   8 NSaved=   8.
 NSaved= 8 IEnMin= 8 EnMin= -151.558399969628     IErMin= 8 ErrMin= 2.27D-06
 ErrMax= 2.27D-06 EMaxC= 1.00D-01 BMatC= 1.55D-09 BMatP= 1.27D-08
 IDIUse=1 WtCom= 1.00D+00 WtEn= 0.00D+00
 Coeff-Com:  0.766D-05 0.237D-03 0.117D-02 0.242D-02-0.361D-01-0.845D-01
 Coeff-Com:  0.228D+00 0.889D+00
 Coeff:      0.766D-05 0.237D-03 0.117D-02 0.242D-02-0.361D-01-0.845D-01
 Coeff:      0.228D+00 0.889D+00
 Gap=     0.385 Goal=   None    Shift=    0.000
 RMSDP=2.27D-07 MaxDP=7.68D-06 DE=-9.46D-09 OVMax= 2.36D-05

 Cycle   9  Pass 1  IDiag  1:
 RMSU=  6.99D-08    CP:  9.71D-01  7.42D-01  8.67D-01  1.21D+00  1.29D+00
                    CP:  1.37D+00  9.87D-01  1.05D+00
 FoFJK:  IHMeth= 1 ICntrl=     0 DoSepK=T KAlg= 1 I1Cent= 0 FoldK=F
 E= -151.558399971457     Delta-E=       -0.000000001829 Rises=F Damp=F
 DIIS: error= 2.86D-07 at cycle   9 NSaved=   9.
 NSaved= 9 IEnMin= 9 EnMin= -151.558399971457     IErMin= 9 ErrMin= 2.86D-07
 ErrMax= 2.86D-07 EMaxC= 1.00D-01 BMatC= 2.61D-11 BMatP= 1.55D-09
 IDIUse=1 WtCom= 1.00D+00 WtEn= 0.00D+00
 Coeff-Com: -0.515D-06-0.171D-06 0.556D-04 0.444D-03 0.181D-02-0.310D-01
 Coeff-Com: -0.195D-01 0.530D-01 0.995D+00
 Coeff:     -0.515D-06-0.171D-06 0.556D-04 0.444D-03 0.181D-02-0.310D-01
 Coeff:     -0.195D-01 0.530D-01 0.995D+00
 Gap=     0.385 Goal=   None    Shift=    0.000
 RMSDP=5.19D-08 MaxDP=1.09D-06 DE=-1.83D-09 OVMax= 7.10D-06

 Cycle  10  Pass 1  IDiag  1:
 RMSU=  1.56D-08    CP:  9.71D-01  7.42D-01  8.67D-01  1.21D+00  1.29D+00
                    CP:  1.36D+00  1.00D+00  1.13D+00  1.39D+00
 FoFJK:  IHMeth= 1 ICntrl=     0 DoSepK=T KAlg= 1 I1Cent= 0 FoldK=F
 E= -151.558399971537     Delta-E=       -0.000000000080 Rises=F Damp=F
 DIIS: error= 1.40D-07 at cycle  10 NSaved=  10.
 NSaved=10 IEnMin=10 EnMin= -151.558399971537     IErMin=10 ErrMin= 1.40D-07
 ErrMax= 1.40D-07 EMaxC= 1.00D-01 BMatC= 3.98D-12 BMatP= 2.61D-11
 IDIUse=1 WtCom= 1.00D+00 WtEn= 0.00D+00
 Coeff-Com: -0.763D-07-0.124D-04-0.975D-04-0.340D-03 0.279D-02 0.790D-02
 Coeff-Com: -0.127D-01-0.635D-01-0.222D+00 0.129D+01
 Coeff:     -0.763D-07-0.124D-04-0.975D-04-0.340D-03 0.279D-02 0.790D-02
 Coeff:     -0.127D-01-0.635D-01-0.222D+00 0.129D+01
 Gap=     0.385 Goal=   None    Shift=    0.000
 RMSDP=2.98D-08 MaxDP=6.69D-07 DE=-7.97D-11 OVMax= 4.25D-06

 Cycle  11  Pass 1  IDiag  1:
 RMSU=  6.21D-09    CP:  9.71D-01  7.42D-01  8.67D-01  1.21D+00  1.29D+00
                    CP:  1.36D+00  1.01D+00  1.16D+00  1.60D+00  1.61D+00
 FoFJK:  IHMeth= 1 ICntrl=     0 DoSepK=T KAlg= 1 I1Cent= 0 FoldK=F
 E= -151.558399971553     Delta-E=       -0.000000000016 Rises=F Damp=F
 DIIS: error= 4.94D-08 at cycle  11 NSaved=  11.
 NSaved=11 IEnMin=11 EnMin= -151.558399971553     IErMin=11 ErrMin= 4.94D-08
 ErrMax= 4.94D-08 EMaxC= 1.00D-01 BMatC= 2.47D-13 BMatP= 3.98D-12
 IDIUse=1 WtCom= 1.00D+00 WtEn= 0.00D+00
 Coeff-Com: -0.852D-07-0.528D-06 0.265D-05-0.163D-05-0.263D-03 0.517D-03
 Coeff-Com:  0.337D-02 0.749D-02-0.497D-01-0.200D+00 0.124D+01
 Coeff:     -0.852D-07-0.528D-06 0.265D-05-0.163D-05-0.263D-03 0.517D-03
 Coeff:      0.337D-02 0.749D-02-0.497D-01-0.200D+00 0.124D+01
 Gap=     0.385 Goal=   None    Shift=    0.000
 RMSDP=1.00D-08 MaxDP=2.25D-07 DE=-1.61D-11 OVMax= 1.49D-06

 Cycle  12  Pass 1  IDiag  1:
 RMSU=  1.71D-09    CP:  9.71D-01  7.42D-01  8.67D-01  1.21D+00  1.29D+00
                    CP:  1.36D+00  1.01D+00  1.16D+00  1.65D+00  1.86D+00
                    CP:  1.64D+00
 FoFJK:  IHMeth= 1 ICntrl=     0 DoSepK=T KAlg= 1 I1Cent= 0 FoldK=F
 E= -151.558399971555     Delta-E=       -0.000000000002 Rises=F Damp=F
 DIIS: error= 1.21D-08 at cycle  12 NSaved=  12.
 NSaved=12 IEnMin=12 EnMin= -151.558399971555     IErMin=12 ErrMin= 1.21D-08
 ErrMax= 1.21D-08 EMaxC= 1.00D-01 BMatC= 3.26D-14 BMatP= 2.47D-13
 IDIUse=1 WtCom= 1.00D+00 WtEn= 0.00D+00
 Coeff-Com: -0.465D-07 0.672D-06 0.920D-05 0.317D-04-0.248D-03-0.999D-03
 Coeff-Com:  0.130D-02 0.706D-02 0.207D-01-0.153D+00 0.495D-01 0.108D+01
 Coeff:     -0.465D-07 0.672D-06 0.920D-05 0.317D-04-0.248D-03-0.999D-03
 Coeff:      0.130D-02 0.706D-02 0.207D-01-0.153D+00 0.495D-01 0.108D+01
 Gap=     0.385 Goal=   None    Shift=    0.000
 RMSDP=3.40D-09 MaxDP=7.28D-08 DE=-1.90D-12 OVMax= 4.08D-07

 SCF Done:  E(RwB97XD) =  -151.558399972     A.U. after   12 cycles
             Convg  =    0.3398D-08             -V/T =  2.0059
 KE= 1.506662705238D+02 PE=-4.317242815582D+02 EE= 9.289788540824D+01
 Leave Link  502 at Sun May 10 00:25:37 2020, MaxMem= 1073741824 cpu:     307.9
 (Enter /home/matheus/.gaussian/g09/l601.exe)
 Copying SCF densities to generalized density rwf, IOpCl= 0 IROHF=0.

 **********************************************************************

            Population analysis using the SCF density.

 **********************************************************************

 Orbital symmetries:
       Occupied  (A) (A) (A) (A) (A) (A) (A) (A) (A)
       Virtual   (A) (A) (A) (A) (A) (A) (A) (A) (A) (A) (A) (A)
                 (A) (A) (A) (A) (A) (A) (A) (A) (A) (A) (A) (A)
                 (A) (A) (A) (A) (A) (A) (A) (A) (A) (A) (A) (A)
                 (A) (A) (A) (A) (A) (A) (A) (A) (A) (A) (A) (A)
                 (A) (A) (A) (A) (A) (A) (A) (A) (A) (A) (A) (A)
                 (A) (A) (A) (A) (A) (A) (A) (A) (A) (A) (A) (A)
                 (A) (A) (A) (A) (A) (A) (A) (A) (A) (A) (A) (A)
                 (A) (A) (A) (A) (A) (A) (A) (A) (A) (A) (A) (A)
                 (A) (A) (A) (A) (A) (A) (A) (A) (A) (A) (A) (A)
                 (A) (A) (A) (A) (A) (A) (A) (A) (A) (A) (A) (A)
                 (A) (A) (A) (A) (A) (A) (A) (A) (A) (A) (A) (A)
                 (A) (A) (A) (A) (A) (A) (A) (A) (A) (A) (A) (A)
                 (A) (A) (A) (A) (A) (A) (A) (A) (A) (A) (A) (A)
                 (A) (A) (A) (A) (A) (A) (A) (A) (A) (A) (A) (A)
                 (A) (A) (A) (A) (A) (A) (A) (A) (A) (A) (A) (A)
                 (A) (A) (A) (A) (A) (A) (A) (A)
 The electronic state is 1-A.
 Alpha  occ. eigenvalues --  -19.31637 -19.31631  -1.22070  -1.01132  -0.63369
 Alpha  occ. eigenvalues --   -0.59161  -0.50090  -0.43998  -0.35321
 Alpha virt. eigenvalues --    0.03216   0.03679   0.06993   0.09178   0.09458
 Alpha virt. eigenvalues --    0.10708   0.11207   0.14053   0.16646   0.17420
 Alpha virt. eigenvalues --    0.18310   0.20022   0.21242   0.23180   0.26369
 Alpha virt. eigenvalues --    0.27345   0.30088   0.31489   0.32074   0.33581
 Alpha virt. eigenvalues --    0.36697   0.37913   0.38941   0.39569   0.41614
 Alpha virt. eigenvalues --    0.42947   0.44254   0.47199   0.49329   0.49921
 Alpha virt. eigenvalues --    0.54690   0.58035   0.59221   0.64170   0.66821
 Alpha virt. eigenvalues --    0.68435   0.72778   0.73597   0.74572   0.75009
 Alpha virt. eigenvalues --    0.77574   0.81446   0.83945   0.87149   0.89889
 Alpha virt. eigenvalues --    0.90940   0.91956   0.95193   0.97023   0.98922
 Alpha virt. eigenvalues --    0.99868   1.04262   1.04402   1.08630   1.12719
 Alpha virt. eigenvalues --    1.13903   1.15652   1.17286   1.19118   1.23355
 Alpha virt. eigenvalues --    1.25016   1.30473   1.32739   1.32948   1.33896
 Alpha virt. eigenvalues --    1.34502   1.35239   1.37003   1.37388   1.43559
 Alpha virt. eigenvalues --    1.47847   1.49295   1.52209   1.53084   1.55464
 Alpha virt. eigenvalues --    1.56471   1.63745   1.67142   1.71618   1.78348
 Alpha virt. eigenvalues --    1.79588   1.82193   1.87435   1.95152   1.99702
 Alpha virt. eigenvalues --    2.00977   2.04165   2.12911   2.13614   2.19018
 Alpha virt. eigenvalues --    2.23334   2.25400   2.29642   2.34010   2.40997
 Alpha virt. eigenvalues --    2.46127   2.52890   2.53624   2.55718   2.63925
 Alpha virt. eigenvalues --    2.66617   2.69509   2.74287   2.82864   2.91574
 Alpha virt. eigenvalues --    3.04006   3.06323   3.09171   3.26960   3.31211
 Alpha virt. eigenvalues --    3.39833   3.50061   3.59907   3.68364   3.78510
 Alpha virt. eigenvalues --    3.80007   3.80929   3.82900   3.83531   3.84241
 Alpha virt. eigenvalues --    3.88793   3.89831   3.90873   3.92522   3.95175
 Alpha virt. eigenvalues --    3.96726   4.03036   4.07026   4.10079   4.10723
 Alpha virt. eigenvalues --    4.11863   4.17265   4.19651   4.26810   4.34332
 Alpha virt. eigenvalues --    4.40799   4.46660   4.54157   4.71864   4.89232
 Alpha virt. eigenvalues --    4.98303   5.01224   5.04289   5.07850   5.33662
 Alpha virt. eigenvalues --    5.41875   5.81242   5.97160   6.05764   6.10601
 Alpha virt. eigenvalues --    6.29413   6.32685   6.39897   6.46468   6.67634
 Alpha virt. eigenvalues --    6.68979   6.72526   6.79340   6.83967   6.85602
 Alpha virt. eigenvalues --    6.89833   6.91375   6.93518   6.96493   7.00782
 Alpha virt. eigenvalues --    7.20810   7.22997   7.36209   7.61869   7.81784
 Alpha virt. eigenvalues --    8.07376   8.11591  10.89635  14.09484  14.57164
 Alpha virt. eigenvalues --   14.84561  14.89706  15.12246  29.04284  29.04856
 Alpha virt. eigenvalues --   29.09177  29.14960  29.24415  49.11403 148.32553
 Alpha virt. eigenvalues --  148.40117 148.73052 752.50623
          Condensed to atoms (all electrons):
              1          2          3          4          5
     1  O    8.188087  -0.158940   0.184834  -0.001724  -0.006143
     2  O   -0.158940   8.186580   0.005843   0.213756  -0.000863
     3  H    0.184834   0.005843   0.594334   0.005562   0.001141
     4  H   -0.001724   0.213756   0.005562   0.550052  -0.003778
     5  Kr  -0.006143  -0.000863   0.001141  -0.003778   0.001570
 Mulliken atomic charges:
              1
     1  O   -0.206114
     2  O   -0.246376
     3  H    0.208285
     4  H    0.236131
     5  Kr   0.008073
 Sum of Mulliken atomic charges =   0.00000
 Mulliken charges with hydrogens summed into heavy atoms:
              1
     1  O    0.002171
     2  O   -0.010244
     5  Kr   0.008073
 Sum of Mulliken charges with hydrogens summed into heavy atoms =   0.00000
          Condensed to fragments (all electrons):
     1      -0.008073
     2       0.008073
 Electronic spatial extent (au):  <R**2>=            324.3877
 Charge=              0.0000 electrons
 Dipole moment (field-independent basis, Debye):
    X=              0.0914    Y=             -0.0171    Z=              0.5422  Tot=              0.5502
 Quadrupole moment (field-independent basis, Debye-Ang):
   XX=             -9.0643   YY=            -10.6595   ZZ=            -12.9161
   XY=              3.9515   XZ=             -1.6770   YZ=             -0.5600
 Traceless Quadrupole moment (field-independent basis, Debye-Ang):
   XX=              1.8157   YY=              0.2204   ZZ=             -2.0361
   XY=              3.9515   XZ=             -1.6770   YZ=             -0.5600
 Octapole moment (field-independent basis, Debye-Ang**2):
  XXX=             53.5196  YYY=             -1.2470  ZZZ=              0.3254  XYY=             21.6562
  XXY=            -15.8326  XXZ=              5.1235  XZZ=             25.6855  YZZ=             -0.6615
  YYZ=              0.6915  XYZ=              1.7502
 Hexadecapole moment (field-independent basis, Debye-Ang**3):
 XXXX=           -223.7877 YYYY=            -45.4346 ZZZZ=            -11.5508 XXXY=             48.7861
 XXXZ=            -15.2861 YYYX=              4.8973 YYYZ=             -0.6884 ZZZX=             -0.5806
 ZZZY=             -0.3137 XXYY=            -51.2148 XXZZ=            -55.1787 YYZZ=            -11.2930
 XXYZ=             -5.2888 YYXZ=             -1.8915 ZZXY=              0.5559
 N-N= 3.660172565461D+01 E-N=-4.317242810397D+02  KE= 1.506662705238D+02
 No NMR shielding tensors so no spin-rotation constants.
 Leave Link  601 at Sun May 10 00:25:37 2020, MaxMem= 1073741824 cpu:       0.8
 (Enter /home/matheus/.gaussian/g09/l122.exe)
 Counterpoise: doing DCBS calculation for fragment   2 NewBq=T
 Leave Link  122 at Sun May 10 00:25:37 2020, MaxMem= 1073741824 cpu:       0.0
 (Enter /home/matheus/.gaussian/g09/l301.exe)
 Basis read from rwf:  (5D, 7F)
 No pseudopotential information found on rwf file.
 There are   197 symmetry adapted basis functions of A   symmetry.
 Integral buffers will be    131072 words long.
 Raffenetti 2 integral format.
 Two-electron integral symmetry is turned on.
   197 basis functions,   415 primitive gaussians,   229 cartesian basis functions
    18 alpha electrons       18 beta electrons
       nuclear repulsion energy         0.0000000000 Hartrees.
 IExCor= 4639 DFT=T Ex+Corr=wB97XD ExCW=0 ScaHFX=  1.000000
 ScaDFX=  1.000000  1.000000  1.000000  1.000000 ScalE2=  1.000000  1.000000
 IRadAn=      5 IRanWt=     -1 IRanGd=            0 ICorTp=0
  HFx wShort=  0.000000 wLong=  0.200000 cFull=  0.222036 cShort=  0.000000 cLong=  0.777964
  DFx wShort=  0.000000 wLong=  0.200000 cFull=  0.000000 cShort=  0.000000 cLong=  1.000000
 NAtoms=    5 NActive=    5 NUniq=    5 SFac= 1.00D+00 NAtFMM=   60 NAOKFM=F Big=F
 R6Disp: Dispersion energy =         0.0000000000 Hartrees.
 Nuclear repulsion after empirical dispersion term =        0.0000000000 Hartrees.
 No density basis found on file   718.
 Leave Link  301 at Sun May 10 00:25:37 2020, MaxMem= 1073741824 cpu:       0.2
 (Enter /home/matheus/.gaussian/g09/l302.exe)
 NPDir=0 NMtPBC=     1 NCelOv=     1 NCel=       1 NClECP=     1 NCelD=      1
         NCelK=      1 NCelE2=     1 NClLst=     1 CellRange=     0.0.
 One-electron integrals computed using PRISM.
 NBasis=   197 RedAO= T  NBF=   197
 NBsUse=   197 1.00D-06 NBFU=   197
 Precomputing XC quadrature grid using
 IXCGrd= 2 IRadAn=           5 IRanWt=          -1 IRanGd=           0 AccXCQ= 0.00D+00.
 NRdTot=     427 NPtTot=      123814 NUsed=      126881 NTot=      126913
 NSgBfM=   229   229   229   229   229 NAtAll=     5     5.
 Leave Link  302 at Sun May 10 00:25:38 2020, MaxMem= 1073741824 cpu:       1.0
 (Enter /home/matheus/.gaussian/g09/l303.exe)
 DipDrv:  MaxL=1.
 Leave Link  303 at Sun May 10 00:25:38 2020, MaxMem= 1073741824 cpu:       0.2
 (Enter /home/matheus/.gaussian/g09/l401.exe)
 Harris functional with IExCor= 4639 diagonalized for initial guess.
 ExpMin= 2.53D-02 ExpMax= 1.17D+07 ExpMxC= 1.33D+04 IAcc=3 IRadAn=         5 AccDes= 0.00D+00
 HarFok:  IExCor= 4639 AccDes= 0.00D+00 IRadAn=         5 IDoV= 1
 ScaDFX=  1.000000  1.000000  1.000000  1.000000
 FoFCou: FMM=F IPFlag=           0 FMFlag=      100000 FMFlg1=           0
         NFxFlg=           0 DoJE=T BraDBF=F KetDBF=T FulRan=T
         Omega=  0.000000  0.000000  1.000000  0.000000  0.000000 ICntrl=     500 IOpCl=  0
         NMat0=    1 NMatS0=    1 NMatT0=    0 NMatD0=    1 NMtDS0=    0 NMtDT0=    0
         I1Cent=           4 NGrid=           0.
 Petite list used in FoFCou.
 Harris En= -2730.20434929358    
 Initial guess orbital symmetries:
       Occupied  (A) (A) (A) (A) (A) (A) (A) (A) (A) (A) (A) (A)
                 (A) (A) (A) (A) (A) (A)
       Virtual   (A) (A) (A) (A) (A) (A) (A) (A) (A) (A) (A) (A)
                 (A) (A) (A) (A) (A) (A) (A) (A) (A) (A) (A) (A)
                 (A) (A) (A) (A) (A) (A) (A) (A) (A) (A) (A) (A)
                 (A) (A) (A) (A) (A) (A) (A) (A) (A) (A) (A) (A)
                 (A) (A) (A) (A) (A) (A) (A) (A) (A) (A) (A) (A)
                 (A) (A) (A) (A) (A) (A) (A) (A) (A) (A) (A) (A)
                 (A) (A) (A) (A) (A) (A) (A) (A) (A) (A) (A) (A)
                 (A) (A) (A) (A) (A) (A) (A) (A) (A) (A) (A) (A)
                 (A) (A) (A) (A) (A) (A) (A) (A) (A) (A) (A) (A)
                 (A) (A) (A) (A) (A) (A) (A) (A) (A) (A) (A) (A)
                 (A) (A) (A) (A) (A) (A) (A) (A) (A) (A) (A) (A)
                 (A) (A) (A) (A) (A) (A) (A) (A) (A) (A) (A) (A)
                 (A) (A) (A) (A) (A) (A) (A) (A) (A) (A) (A) (A)
                 (A) (A) (A) (A) (A) (A) (A) (A) (A) (A) (A) (A)
                 (A) (A) (A) (A) (A) (A) (A) (A) (A) (A) (A)
 The electronic state of the initial guess is 1-A.
 Leave Link  401 at Sun May 10 00:25:38 2020, MaxMem= 1073741824 cpu:       4.4
 (Enter /home/matheus/.gaussian/g09/l502.exe)
 Closed shell SCF:
 Requested convergence on RMS density matrix=1.00D-08 within 128 cycles.
 Requested convergence on MAX density matrix=1.00D-06.
 Requested convergence on             energy=1.00D-06.
 No special actions if energy rises.
 Using DIIS extrapolation, IDIIS=  1040.
 Integral symmetry usage will be decided dynamically.
       126823 words used for storage of precomputed grid.
 IEnd=      305770 IEndB=      305770 NGot=  1073741824 MDV=  1073505365
 LenX=  1073505365 LenY=  1073452483
 Fock matrices will be formed incrementally for  20 cycles.

 Cycle   1  Pass 1  IDiag  1:
 FoFJK:  IHMeth= 1 ICntrl=     0 DoSepK=T KAlg= 1 I1Cent= 0 FoldK=F
 FoFCou: FMM=F IPFlag=           0 FMFlag=      100000 FMFlg1=           0
         NFxFlg=           0 DoJE=T BraDBF=F KetDBF=F FulRan=T
         Omega=  0.000000  0.000000  1.000000  0.000000  0.000000 ICntrl=     500 IOpCl=  0
         NMat0=    1 NMatS0=    1 NMatT0=    0 NMatD0=    1 NMtDS0=    0 NMtDT0=    0
         I1Cent=           0 NGrid=           0.
 Symmetry not used in FoFCou.
 E= -2753.46460675453    
 DIIS: error= 7.44D-02 at cycle   1 NSaved=   1.
 NSaved= 1 IEnMin= 1 EnMin= -2753.46460675453     IErMin= 1 ErrMin= 7.44D-02
 ErrMax= 7.44D-02 EMaxC= 1.00D-01 BMatC= 1.87D+00 BMatP= 1.87D+00
 IDIUse=3 WtCom= 2.56D-01 WtEn= 7.44D-01
 Coeff-Com:  0.100D+01
 Coeff-En:   0.100D+01
 Coeff:      0.100D+01
 Gap=     0.634 Goal=   None    Shift=    0.000
 GapD=    0.634 DampG=2.000 DampE=0.500 DampFc=1.0000 IDamp=-1.
 RMSDP=5.64D-03 MaxDP=3.67D-01              OVMax= 1.78D-01

 Cycle   2  Pass 1  IDiag  1:
 RMSU=  3.93D-03    CP:  1.04D+00
 FoFJK:  IHMeth= 1 ICntrl=     0 DoSepK=T KAlg= 1 I1Cent= 0 FoldK=F
 E= -2753.72410582267     Delta-E=       -0.259499068135 Rises=F Damp=F
 DIIS: error= 3.63D-02 at cycle   2 NSaved=   2.
 NSaved= 2 IEnMin= 2 EnMin= -2753.72410582267     IErMin= 2 ErrMin= 3.63D-02
 ErrMax= 3.63D-02 EMaxC= 1.00D-01 BMatC= 4.75D-01 BMatP= 1.87D+00
 IDIUse=3 WtCom= 6.37D-01 WtEn= 3.63D-01
 Coeff-Com:  0.330D+00 0.670D+00
 Coeff-En:   0.183D+00 0.817D+00
 Coeff:      0.277D+00 0.723D+00
 Gap=     0.471 Goal=   None    Shift=    0.000
 RMSDP=2.56D-03 MaxDP=1.61D-01 DE=-2.59D-01 OVMax= 7.97D-02

 Cycle   3  Pass 1  IDiag  1:
 RMSU=  3.75D-04    CP:  1.03D+00  5.55D-01
 FoFJK:  IHMeth= 1 ICntrl=     0 DoSepK=T KAlg= 1 I1Cent= 0 FoldK=F
 E= -2753.87064788610     Delta-E=       -0.146542063435 Rises=F Damp=F
 DIIS: error= 5.46D-03 at cycle   3 NSaved=   3.
 NSaved= 3 IEnMin= 3 EnMin= -2753.87064788610     IErMin= 3 ErrMin= 5.46D-03
 ErrMax= 5.46D-03 EMaxC= 1.00D-01 BMatC= 1.16D-02 BMatP= 4.75D-01
 IDIUse=3 WtCom= 9.45D-01 WtEn= 5.46D-02
 Coeff-Com: -0.570D-02 0.126D+00 0.879D+00
 Coeff-En:   0.000D+00 0.000D+00 0.100D+01
 Coeff:     -0.539D-02 0.119D+00 0.886D+00
 Gap=     0.500 Goal=   None    Shift=    0.000
 RMSDP=3.22D-04 MaxDP=1.83D-02 DE=-1.47D-01 OVMax= 1.33D-02

 Cycle   4  Pass 1  IDiag  1:
 RMSU=  4.54D-05    CP:  1.03D+00  6.11D-01  9.37D-01
 FoFJK:  IHMeth= 1 ICntrl=     0 DoSepK=T KAlg= 1 I1Cent= 0 FoldK=F
 E= -2753.87434337744     Delta-E=       -0.003695491338 Rises=F Damp=F
 DIIS: error= 2.90D-04 at cycle   4 NSaved=   4.
 NSaved= 4 IEnMin= 4 EnMin= -2753.87434337744     IErMin= 4 ErrMin= 2.90D-04
 ErrMax= 2.90D-04 EMaxC= 1.00D-01 BMatC= 2.65D-05 BMatP= 1.16D-02
 IDIUse=3 WtCom= 9.97D-01 WtEn= 2.90D-03
 Coeff-Com: -0.804D-03-0.157D-01-0.419D-01 0.106D+01
 Coeff-En:   0.000D+00 0.000D+00 0.000D+00 0.100D+01
 Coeff:     -0.801D-03-0.156D-01-0.417D-01 0.106D+01
 Gap=     0.498 Goal=   None    Shift=    0.000
 RMSDP=2.49D-05 MaxDP=9.29D-04 DE=-3.70D-03 OVMax= 8.35D-04

 Cycle   5  Pass 1  IDiag  1:
 RMSU=  1.15D-05    CP:  1.03D+00  6.09D-01  9.57D-01  1.12D+00
 FoFJK:  IHMeth= 1 ICntrl=     0 DoSepK=T KAlg= 1 I1Cent= 0 FoldK=F
 E= -2753.87435521177     Delta-E=       -0.000011834335 Rises=F Damp=F
 DIIS: error= 1.09D-05 at cycle   5 NSaved=   5.
 NSaved= 5 IEnMin= 5 EnMin= -2753.87435521177     IErMin= 5 ErrMin= 1.09D-05
 ErrMax= 1.09D-05 EMaxC= 1.00D-01 BMatC= 3.72D-08 BMatP= 2.65D-05
 IDIUse=1 WtCom= 1.00D+00 WtEn= 0.00D+00
 Coeff-Com:  0.121D-03-0.780D-03-0.858D-02-0.350D-01 0.104D+01
 Coeff:      0.121D-03-0.780D-03-0.858D-02-0.350D-01 0.104D+01
 Gap=     0.498 Goal=   None    Shift=    0.000
 RMSDP=2.59D-06 MaxDP=1.15D-04 DE=-1.18D-05 OVMax= 1.87D-04

 Cycle   6  Pass 1  IDiag  1:
 RMSU=  9.32D-07    CP:  1.03D+00  6.09D-01  9.58D-01  1.14D+00  1.09D+00
 FoFJK:  IHMeth= 1 ICntrl=     0 DoSepK=T KAlg= 1 I1Cent= 0 FoldK=F
 E= -2753.87435533288     Delta-E=       -0.000000121103 Rises=F Damp=F
 DIIS: error= 4.13D-06 at cycle   6 NSaved=   6.
 NSaved= 6 IEnMin= 6 EnMin= -2753.87435533288     IErMin= 6 ErrMin= 4.13D-06
 ErrMax= 4.13D-06 EMaxC= 1.00D-01 BMatC= 4.09D-09 BMatP= 3.72D-08
 IDIUse=1 WtCom= 1.00D+00 WtEn= 0.00D+00
 Coeff-Com:  0.635D-05 0.231D-03 0.105D-03-0.366D-01 0.551D-01 0.981D+00
 Coeff:      0.635D-05 0.231D-03 0.105D-03-0.366D-01 0.551D-01 0.981D+00
 Gap=     0.498 Goal=   None    Shift=    0.000
 RMSDP=6.12D-07 MaxDP=2.64D-05 DE=-1.21D-07 OVMax= 2.75D-05

 Cycle   7  Pass 1  IDiag  1:
 RMSU=  9.78D-08    CP:  1.03D+00  6.09D-01  9.59D-01  1.14D+00  1.11D+00
                    CP:  1.20D+00
 FoFJK:  IHMeth= 1 ICntrl=     0 DoSepK=T KAlg= 1 I1Cent= 0 FoldK=F
 E= -2753.87435533719     Delta-E=       -0.000000004313 Rises=F Damp=F
 DIIS: error= 2.51D-07 at cycle   7 NSaved=   7.
 NSaved= 7 IEnMin= 7 EnMin= -2753.87435533719     IErMin= 7 ErrMin= 2.51D-07
 ErrMax= 2.51D-07 EMaxC= 1.00D-01 BMatC= 3.20D-11 BMatP= 4.09D-09
 IDIUse=1 WtCom= 1.00D+00 WtEn= 0.00D+00
 Coeff-Com:  0.388D-06 0.681D-04 0.138D-03-0.818D-02 0.389D-02 0.214D+00
 Coeff-Com:  0.790D+00
 Coeff:      0.388D-06 0.681D-04 0.138D-03-0.818D-02 0.389D-02 0.214D+00
 Coeff:      0.790D+00
 Gap=     0.498 Goal=   None    Shift=    0.000
 RMSDP=4.57D-08 MaxDP=1.46D-06 DE=-4.31D-09 OVMax= 2.46D-06

 Cycle   8  Pass 1  IDiag  1:
 RMSU=  1.74D-08    CP:  1.03D+00  6.09D-01  9.59D-01  1.14D+00  1.11D+00
                    CP:  1.22D+00  1.06D+00
 FoFJK:  IHMeth= 1 ICntrl=     0 DoSepK=T KAlg= 1 I1Cent= 0 FoldK=F
 E= -2753.87435533722     Delta-E=       -0.000000000034 Rises=F Damp=F
 DIIS: error= 6.55D-08 at cycle   8 NSaved=   8.
 NSaved= 8 IEnMin= 8 EnMin= -2753.87435533722     IErMin= 8 ErrMin= 6.55D-08
 ErrMax= 6.55D-08 EMaxC= 1.00D-01 BMatC= 1.66D-12 BMatP= 3.20D-11
 IDIUse=1 WtCom= 1.00D+00 WtEn= 0.00D+00
 Coeff-Com: -0.138D-06-0.409D-05 0.232D-04 0.156D-02-0.278D-02-0.435D-01
 Coeff-Com:  0.646D-01 0.980D+00
 Coeff:     -0.138D-06-0.409D-05 0.232D-04 0.156D-02-0.278D-02-0.435D-01
 Coeff:      0.646D-01 0.980D+00
 Gap=     0.498 Goal=   None    Shift=    0.000
 RMSDP=2.07D-08 MaxDP=8.57D-07 DE=-3.37D-11 OVMax= 5.37D-07

 Cycle   9  Pass 1  IDiag  1:
 RMSU=  3.42D-09    CP:  1.03D+00  6.09D-01  9.59D-01  1.14D+00  1.11D+00
                    CP:  1.23D+00  1.12D+00  1.11D+00
 FoFJK:  IHMeth= 1 ICntrl=     0 DoSepK=T KAlg= 1 I1Cent= 0 FoldK=F
 E= -2753.87435533722     Delta-E=        0.000000000004 Rises=F Damp=F
 DIIS: error= 7.15D-09 at cycle   9 NSaved=   9.
 NSaved= 9 IEnMin= 8 EnMin= -2753.87435533722     IErMin= 9 ErrMin= 7.15D-09
 ErrMax= 7.15D-09 EMaxC= 1.00D-01 BMatC= 6.83D-15 BMatP= 1.66D-12
 IDIUse=1 WtCom= 1.00D+00 WtEn= 0.00D+00
 Coeff-Com:  0.109D-07 0.182D-06-0.227D-05-0.135D-03 0.830D-04 0.470D-02
 Coeff-Com: -0.140D-01-0.139D+00 0.115D+01
 Coeff:      0.109D-07 0.182D-06-0.227D-05-0.135D-03 0.830D-04 0.470D-02
 Coeff:     -0.140D-01-0.139D+00 0.115D+01
 Gap=     0.498 Goal=   None    Shift=    0.000
 RMSDP=1.88D-09 MaxDP=7.41D-08 DE= 4.09D-12 OVMax= 9.56D-08

 SCF Done:  E(RwB97XD) =  -2753.87435534     A.U. after    9 cycles
             Convg  =    0.1883D-08             -V/T =  2.0013
 KE= 2.750260619567D+03 PE=-6.580199090964D+03 EE= 1.076064116060D+03
 Leave Link  502 at Sun May 10 00:26:08 2020, MaxMem= 1073741824 cpu:     236.8
 (Enter /home/matheus/.gaussian/g09/l601.exe)
 Copying SCF densities to generalized density rwf, IOpCl= 0 IROHF=0.

 **********************************************************************

            Population analysis using the SCF density.

 **********************************************************************

 Orbital symmetries:
       Occupied  (A) (A) (A) (A) (A) (A) (A) (A) (A) (A) (A) (A)
                 (A) (A) (A) (A) (A) (A)
       Virtual   (A) (A) (A) (A) (A) (A) (A) (A) (A) (A) (A) (A)
                 (A) (A) (A) (A) (A) (A) (A) (A) (A) (A) (A) (A)
                 (A) (A) (A) (A) (A) (A) (A) (A) (A) (A) (A) (A)
                 (A) (A) (A) (A) (A) (A) (A) (A) (A) (A) (A) (A)
                 (A) (A) (A) (A) (A) (A) (A) (A) (A) (A) (A) (A)
                 (A) (A) (A) (A) (A) (A) (A) (A) (A) (A) (A) (A)
                 (A) (A) (A) (A) (A) (A) (A) (A) (A) (A) (A) (A)
                 (A) (A) (A) (A) (A) (A) (A) (A) (A) (A) (A) (A)
                 (A) (A) (A) (A) (A) (A) (A) (A) (A) (A) (A) (A)
                 (A) (A) (A) (A) (A) (A) (A) (A) (A) (A) (A) (A)
                 (A) (A) (A) (A) (A) (A) (A) (A) (A) (A) (A) (A)
                 (A) (A) (A) (A) (A) (A) (A) (A) (A) (A) (A) (A)
                 (A) (A) (A) (A) (A) (A) (A) (A) (A) (A) (A) (A)
                 (A) (A) (A) (A) (A) (A) (A) (A) (A) (A) (A) (A)
                 (A) (A) (A) (A) (A) (A) (A) (A) (A) (A) (A)
 The electronic state is 1-A.
 Alpha  occ. eigenvalues -- -513.05922 -67.32596 -60.87472 -60.87470 -60.87470
 Alpha  occ. eigenvalues --   -9.77891  -7.47187  -7.47186  -7.47186  -3.33929
 Alpha  occ. eigenvalues --   -3.33928  -3.33928  -3.33927  -3.33927  -0.98489
 Alpha  occ. eigenvalues --   -0.46647  -0.46643  -0.46642
 Alpha virt. eigenvalues --    0.03144   0.05122   0.08641   0.10271   0.11249
 Alpha virt. eigenvalues --    0.12552   0.13315   0.14766   0.16661   0.17300
 Alpha virt. eigenvalues --    0.18108   0.19662   0.21049   0.25543   0.26332
 Alpha virt. eigenvalues --    0.27093   0.27819   0.31642   0.33719   0.35077
 Alpha virt. eigenvalues --    0.35230   0.37160   0.37938   0.38805   0.41429
 Alpha virt. eigenvalues --    0.42710   0.43223   0.51874   0.54357   0.56818
 Alpha virt. eigenvalues --    0.60041   0.66043   0.67080   0.68896   0.71013
 Alpha virt. eigenvalues --    0.74118   0.74279   0.74853   0.76113   0.76624
 Alpha virt. eigenvalues --    0.80055   0.80563   0.83096   0.84370   0.84686
 Alpha virt. eigenvalues --    0.86579   0.87754   0.89112   0.90932   0.94247
 Alpha virt. eigenvalues --    0.96804   0.97983   1.00761   1.01579   1.02775
 Alpha virt. eigenvalues --    1.04946   1.05920   1.07268   1.12157   1.12722
 Alpha virt. eigenvalues --    1.15646   1.16364   1.17978   1.26094   1.27313
 Alpha virt. eigenvalues --    1.31902   1.34816   1.41806   1.42888   1.43263
 Alpha virt. eigenvalues --    1.56847   1.58878   1.67233   1.75878   1.76878
 Alpha virt. eigenvalues --    1.83086   1.86173   1.87076   1.88350   2.14196
 Alpha virt. eigenvalues --    2.18618   2.25854   2.26324   2.28793   2.29374
 Alpha virt. eigenvalues --    2.31457   2.33374   2.34923   2.38095   2.39108
 Alpha virt. eigenvalues --    2.41867   2.46198   2.46562   2.47164   2.49193
 Alpha virt. eigenvalues --    2.51351   2.52896   2.54209   2.56055   2.58960
 Alpha virt. eigenvalues --    2.61256   2.61998   2.62812   2.64729   2.66174
 Alpha virt. eigenvalues --    2.69874   2.71777   2.76986   2.77575   2.88176
 Alpha virt. eigenvalues --    2.89587   3.01505   3.05118   3.11887   3.14916
 Alpha virt. eigenvalues --    3.23509   3.28350   3.30999   3.36040   3.52954
 Alpha virt. eigenvalues --    3.60575   3.65210   3.84870   3.87944   4.03885
 Alpha virt. eigenvalues --    4.34373   4.45859   4.53902   4.56735   4.61781
 Alpha virt. eigenvalues --    4.72971   4.89573   4.90778   4.95023   5.04961
 Alpha virt. eigenvalues --    5.12195   5.15264   5.59565   5.67293   5.89792
 Alpha virt. eigenvalues --    5.91275   5.95546   6.18896   6.84598   6.90489
 Alpha virt. eigenvalues --    7.28482   7.41865   7.62233   7.65485   7.73181
 Alpha virt. eigenvalues --    7.81491   8.07666   8.10733   8.18048   8.24895
 Alpha virt. eigenvalues --    8.35835   8.38929   8.68250   8.90313   9.63706
 Alpha virt. eigenvalues --    9.71088   9.78330   9.86284   9.97229  10.05804
 Alpha virt. eigenvalues --   10.17721  10.23321  10.49686  10.93908  11.45677
 Alpha virt. eigenvalues --   11.57232  11.62733  12.03748  12.11702  13.22981
 Alpha virt. eigenvalues --   13.67793  14.53793  62.88503  64.53897
          Condensed to atoms (all electrons):
              1          2          3          4          5
     1  O    0.003392  -0.003025  -0.001548   0.001639  -0.010819
     2  O   -0.003025   0.007415   0.001119  -0.004605  -0.004639
     3  H   -0.001548   0.001119   0.000891  -0.000527   0.001713
     4  H    0.001639  -0.004605  -0.000527   0.004378  -0.021263
     5  Kr  -0.010819  -0.004639   0.001713  -0.021263  36.067833
 Mulliken atomic charges:
              1
     1  O    0.010361
     2  O    0.003734
     3  H   -0.001648
     4  H    0.020378
     5  Kr  -0.032826
 Sum of Mulliken atomic charges =   0.00000
 Mulliken charges with hydrogens summed into heavy atoms:
              1
     1  O    0.008713
     2  O    0.024113
     5  Kr  -0.032826
 Sum of Mulliken charges with hydrogens summed into heavy atoms =   0.00000
          Condensed to fragments (all electrons):
     1       0.032826
     2      -0.032826
 Electronic spatial extent (au):  <R**2>=            167.6406
 Charge=              0.0000 electrons
 Dipole moment (field-independent basis, Debye):
    X=             -0.0005    Y=              0.0006    Z=              0.0000  Tot=              0.0007
 Quadrupole moment (field-independent basis, Debye-Ang):
   XX=            -17.6278   YY=            -17.6405   ZZ=            -17.6474
   XY=             -0.0051   XZ=              0.0000   YZ=              0.0001
 Traceless Quadrupole moment (field-independent basis, Debye-Ang):
   XX=              0.0107   YY=             -0.0019   ZZ=             -0.0088
   XY=             -0.0051   XZ=              0.0000   YZ=              0.0001
 Octapole moment (field-independent basis, Debye-Ang**2):
  XXX=            -52.8191  YYY=              0.9818  ZZZ=             -0.1011  XYY=            -17.6196
  XXY=              0.3152  XXZ=             -0.0341  XZZ=            -17.6235  YZZ=              0.3276
  YYZ=             -0.0333  XYZ=              0.0003
 Hexadecapole moment (field-independent basis, Debye-Ang**3):
 XXXX=           -123.9305 YYYY=            -18.4691 ZZZZ=            -18.4494 XXXY=              0.9518
 XXXZ=             -0.1020 YYYX=              0.9624 YYYZ=              0.0011 ZZZX=             -0.1013
 ZZZY=              0.0023 XXYY=            -23.7440 XXZZ=            -23.7431 YYZZ=             -6.1492
 XXYZ=              0.0007 YYXZ=             -0.0339 ZZXY=              0.3196
 N-N= 0.000000000000D+00 E-N=-6.580199091716D+03  KE= 2.750260619567D+03
 No NMR shielding tensors so no spin-rotation constants.
 Leave Link  601 at Sun May 10 00:26:08 2020, MaxMem= 1073741824 cpu:       0.7
 (Enter /home/matheus/.gaussian/g09/l122.exe)
 Counterpoise: doing MCBS calculation for fragment   1
 Leave Link  122 at Sun May 10 00:26:08 2020, MaxMem= 1073741824 cpu:       0.0
 (Enter /home/matheus/.gaussian/g09/l301.exe)
 Basis read from rwf:  (5D, 7F)
 No pseudopotential information found on rwf file.
 There are   138 symmetry adapted basis functions of A   symmetry.
 Integral buffers will be    131072 words long.
 Raffenetti 2 integral format.
 Two-electron integral symmetry is turned on.
   138 basis functions,   198 primitive gaussians,   160 cartesian basis functions
     9 alpha electrons        9 beta electrons
       nuclear repulsion energy        36.6019262901 Hartrees.
 IExCor= 4639 DFT=T Ex+Corr=wB97XD ExCW=0 ScaHFX=  1.000000
 ScaDFX=  1.000000  1.000000  1.000000  1.000000 ScalE2=  1.000000  1.000000
 IRadAn=      5 IRanWt=     -1 IRanGd=            0 ICorTp=0
  HFx wShort=  0.000000 wLong=  0.200000 cFull=  0.222036 cShort=  0.000000 cLong=  0.777964
  DFx wShort=  0.000000 wLong=  0.200000 cFull=  0.000000 cShort=  0.000000 cLong=  1.000000
 NAtoms=    5 NActive=    4 NUniq=    4 SFac= 1.00D+00 NAtFMM=   60 NAOKFM=F Big=F
 R6Disp: Dispersion energy =        -0.0002006355 Hartrees.
 Nuclear repulsion after empirical dispersion term =       36.6017256546 Hartrees.
 No density basis found on file   718.
 Leave Link  301 at Sun May 10 00:26:08 2020, MaxMem= 1073741824 cpu:       0.2
 (Enter /home/matheus/.gaussian/g09/l302.exe)
 NPDir=0 NMtPBC=     1 NCelOv=     1 NCel=       1 NClECP=     1 NCelD=      1
         NCelK=      1 NCelE2=     1 NClLst=     1 CellRange=     0.0.
 One-electron integrals computed using PRISM.
 NBasis=   138 RedAO= T  NBF=   138
 NBsUse=   138 1.00D-06 NBFU=   138
 Precomputing XC quadrature grid using
 IXCGrd= 2 IRadAn=           5 IRanWt=          -1 IRanGd=           0 AccXCQ= 0.00D+00.
 NRdTot=     344 NPtTot=       92556 NUsed=       95038 NTot=       95070
 NSgBfM=   160   160   160   160   160 NAtAll=     4     4.
 Leave Link  302 at Sun May 10 00:26:08 2020, MaxMem= 1073741824 cpu:       0.8
 (Enter /home/matheus/.gaussian/g09/l303.exe)
 DipDrv:  MaxL=1.
 Leave Link  303 at Sun May 10 00:26:08 2020, MaxMem= 1073741824 cpu:       0.1
 (Enter /home/matheus/.gaussian/g09/l401.exe)
 Harris functional with IExCor= 4639 diagonalized for initial guess.
 ExpMin= 2.53D-02 ExpMax= 1.53D+04 ExpMxC= 5.22D+02 IAcc=3 IRadAn=         5 AccDes= 0.00D+00
 HarFok:  IExCor= 4639 AccDes= 0.00D+00 IRadAn=         5 IDoV= 1
 ScaDFX=  1.000000  1.000000  1.000000  1.000000
 FoFCou: FMM=F IPFlag=           0 FMFlag=      100000 FMFlg1=           0
         NFxFlg=           0 DoJE=T BraDBF=F KetDBF=T FulRan=T
         Omega=  0.000000  0.000000  1.000000  0.000000  0.000000 ICntrl=     500 IOpCl=  0
         NMat0=    1 NMatS0=    1 NMatT0=    0 NMatD0=    1 NMtDS0=    0 NMtDT0=    0
         I1Cent=           4 NGrid=           0.
 Petite list used in FoFCou.
 Harris En= -146.291634969733    
 Initial guess orbital symmetries:
       Occupied  (A) (A) (A) (A) (A) (A) (A) (A) (A)
       Virtual   (A) (A) (A) (A) (A) (A) (A) (A) (A) (A) (A) (A)
                 (A) (A) (A) (A) (A) (A) (A) (A) (A) (A) (A) (A)
                 (A) (A) (A) (A) (A) (A) (A) (A) (A) (A) (A) (A)
                 (A) (A) (A) (A) (A) (A) (A) (A) (A) (A) (A) (A)
                 (A) (A) (A) (A) (A) (A) (A) (A) (A) (A) (A) (A)
                 (A) (A) (A) (A) (A) (A) (A) (A) (A) (A) (A) (A)
                 (A) (A) (A) (A) (A) (A) (A) (A) (A) (A) (A) (A)
                 (A) (A) (A) (A) (A) (A) (A) (A) (A) (A) (A) (A)
                 (A) (A) (A) (A) (A) (A) (A) (A) (A) (A) (A) (A)
                 (A) (A) (A) (A) (A) (A) (A) (A) (A) (A) (A) (A)
                 (A) (A) (A) (A) (A) (A) (A) (A) (A)
 The electronic state of the initial guess is 1-A.
 Leave Link  401 at Sun May 10 00:26:08 2020, MaxMem= 1073741824 cpu:       2.3
 (Enter /home/matheus/.gaussian/g09/l502.exe)
 Closed shell SCF:
 Requested convergence on RMS density matrix=1.00D-08 within 128 cycles.
 Requested convergence on MAX density matrix=1.00D-06.
 Requested convergence on             energy=1.00D-06.
 No special actions if energy rises.
 Using DIIS extrapolation, IDIIS=  1040.
 Integral symmetry usage will be decided dynamically.
        94980 words used for storage of precomputed grid.
 IEnd=      192360 IEndB=      192360 NGot=  1073741824 MDV=  1073591865
 LenX=  1073591865 LenY=  1073565824
 Fock matrices will be formed incrementally for  20 cycles.

 Cycle   1  Pass 1  IDiag  1:
 FoFJK:  IHMeth= 1 ICntrl=     0 DoSepK=T KAlg= 1 I1Cent= 0 FoldK=F
 FoFCou: FMM=F IPFlag=           0 FMFlag=      100000 FMFlg1=           0
         NFxFlg=           0 DoJE=T BraDBF=F KetDBF=F FulRan=T
         Omega=  0.000000  0.000000  1.000000  0.000000  0.000000 ICntrl=     500 IOpCl=  0
         NMat0=    1 NMatS0=    1 NMatT0=    0 NMatD0=    1 NMtDS0=    0 NMtDT0=    0
         I1Cent=           0 NGrid=           0.
 Symmetry not used in FoFCou.
 E= -151.477005056995    
 DIIS: error= 4.82D-02 at cycle   1 NSaved=   1.
 NSaved= 1 IEnMin= 1 EnMin= -151.477005056995     IErMin= 1 ErrMin= 4.82D-02
 ErrMax= 4.82D-02 EMaxC= 1.00D-01 BMatC= 2.98D-01 BMatP= 2.98D-01
 IDIUse=3 WtCom= 5.18D-01 WtEn= 4.82D-01
 Coeff-Com:  0.100D+01
 Coeff-En:   0.100D+01
 Coeff:      0.100D+01
 Gap=     0.499 Goal=   None    Shift=    0.000
 GapD=    0.499 DampG=2.000 DampE=0.500 DampFc=1.0000 IDamp=-1.
 RMSDP=3.25D-03 MaxDP=1.00D-01              OVMax= 1.09D-01

 Cycle   2  Pass 1  IDiag  1:
 RMSU=  2.26D-03    CP:  9.59D-01
 FoFJK:  IHMeth= 1 ICntrl=     0 DoSepK=T KAlg= 1 I1Cent= 0 FoldK=F
 E= -151.506136884812     Delta-E=       -0.029131827817 Rises=F Damp=F
 DIIS: error= 2.71D-02 at cycle   2 NSaved=   2.
[...]
 E= -2753.87423862481     Delta-E=       -0.000000000187 Rises=F Damp=F
 DIIS: error= 4.99D-07 at cycle   4 NSaved=   4.
 NSaved= 4 IEnMin= 4 EnMin= -2753.87423862481     IErMin= 4 ErrMin= 4.99D-07
 ErrMax= 4.99D-07 EMaxC= 1.00D-01 BMatC= 1.77D-11 BMatP= 1.13D-10
 IDIUse=1 WtCom= 1.00D+00 WtEn= 0.00D+00
 Coeff-Com:  0.211D-03-0.519D-01 0.332D+00 0.720D+00
 Coeff:      0.211D-03-0.519D-01 0.332D+00 0.720D+00
 Gap=     0.496 Goal=   None    Shift=    0.000
 RMSDP=2.53D-08 MaxDP=1.16D-06 DE=-1.87D-10 OVMax= 1.44D-06

 Cycle   5  Pass 1  IDiag  1:
 RMSU=  1.11D-08    CP:  1.00D+00  1.08D+00  1.24D+00  1.08D+00
 FoFJK:  IHMeth= 1 ICntrl=     0 DoSepK=T KAlg= 1 I1Cent= 0 FoldK=F
 E= -2753.87423862483     Delta-E=       -0.000000000021 Rises=F Damp=F
 DIIS: error= 2.19D-08 at cycle   5 NSaved=   5.
 NSaved= 5 IEnMin= 5 EnMin= -2753.87423862483     IErMin= 5 ErrMin= 2.19D-08
 ErrMax= 2.19D-08 EMaxC= 1.00D-01 BMatC= 1.43D-13 BMatP= 1.77D-11
 IDIUse=1 WtCom= 1.00D+00 WtEn= 0.00D+00
 Coeff-Com: -0.667D-05 0.460D-02-0.427D-01-0.284D-01 0.107D+01
 Coeff:     -0.667D-05 0.460D-02-0.427D-01-0.284D-01 0.107D+01
 Gap=     0.496 Goal=   None    Shift=    0.000
 RMSDP=1.09D-08 MaxDP=6.79D-07 DE=-2.14D-11 OVMax= 3.72D-07

 Cycle   6  Pass 1  IDiag  1:
 RMSU=  1.43D-09    CP:  1.00D+00  1.08D+00  1.24D+00  1.16D+00  1.16D+00
 FoFJK:  IHMeth= 1 ICntrl=     0 DoSepK=T KAlg= 1 I1Cent= 0 FoldK=F
 E= -2753.87423862483     Delta-E=        0.000000000000 Rises=F Damp=F
 DIIS: error= 8.26D-09 at cycle   6 NSaved=   6.
 NSaved= 6 IEnMin= 6 EnMin= -2753.87423862483     IErMin= 6 ErrMin= 8.26D-09
 ErrMax= 8.26D-09 EMaxC= 1.00D-01 BMatC= 1.75D-14 BMatP= 1.43D-13
 IDIUse=1 WtCom= 1.00D+00 WtEn= 0.00D+00
 Coeff-Com: -0.113D-04 0.344D-02-0.256D-01-0.355D-01 0.291D+00 0.766D+00
 Coeff:     -0.113D-04 0.344D-02-0.256D-01-0.355D-01 0.291D+00 0.766D+00
 Gap=     0.496 Goal=   None    Shift=    0.000
 RMSDP=1.11D-09 MaxDP=6.23D-08 DE=-4.55D-13 OVMax= 5.86D-08

 SCF Done:  E(RwB97XD) =  -2753.87423862     A.U. after    6 cycles
             Convg  =    0.1106D-08             -V/T =  2.0013
 KE= 2.750294597581D+03 PE=-6.580235236464D+03 EE= 1.076066400259D+03
 Leave Link  502 at Sun May 10 00:50:58 2020, MaxMem= 1073741824 cpu:     125.5
 (Enter /home/matheus/.gaussian/g09/l122.exe)
 Restoring MOs from calculation   4 to rwf.
 Counterpoise: doing MCBS calculation for fragment   1
 Leave Link  122 at Sun May 10 00:50:58 2020, MaxMem= 1073741824 cpu:       0.0
 (Enter /home/matheus/.gaussian/g09/l301.exe)
 Basis read from rwf:  (5D, 7F)
 No pseudopotential information found on rwf file.
 There are   138 symmetry adapted basis functions of A   symmetry.
 Integral buffers will be    131072 words long.
 Raffenetti 2 integral format.
 Two-electron integral symmetry is turned on.
   138 basis functions,   198 primitive gaussians,   160 cartesian basis functions
     9 alpha electrons        9 beta electrons
       nuclear repulsion energy        36.6019262901 Hartrees.
 IExCor= 4639 DFT=T Ex+Corr=wB97XD ExCW=0 ScaHFX=  1.000000
 ScaDFX=  1.000000  1.000000  1.000000  1.000000 ScalE2=  1.000000  1.000000
 IRadAn=      5 IRanWt=     -1 IRanGd=            0 ICorTp=0
  HFx wShort=  0.000000 wLong=  0.200000 cFull=  0.222036 cShort=  0.000000 cLong=  0.777964
  DFx wShort=  0.000000 wLong=  0.200000 cFull=  0.000000 cShort=  0.000000 cLong=  1.000000
 NAtoms=    5 NActive=    4 NUniq=    4 SFac= 1.00D+00 NAtFMM=   60 NAOKFM=F Big=F
 R6Disp: Dispersion energy =        -0.0002006355 Hartrees.
 Nuclear repulsion after empirical dispersion term =       36.6017256546 Hartrees.
 No density basis found on file   718.
 Leave Link  301 at Sun May 10 00:50:58 2020, MaxMem= 1073741824 cpu:       0.2
 (Enter /home/matheus/.gaussian/g09/l302.exe)
 NPDir=0 NMtPBC=     1 NCelOv=     1 NCel=       1 NClECP=     1 NCelD=      1
         NCelK=      1 NCelE2=     1 NClLst=     1 CellRange=     0.0.
 One-electron integrals computed using PRISM.
 NBasis=   138 RedAO= T  NBF=   138
 NBsUse=   138 1.00D-06 NBFU=   138
 Precomputing XC quadrature grid using
 IXCGrd= 2 IRadAn=           5 IRanWt=          -1 IRanGd=           0 AccXCQ= 0.00D+00.
 NRdTot=     344 NPtTot=       92556 NUsed=       95038 NTot=       95070
 NSgBfM=   160   160   160   160   160 NAtAll=     4     4.
 Leave Link  302 at Sun May 10 00:50:58 2020, MaxMem= 1073741824 cpu:       0.8
 (Enter /home/matheus/.gaussian/g09/l303.exe)
 DipDrv:  MaxL=1.
 Leave Link  303 at Sun May 10 00:50:58 2020, MaxMem= 1073741824 cpu:       0.1
 (Enter /home/matheus/.gaussian/g09/l401.exe)
 Initial guess read from the read-write file.
 Guess basis will be translated and rotated to current coordinates.
 Initial guess orbital symmetries:
       Occupied  (A) (A) (A) (A) (A) (A) (A) (A) (A)
       Virtual   (A) (A) (A) (A) (A) (A) (A) (A) (A) (A) (A) (A)
                 (A) (A) (A) (A) (A) (A) (A) (A) (A) (A) (A) (A)
                 (A) (A) (A) (A) (A) (A) (A) (A) (A) (A) (A) (A)
                 (A) (A) (A) (A) (A) (A) (A) (A) (A) (A) (A) (A)
                 (A) (A) (A) (A) (A) (A) (A) (A) (A) (A) (A) (A)
                 (A) (A) (A) (A) (A) (A) (A) (A) (A) (A) (A) (A)
                 (A) (A) (A) (A) (A) (A) (A) (A) (A) (A) (A) (A)
                 (A) (A) (A) (A) (A) (A) (A) (A) (A) (A) (A) (A)
                 (A) (A) (A) (A) (A) (A) (A) (A) (A) (A) (A) (A)
                 (A) (A) (A) (A) (A) (A) (A) (A) (A) (A) (A) (A)
                 (A) (A) (A) (A) (A) (A) (A) (A) (A)
 The electronic state of the initial guess is 1-A.
 Generating alternative initial guess.
 Harris functional with IExCor= 4639 diagonalized for initial guess.
 ExpMin= 2.53D-02 ExpMax= 1.53D+04 ExpMxC= 5.22D+02 IAcc=3 IRadAn=         5 AccDes= 0.00D+00
 HarFok:  IExCor= 4639 AccDes= 0.00D+00 IRadAn=         5 IDoV= 1
 ScaDFX=  1.000000  1.000000  1.000000  1.000000
 FoFCou: FMM=F IPFlag=           0 FMFlag=      100000 FMFlg1=           0
         NFxFlg=           0 DoJE=T BraDBF=F KetDBF=T FulRan=T
         Omega=  0.000000  0.000000  1.000000  0.000000  0.000000 ICntrl=     500 IOpCl=  0
         NMat0=    1 NMatS0=    1 NMatT0=    0 NMatD0=    1 NMtDS0=    0 NMtDT0=    0
         I1Cent=           4 NGrid=           0.
 Petite list used in FoFCou.
 Harris En= -146.291635027042    
 Leave Link  401 at Sun May 10 00:50:59 2020, MaxMem= 1073741824 cpu:       2.5
 (Enter /home/matheus/.gaussian/g09/l502.exe)
 Closed shell SCF:
 Requested convergence on RMS density matrix=1.00D-08 within 128 cycles.
 Requested convergence on MAX density matrix=1.00D-06.
 Requested convergence on             energy=1.00D-06.
 No special actions if energy rises.
 Using DIIS extrapolation, IDIIS=  1040.
 Integral symmetry usage will be decided dynamically.
        94980 words used for storage of precomputed grid.
 IEnd=      192360 IEndB=      192360 NGot=  1073741824 MDV=  1073591865
 LenX=  1073591865 LenY=  1073565824
 Fock matrices will be formed incrementally for  20 cycles.

 Cycle   1  Pass 1  IDiag  1:
 FoFJK:  IHMeth= 1 ICntrl=     0 DoSepK=T KAlg= 1 I1Cent= 0 FoldK=F
 FoFCou: FMM=F IPFlag=           0 FMFlag=      100000 FMFlg1=           0
         NFxFlg=           0 DoJE=T BraDBF=F KetDBF=F FulRan=T
         Omega=  0.000000  0.000000  1.000000  0.000000  0.000000 ICntrl=     500 IOpCl=  0
         NMat0=    1 NMatS0=    1 NMatT0=    0 NMatD0=    1 NMtDS0=    0 NMtDT0=    0
         I1Cent=           0 NGrid=           0.
 Symmetry not used in FoFCou.
 E= -151.558338213862    
 DIIS: error= 2.42D-05 at cycle   1 NSaved=   1.
 NSaved= 1 IEnMin= 1 EnMin= -151.558338213862     IErMin= 1 ErrMin= 2.42D-05
 ErrMax= 2.42D-05 EMaxC= 1.00D-01 BMatC= 4.24D-08 BMatP= 4.24D-08
 IDIUse=1 WtCom= 1.00D+00 WtEn= 0.00D+00
 Coeff-Com:  0.100D+01
 Coeff:      0.100D+01
 Gap=     0.389 Goal=   None    Shift=    0.000
 RMSDP=1.12D-06 MaxDP=2.30D-05              OVMax= 9.26D-05

 Cycle   2  Pass 1  IDiag  1:
 RMSU=  7.95D-07    CP:  1.00D+00
 FoFJK:  IHMeth= 1 ICntrl=     0 DoSepK=T KAlg= 1 I1Cent= 0 FoldK=F
 E= -151.558338256938     Delta-E=       -0.000000043076 Rises=F Damp=F
 DIIS: error= 3.73D-06 at cycle   2 NSaved=   2.
 NSaved= 2 IEnMin= 2 EnMin= -151.558338256938     IErMin= 2 ErrMin= 3.73D-06
 ErrMax= 3.73D-06 EMaxC= 1.00D-01 BMatC= 1.26D-09 BMatP= 4.24D-08
 IDIUse=1 WtCom= 1.00D+00 WtEn= 0.00D+00
 Coeff-Com: -0.113D+00 0.111D+01
 Coeff:     -0.113D+00 0.111D+01
 Gap=     0.389 Goal=   None    Shift=    0.000
 RMSDP=3.60D-07 MaxDP=7.97D-06 DE=-4.31D-08 OVMax= 3.18D-05

 Cycle   3  Pass 1  IDiag  1:
 RMSU=  1.67D-07    CP:  1.00D+00  1.24D+00
 FoFJK:  IHMeth= 1 ICntrl=     0 DoSepK=T KAlg= 1 I1Cent= 0 FoldK=F
 E= -151.558338259770     Delta-E=       -0.000000002833 Rises=F Damp=F
 DIIS: error= 1.10D-06 at cycle   3 NSaved=   3.
 NSaved= 3 IEnMin= 3 EnMin= -151.558338259770     IErMin= 3 ErrMin= 1.10D-06
 ErrMax= 1.10D-06 EMaxC= 1.00D-01 BMatC= 1.16D-10 BMatP= 1.26D-09
 IDIUse=1 WtCom= 1.00D+00 WtEn= 0.00D+00
 Coeff-Com: -0.242D-01 0.868D-01 0.937D+00
 Coeff:     -0.242D-01 0.868D-01 0.937D+00
 Gap=     0.389 Goal=   None    Shift=    0.000
 RMSDP=1.00D-07 MaxDP=1.85D-06 DE=-2.83D-09 OVMax= 8.50D-06

 Cycle   4  Pass 1  IDiag  1:
 RMSU=  4.95D-08    CP:  1.00D+00  1.29D+00  1.17D+00
 FoFJK:  IHMeth= 1 ICntrl=     0 DoSepK=T KAlg= 1 I1Cent= 0 FoldK=F
 E= -151.558338259939     Delta-E=       -0.000000000169 Rises=F Damp=F
 DIIS: error= 6.69D-07 at cycle   4 NSaved=   4.
 NSaved= 4 IEnMin= 4 EnMin= -151.558338259939     IErMin= 4 ErrMin= 6.69D-07
 ErrMax= 6.69D-07 EMaxC= 1.00D-01 BMatC= 6.46D-11 BMatP= 1.16D-10
 IDIUse=1 WtCom= 1.00D+00 WtEn= 0.00D+00
 Coeff-Com:  0.454D-02-0.123D+00 0.440D+00 0.679D+00
 Coeff:      0.454D-02-0.123D+00 0.440D+00 0.679D+00
 Gap=     0.389 Goal=   None    Shift=    0.000
 RMSDP=4.83D-08 MaxDP=2.05D-06 DE=-1.69D-10 OVMax= 2.99D-06

 Cycle   5  Pass 1  IDiag  1:
 RMSU=  1.38D-08    CP:  1.00D+00  1.30D+00  1.33D+00  7.49D-01
 FoFJK:  IHMeth= 1 ICntrl=     0 DoSepK=T KAlg= 1 I1Cent= 0 FoldK=F
 E= -151.558338259991     Delta-E=       -0.000000000053 Rises=F Damp=F
 DIIS: error= 1.77D-07 at cycle   5 NSaved=   5.
 NSaved= 5 IEnMin= 5 EnMin= -151.558338259991     IErMin= 5 ErrMin= 1.77D-07
 ErrMax= 1.77D-07 EMaxC= 1.00D-01 BMatC= 5.28D-12 BMatP= 6.46D-11
 IDIUse=1 WtCom= 1.00D+00 WtEn= 0.00D+00
 Coeff-Com:  0.405D-02-0.639D-01 0.115D+00 0.292D+00 0.652D+00
 Coeff:      0.405D-02-0.639D-01 0.115D+00 0.292D+00 0.652D+00
 Gap=     0.389 Goal=   None    Shift=    0.000
 RMSDP=1.28D-08 MaxDP=3.77D-07 DE=-5.26D-11 OVMax= 7.47D-07

 Cycle   6  Pass 1  IDiag  1:
 RMSU=  7.00D-09    CP:  1.00D+00  1.31D+00  1.35D+00  8.21D-01  8.92D-01
 FoFJK:  IHMeth= 1 ICntrl=     0 DoSepK=T KAlg= 1 I1Cent= 0 FoldK=F
 E= -151.558338259995     Delta-E=       -0.000000000003 Rises=F Damp=F
 DIIS: error= 6.70D-08 at cycle   6 NSaved=   6.
 NSaved= 6 IEnMin= 6 EnMin= -151.558338259995     IErMin= 6 ErrMin= 6.70D-08
 ErrMax= 6.70D-08 EMaxC= 1.00D-01 BMatC= 9.22D-13 BMatP= 5.28D-12
 IDIUse=1 WtCom= 1.00D+00 WtEn= 0.00D+00
 Coeff-Com:  0.112D-02-0.909D-02-0.193D-01 0.223D-01 0.305D+00 0.700D+00
 Coeff:      0.112D-02-0.909D-02-0.193D-01 0.223D-01 0.305D+00 0.700D+00
 Gap=     0.389 Goal=   None    Shift=    0.000
 RMSDP=5.73D-09 MaxDP=1.82D-07 DE=-3.44D-12 OVMax= 4.40D-07

 SCF Done:  E(RwB97XD) =  -151.558338260     A.U. after    6 cycles
             Convg  =    0.5729D-08             -V/T =  2.0059
 KE= 1.506659371080D+02 PE=-4.317229173397D+02 EE= 9.289691631711D+01
 Leave Link  502 at Sun May 10 00:51:05 2020, MaxMem= 1073741824 cpu:      50.4
 (Enter /home/matheus/.gaussian/g09/l122.exe)
 Restoring MOs from calculation   5 to rwf.
 Counterpoise: doing MCBS calculation for fragment   2
 Leave Link  122 at Sun May 10 00:51:05 2020, MaxMem= 1073741824 cpu:       0.0
 (Enter /home/matheus/.gaussian/g09/l301.exe)
 Basis read from rwf:  (5D, 7F)
 No pseudopotential information found on rwf file.
 There are    59 symmetry adapted basis functions of A   symmetry.
 Integral buffers will be    131072 words long.
 Raffenetti 2 integral format.
 Two-electron integral symmetry is turned on.
    59 basis functions,   217 primitive gaussians,    69 cartesian basis functions
    18 alpha electrons       18 beta electrons
       nuclear repulsion energy         0.0000000000 Hartrees.
 IExCor= 4639 DFT=T Ex+Corr=wB97XD ExCW=0 ScaHFX=  1.000000
 ScaDFX=  1.000000  1.000000  1.000000  1.000000 ScalE2=  1.000000  1.000000
 IRadAn=      5 IRanWt=     -1 IRanGd=            0 ICorTp=0
  HFx wShort=  0.000000 wLong=  0.200000 cFull=  0.222036 cShort=  0.000000 cLong=  0.777964
  DFx wShort=  0.000000 wLong=  0.200000 cFull=  0.000000 cShort=  0.000000 cLong=  1.000000
 NAtoms=    5 NActive=    1 NUniq=    1 SFac= 1.00D+00 NAtFMM=   60 NAOKFM=F Big=F
 R6Disp: Dispersion energy =         0.0000000000 Hartrees.
 Nuclear repulsion after empirical dispersion term =        0.0000000000 Hartrees.
 No density basis found on file   718.
 Leave Link  301 at Sun May 10 00:51:05 2020, MaxMem= 1073741824 cpu:       0.2
 (Enter /home/matheus/.gaussian/g09/l302.exe)
 NPDir=0 NMtPBC=     1 NCelOv=     1 NCel=       1 NClECP=     1 NCelD=      1
         NCelK=      1 NCelE2=     1 NClLst=     1 CellRange=     0.0.
 One-electron integrals computed using PRISM.
 NBasis=    59 RedAO= T  NBF=    59
 NBsUse=    59 1.00D-06 NBFU=    59
 Precomputing XC quadrature grid using
 IXCGrd= 2 IRadAn=           5 IRanWt=          -1 IRanGd=           0 AccXCQ= 0.00D+00.
 NRdTot=      81 NPtTot=       30352 NUsed=       30981 NTot=       31013
 NSgBfM=    69    69    69    69    69 NAtAll=     1     1.
 Leave Link  302 at Sun May 10 00:51:05 2020, MaxMem= 1073741824 cpu:       0.8
 (Enter /home/matheus/.gaussian/g09/l303.exe)
 DipDrv:  MaxL=1.
 Leave Link  303 at Sun May 10 00:51:05 2020, MaxMem= 1073741824 cpu:       0.1
 (Enter /home/matheus/.gaussian/g09/l401.exe)
 Initial guess read from the read-write file.
 Guess basis will be translated and rotated to current coordinates.
 Initial guess orbital symmetries:
       Occupied  (A) (A) (A) (A) (A) (A) (A) (A) (A) (A) (A) (A)
                 (A) (A) (A) (A) (A) (A)
       Virtual   (A) (A) (A) (A) (A) (A) (A) (A) (A) (A) (A) (A)
                 (A) (A) (A) (A) (A) (A) (A) (A) (A) (A) (A) (A)
                 (A) (A) (A) (A) (A) (A) (A) (A) (A) (A) (A) (A)
                 (A) (A) (A) (A) (A)
 The electronic state of the initial guess is 1-A.
 Generating alternative initial guess.
 Harris functional with IExCor= 4639 diagonalized for initial guess.
 ExpMin= 4.00D-02 ExpMax= 1.17D+07 ExpMxC= 1.33D+04 IAcc=3 IRadAn=         5 AccDes= 0.00D+00
 HarFok:  IExCor= 4639 AccDes= 0.00D+00 IRadAn=         5 IDoV= 1
 ScaDFX=  1.000000  1.000000  1.000000  1.000000
 FoFCou: FMM=F IPFlag=           0 FMFlag=      100000 FMFlg1=           0
         NFxFlg=           0 DoJE=T BraDBF=F KetDBF=T FulRan=T
         Omega=  0.000000  0.000000  1.000000  0.000000  0.000000 ICntrl=     500 IOpCl=  0
         NMat0=    1 NMatS0=    1 NMatT0=    0 NMatD0=    1 NMtDS0=    0 NMtDT0=    0
         I1Cent=           4 NGrid=           0.
 Petite list used in FoFCou.
 Harris En= -2730.20235208354    
 Leave Link  401 at Sun May 10 00:51:05 2020, MaxMem= 1073741824 cpu:       1.2
 (Enter /home/matheus/.gaussian/g09/l502.exe)
 Closed shell SCF:
 Requested convergence on RMS density matrix=1.00D-08 within 128 cycles.
 Requested convergence on MAX density matrix=1.00D-06.
 Requested convergence on             energy=1.00D-06.
 No special actions if energy rises.
 Using DIIS extrapolation, IDIIS=  1040.
 Integral symmetry usage will be decided dynamically.
        30923 words used for storage of precomputed grid.
 IEnd=       64406 IEndB=       64406 NGot=  1073741824 MDV=  1073698889
 LenX=  1073698889 LenY=  1073693687
 Fock matrices will be formed incrementally for  20 cycles.

 Cycle   1  Pass 1  IDiag  1:
 FoFJK:  IHMeth= 1 ICntrl=     0 DoSepK=T KAlg= 1 I1Cent= 0 FoldK=F
 FoFCou: FMM=F IPFlag=           0 FMFlag=      100000 FMFlg1=           0
         NFxFlg=           0 DoJE=T BraDBF=F KetDBF=F FulRan=T
         Omega=  0.000000  0.000000  1.000000  0.000000  0.000000 ICntrl=     500 IOpCl=  0
         NMat0=    1 NMatS0=    1 NMatT0=    0 NMatD0=    1 NMtDS0=    0 NMtDT0=    0
         I1Cent=           0 NGrid=           0.
 Symmetry not used in FoFCou.
 E= -2753.87421986326    
 DIIS: error= 8.44D-14 at cycle   1 NSaved=   1.
 NSaved= 1 IEnMin= 1 EnMin= -2753.87421986326     IErMin= 1 ErrMin= 8.44D-14
 ErrMax= 8.44D-14 EMaxC= 1.00D-01 BMatC= 7.33D-25 BMatP= 7.33D-25
 IDIUse=1 WtCom= 1.00D+00 WtEn= 0.00D+00
 Coeff-Com:  0.100D+01
 Coeff:      0.100D+01
 Gap=     0.562 Goal=   None    Shift=    0.000
 DSYEVD returned Info=          89 IAlg= 4 N=    59 NDim=    59 NE2=    18198197 trying DSYEV.
 RMSDP=1.23D-14 MaxDP=1.56D-13              OVMax= 1.23D-13

 SCF Done:  E(RwB97XD) =  -2753.87421986     A.U. after    1 cycles
             Convg  =    0.1234D-13             -V/T =  2.0013
 KE= 2.750300381543D+03 PE=-6.580241205809D+03 EE= 1.076066604402D+03
 Leave Link  502 at Sun May 10 00:51:07 2020, MaxMem= 1073741824 cpu:      12.5
 (Enter /home/matheus/.gaussian/g09/l122.exe)
 Restoring MOs from calculation   1 to rwf.
 Counterpoise: corrected energy =   -2905.432839816190
 Counterpoise: BSSE energy =       0.000022839558
 Leave Link  122 at Sun May 10 00:51:07 2020, MaxMem= 1073741824 cpu:       0.0
 (Enter /home/matheus/.gaussian/g09/l108.exe)
 Scan completed.

 Summary of the potential surface scan:
   N      R1          SCF    
 ----  ---------  -----------
    1     3.0000  -2753.87422
    2     3.1000  -2753.87422
    3     3.2000  -2753.87422
    4     3.3000  -2753.87422
    5     3.4000  -2753.87422
    6     3.5000  -2753.87422
    7     3.6000  -2753.87422
    8     3.7000  -2753.87422
    9     3.8000  -2753.87422
   10     3.9000  -2753.87422
   11     4.0000  -2753.87422
   12     4.1000  -2753.87422
   13     4.2000  -2753.87422
   14     4.3000  -2753.87422
   15     4.4000  -2753.87422
   16     4.5000  -2753.87422
   17     4.6000  -2753.87422
   18     4.7000  -2753.87422
   19     4.8000  -2753.87422
   20     4.9000  -2753.87422
   21     5.0000  -2753.87422
 ----  ---------  -----------
  
 Leave Link  108 at Sun May 10 00:51:07 2020, MaxMem= 1073741824 cpu:       0.0
 (Enter /home/matheus/.gaussian/g09/l9999.exe)
 1\1\GINC-REDGIANT\Scan\RwB97XD\Aug-CC-pVTZ\H2Kr1O2\MATHEUS\10-May-2020
 \1\\#p wb97xd/aug-cc-PVTz int=ultrafine counterpoise=2 Scan\\TCC\\0,1\
 O,0,0.,0.,0.725\O,0,0.,0.,-0.725\H,0,-0.3142209495,-0.8633149634,1.023
 5104166\H,0,0.,0.9187205947,-1.0235104166\Kr,0,0.,R1,0.\\R1=3.,s,20,0.
 1\\Version=EM64L-G09RevC.01\State=1-A\HF=-2753.8742199,-2753.8742199,-
 2753.8742199,-2753.8742199,-2753.8742199,-2753.8742199,-2753.8742199,-
 2753.8742199,-2753.8742199,-2753.8742199,-2753.8742199,-2753.8742199,-
 2753.8742199,-2753.8742199,-2753.8742199,-2753.8742199,-2753.8742199,-
 2753.8742199,-2753.8742199,-2753.8742199,-2753.8742199\RMSD=9.120e-09,
 1.920e-10,6.363e-11,4.203e-11,2.497e-11,1.570e-11,9.722e-12,6.058e-12,
 3.769e-12,2.345e-12,1.456e-12,9.023e-13,5.615e-13,3.524e-13,2.189e-13,
 1.340e-13,8.253e-14,5.354e-14,3.174e-14,1.773e-14,1.234e-14\PG=C01 [X(
 H2Kr1O2)]\\@


 IF I AM NOT FOR MYSELF, WHO WILL BE?
 BUT IF I AM ONLY FOR MYSELF, WHAT AM I?
 THOUGH A SEEKER SINCE MY BIRTH,
 HERE IS ALL I'VE LEARNED ON EARTH,
 THIS IS THE GIST OF WHAT I KNOW:
 GIVE ADVICE AND BUY A FOE.

 PRESSED FOR RULES AND VERITIES,
 ALL I RECOLLECT ARE THESE:
 FEED A COLD TO STARVE A FEVER,
 ARGUE WITH NO TRUE-BELIEVER.
 THINK-TOO-LONG IS NEVER-ACT,
 SCRATCH A MYTH AND FIND A FACT.

 STITCH IN TIME SAVES TWENTY STITCHES,
 GIVE THE RICH TO PLEASE THEM, RICHES.
 GIVE TO LOVE YOU HEARTH AND HALL,
 BUT DO NOT GIVE ADVICE AT ALL.

                                  -- HILLEL
 Job cpu time:  0 days  3 hours 32 minutes 59.9 seconds.
 File lengths (MBytes):  RWF=     33 Int=      0 D2E=      0 Chk=      8 Scr=      1
 Normal termination of Gaussian 09 at Sun May 10 00:51:07 2020.
