 Entering Gaussian System, Link 0=g09
 Input=/home/matheus/.tcc/Inputs/Inputs-wb97xd-default/H2O2-Kr_18.com
 Output=/home/matheus/.tcc/Logs/Logs-wb97xd-default/H2O2-Kr_18.log
 Initial command:
 /home/matheus/.gaussian/g09/l1.exe /home/matheus/.gaussian/g09/scratch/Gau-3801.inp -scrdir=/home/matheus/.gaussian/g09/scratch/
 Entering Link 1 = /home/matheus/.gaussian/g09/l1.exe PID=      3805.
  
 Copyright (c) 1988,1990,1992,1993,1995,1998,2003,2009,2011,
            Gaussian, Inc.  All Rights Reserved.
  
 This is part of the Gaussian(R) 09 program.  It is based on
 the Gaussian(R) 03 system (copyright 2003, Gaussian, Inc.),
 the Gaussian(R) 98 system (copyright 1998, Gaussian, Inc.),
 the Gaussian(R) 94 system (copyright 1995, Gaussian, Inc.),
 the Gaussian 92(TM) system (copyright 1992, Gaussian, Inc.),
 the Gaussian 90(TM) system (copyright 1990, Gaussian, Inc.),
 the Gaussian 88(TM) system (copyright 1988, Gaussian, Inc.),
 the Gaussian 86(TM) system (copyright 1986, Carnegie Mellon
 University), and the Gaussian 82(TM) system (copyright 1983,
 Carnegie Mellon University). Gaussian is a federally registered
 trademark of Gaussian, Inc.
  
 This software contains proprietary and confidential information,
 including trade secrets, belonging to Gaussian, Inc.
  
 This software is provided under written license and may be
 used, copied, transmitted, or stored only in accord with that
 written license.
  
 The following legend is applicable only to US Government
 contracts under FAR:
  
                    RESTRICTED RIGHTS LEGEND
  
 Use, reproduction and disclosure by the US Government is
 subject to restrictions as set forth in subparagraphs (a)
 and (c) of the Commercial Computer Software - Restricted
 Rights clause in FAR 52.227-19.
  
 Gaussian, Inc.
 340 Quinnipiac St., Bldg. 40, Wallingford CT 06492
  
  
 ---------------------------------------------------------------
 Warning -- This program may not be used in any manner that
 competes with the business of Gaussian, Inc. or will provide
 assistance to any competitor of Gaussian, Inc.  The licensee
 of this program is prohibited from giving any competitor of
 Gaussian, Inc. access to this program.  By using this program,
 the user acknowledges that Gaussian, Inc. is engaged in the
 business of creating and licensing software in the field of
 computational chemistry and represents and warrants to the
 licensee that it is not a competitor of Gaussian, Inc. and that
 it will not use this program in any manner prohibited above.
 ---------------------------------------------------------------
  

 Cite this work as:
 Gaussian 09, Revision C.01,
 M. J. Frisch, G. W. Trucks, H. B. Schlegel, G. E. Scuseria, 
 M. A. Robb, J. R. Cheeseman, G. Scalmani, V. Barone, B. Mennucci, 
 G. A. Petersson, H. Nakatsuji, M. Caricato, X. Li, H. P. Hratchian, 
 A. F. Izmaylov, J. Bloino, G. Zheng, J. L. Sonnenberg, M. Hada, 
 M. Ehara, K. Toyota, R. Fukuda, J. Hasegawa, M. Ishida, T. Nakajima, 
 Y. Honda, O. Kitao, H. Nakai, T. Vreven, J. A. Montgomery, Jr., 
 J. E. Peralta, F. Ogliaro, M. Bearpark, J. J. Heyd, E. Brothers, 
 K. N. Kudin, V. N. Staroverov, T. Keith, R. Kobayashi, J. Normand, 
 K. Raghavachari, A. Rendell, J. C. Burant, S. S. Iyengar, J. Tomasi, 
 M. Cossi, N. Rega, J. M. Millam, M. Klene, J. E. Knox, J. B. Cross, 
 V. Bakken, C. Adamo, J. Jaramillo, R. Gomperts, R. E. Stratmann, 
 O. Yazyev, A. J. Austin, R. Cammi, C. Pomelli, J. W. Ochterski, 
 R. L. Martin, K. Morokuma, V. G. Zakrzewski, G. A. Voth, 
 P. Salvador, J. J. Dannenberg, S. Dapprich, A. D. Daniels, 
 O. Farkas, J. B. Foresman, J. V. Ortiz, J. Cioslowski, 
 and D. J. Fox, Gaussian, Inc., Wallingford CT, 2010.
 
 ******************************************
 Gaussian 09:  EM64L-G09RevC.01 23-Sep-2011
                 9-May-2020 
 ******************************************
 %mem=8GB
 %nproc=8
 Will use up to    8 processors via shared memory.
 -------------------------------------------------------
 #p wb97xd/aug-cc-PVTz int=ultrafine counterpoise=2 Scan
 -------------------------------------------------------
 1/38=1,60=1,62=2/1,8;
 2/12=2,17=6,18=5,29=3,40=1/2;
 1/38=1,53=5172,62=2/22;
 3/5=16,6=1,7=10,11=2,16=1,25=1,30=1,74=-58,75=-5/1,2,3;
 4//1;
 5/5=2,38=5/2;
 6/7=2,8=2,9=2,10=2,18=1,28=1/1;
 1/53=4052,62=2,63=1/22;
 3/5=7,6=11,7=10,11=2,16=1,25=1,30=1,74=-58,75=-5,82=7/1,2,3;
 4//1;
 5/5=2,38=5/2;
 6/7=2,8=2,9=2,10=2,18=1,28=1/1;
 1/53=3042,62=2,63=2/22;
 3/5=7,6=11,7=10,11=2,16=1,25=1,30=1,74=-58,75=-5,82=7/1,2,3;
 4//1;
 5/5=2,38=5/2;
 6/7=2,8=2,9=2,10=2,18=1,28=1/1;
 1/53=2032,62=2,63=3/22;
 3/5=7,6=11,7=10,11=2,16=1,25=1,30=1,74=-58,75=-5,82=7/1,2,3;
 4//1;
 5/5=2,38=5/2;
 6/7=2,8=2,9=2,10=2,18=1,28=1/1;
 1/53=1022,62=2,63=4/22;
 3/5=7,6=11,7=10,11=2,16=1,25=1,30=1,74=-58,75=-5,82=7/1,2,3;
 4//1;
 5/5=2,38=5/2;
 6/7=2,8=2,9=2,10=2,18=1,28=1/1;
 1/53=5014,62=2,63=5/22;
 1/60=1,62=2/8(1);
 99/9=1/99;
 2/29=3/2;
 1/53=5173,62=2/22;
 3/5=7,6=11,7=10,11=2,16=1,25=1,30=1,74=-58,75=-5,82=7/1,2,3;
 4/5=5,16=3/1;
 5/5=2,38=5/2;
 1/53=4053,62=2,63=1/22;
 3/5=7,6=11,7=10,11=2,16=1,25=1,30=1,74=-58,75=-5,82=7/1,2,3;
 4/5=5,16=3/1;
 5/5=2,38=5/2;
 1/53=3043,62=2,63=2/22;
 3/5=7,6=11,7=10,11=2,16=1,25=1,30=1,74=-58,75=-5,82=7/1,2,3;
 4/5=5,16=3/1;
 5/5=2,38=5/2;
 1/53=2033,62=2,63=3/22;
 3/5=7,6=11,7=10,11=2,16=1,25=1,30=1,74=-58,75=-5,82=7/1,2,3;
 4/5=5,16=3/1;
 5/5=2,38=5/2;
 1/53=1024,62=2,63=4/22;
 3/5=7,6=11,7=10,11=2,16=1,25=1,30=1,74=-58,75=-5,82=7/1,2,3;
 4/5=5,16=3/1;
 5/5=2,38=5/2;
 1/53=5014,62=2,63=5/22;
 1/60=1,62=2/8(-22);
 99/9=1/99;
 Leave Link    1 at Sat May  9 23:33:30 2020, MaxMem= 1073741824 cpu:       0.1
 (Enter /home/matheus/.gaussian/g09/l101.exe)
 ---
 TCC
 ---
 Charge =  0 Multiplicity = 1 in supermolecule
 Charge =  0 Multiplicity = 1 in fragment  1.
 Charge =  0 Multiplicity = 1 in fragment  2.
 Symbolic Z-Matrix:
 O(Fragment=1)         0.        0.        0.725 
 O(Fragment=1)         0.        0.       -0.725 
 H(Fragment=1)         0.       -0.91872   1.02351 
 H(Fragment=1)         0.        0.91872  -1.02351 
 Kr(Fragment=2)        0.       R1        0. 
       Variables:
  R1                    3.     Scan 20    0.1    
 
 NAtoms=      5 NQM=        0 NQMF=       0 NMMI=      5 NMMIF=      0
                NMic=       0 NMicF=      0.
                    Isotopes and Nuclear Properties:
 (Nuclear quadrupole moments (NQMom) in fm**2, nuclear magnetic moments (NMagM)
  in nuclear magnetons)

  Atom         1           2           3           4           5
 IAtWgt=          16          16           1           1          84
 AtmWgt=  15.9949146  15.9949146   1.0078250   1.0078250  83.9115064
 NucSpn=           0           0           1           1           0
 AtZEff=   0.0000000   0.0000000   0.0000000   0.0000000   0.0000000
 NQMom=    0.0000000   0.0000000   0.0000000   0.0000000   0.0000000
 NMagM=    0.0000000   0.0000000   2.7928460   2.7928460   0.0000000
 Leave Link  101 at Sat May  9 23:33:31 2020, MaxMem= 1073741824 cpu:       0.3
 (Enter /home/matheus/.gaussian/g09/l108.exe)
 Scan the potential surface.
 Variable   Value     No. Steps Step-Size
 -------- ----------- --------- ---------
     1       3.000000      20      0.1000
 A total of     21 points will be computed.
 Leave Link  108 at Sat May  9 23:33:31 2020, MaxMem= 1073741824 cpu:       0.0
 (Enter /home/matheus/.gaussian/g09/l202.exe)
 ---------------------------------------------------------------------------------------------------
                            Z-MATRIX (ANGSTROMS AND DEGREES)
   CD    Cent   Atom    N1       Length/X        N2       Alpha/Y        N3        Beta/Z          J
 ---------------------------------------------------------------------------------------------------
      1      1  O        0   0.000000          0.000000          0.725000
      2      2  O        0   0.000000          0.000000         -0.725000
      3      3  H        0   0.000000         -0.918721          1.023510
      4      4  H        0   0.000000          0.918721         -1.023510
      5      5  Kr       0   0.000000          3.000000          0.000000
 ---------------------------------------------------------------------------------------------------
                         Z-Matrix orientation:                         
 ---------------------------------------------------------------------
 Center     Atomic      Atomic             Coordinates (Angstroms)
 Number     Number       Type             X           Y           Z
 ---------------------------------------------------------------------
      1          8           0        0.000000    0.000000    0.725000
      2          8           0        0.000000    0.000000   -0.725000
      3          1           0        0.000000   -0.918721    1.023510
      4          1           0        0.000000    0.918721   -1.023510
      5         36           0        0.000000    3.000000    0.000000
 ---------------------------------------------------------------------
                    Distance matrix (angstroms):
                    1          2          3          4          5
     1  O    0.000000
     2  O    1.450000   0.000000
     3  H    0.966000   1.975180   0.000000
     4  H    1.975180   0.966000   2.750724   0.000000
     5  Kr   3.086361   3.086361   4.050178   2.319331   0.000000
 Stoichiometry    H2KrO2
 Framework group  CS[SG(H2KrO2)]
 Deg. of freedom     7
 Full point group                 CS      NOp   2
 Largest Abelian subgroup         CS      NOp   2
 Largest concise Abelian subgroup C1      NOp   1
                         Standard orientation:                         
 ---------------------------------------------------------------------
 Center     Atomic      Atomic             Coordinates (Angstroms)
 Number     Number       Type             X           Y           Z
 ---------------------------------------------------------------------
      1          8           0        0.725000   -2.000000    0.000000
      2          8           0       -0.725000   -2.000000    0.000000
      3          1           0        1.023510   -2.918721    0.000000
      4          1           0       -1.023510   -1.081279    0.000000
      5         36           0        0.000000    1.000000    0.000000
 ---------------------------------------------------------------------
 Rotational constants (GHZ):     26.7279120      2.3023206      2.1197289
 Leave Link  202 at Sat May  9 23:33:31 2020, MaxMem= 1073741824 cpu:       0.0
 (Enter /home/matheus/.gaussian/g09/l122.exe)
 Leave Link  122 at Sat May  9 23:33:31 2020, MaxMem= 1073741824 cpu:       0.0
 (Enter /home/matheus/.gaussian/g09/l301.exe)
 Standard basis: Aug-CC-pVTZ (5D, 7F)
 Ernie: Thresh=  0.10000D-02 Tol=  0.10000D-05 Strict=F.
 Ernie:  38 primitive shells out of 205 were deleted.
 There are   131 symmetry adapted basis functions of A'  symmetry.
 There are    66 symmetry adapted basis functions of A"  symmetry.
 Integral buffers will be    131072 words long.
 Raffenetti 2 integral format.
 Two-electron integral symmetry is turned on.
   197 basis functions,   415 primitive gaussians,   229 cartesian basis functions
    27 alpha electrons       27 beta electrons
       nuclear repulsion energy       148.2769905491 Hartrees.
 IExCor= 4639 DFT=T Ex+Corr=wB97XD ExCW=0 ScaHFX=  1.000000
 ScaDFX=  1.000000  1.000000  1.000000  1.000000 ScalE2=  1.000000  1.000000
 IRadAn=      5 IRanWt=     -1 IRanGd=            0 ICorTp=0
  HFx wShort=  0.000000 wLong=  0.200000 cFull=  0.222036 cShort=  0.000000 cLong=  0.777964
  DFx wShort=  0.000000 wLong=  0.200000 cFull=  0.000000 cShort=  0.000000 cLong=  1.000000
 NAtoms=    5 NActive=    5 NUniq=    5 SFac= 1.00D+00 NAtFMM=   60 NAOKFM=F Big=F
 R6Disp: Dispersion energy =        -0.0007639909 Hartrees.
 Nuclear repulsion after empirical dispersion term =      148.2762265582 Hartrees.
 Leave Link  301 at Sat May  9 23:33:31 2020, MaxMem= 1073741824 cpu:       0.2
 (Enter /home/matheus/.gaussian/g09/l302.exe)
 NPDir=0 NMtPBC=     1 NCelOv=     1 NCel=       1 NClECP=     1 NCelD=      1
         NCelK=      1 NCelE2=     1 NClLst=     1 CellRange=     0.0.
 One-electron integrals computed using PRISM.
 NBasis=   197 RedAO= T  NBF=   131    66
 NBsUse=   197 1.00D-06 NBFU=   131    66
 Precomputing XC quadrature grid using
 IXCGrd= 2 IRadAn=           5 IRanWt=          -1 IRanGd=           0 AccXCQ= 0.00D+00.
 NRdTot=     427 NPtTot=      123814 NUsed=      126881 NTot=      126913
 NSgBfM=   229   229   229   229   229 NAtAll=     5     5.
 Leave Link  302 at Sat May  9 23:33:31 2020, MaxMem= 1073741824 cpu:       0.9
 (Enter /home/matheus/.gaussian/g09/l303.exe)
 DipDrv:  MaxL=1.
 Leave Link  303 at Sat May  9 23:33:31 2020, MaxMem= 1073741824 cpu:       0.2
 (Enter /home/matheus/.gaussian/g09/l401.exe)
 Harris functional with IExCor= 4639 diagonalized for initial guess.
 ExpMin= 2.53D-02 ExpMax= 1.17D+07 ExpMxC= 1.33D+04 IAcc=3 IRadAn=         5 AccDes= 0.00D+00
 HarFok:  IExCor= 4639 AccDes= 0.00D+00 IRadAn=         5 IDoV= 1
 ScaDFX=  1.000000  1.000000  1.000000  1.000000
 FoFCou: FMM=F IPFlag=           0 FMFlag=      100000 FMFlg1=           0
         NFxFlg=           0 DoJE=T BraDBF=F KetDBF=T FulRan=T
         Omega=  0.000000  0.000000  1.000000  0.000000  0.000000 ICntrl=     500 IOpCl=  0
         NMat0=    1 NMatS0=    1 NMatT0=    0 NMatD0=    1 NMtDS0=    0 NMtDT0=    0
         I1Cent=           4 NGrid=           0.
 Petite list used in FoFCou.
 Harris En= -2876.48563066569    
 Initial guess orbital symmetries:
       Occupied  (A') (A') (A') (A') (A") (A') (A') (A') (A') (A')
                 (A") (A') (A') (A") (A') (A") (A') (A') (A') (A')
                 (A') (A") (A') (A") (A') (A') (A")
       Virtual   (A') (A') (A') (A") (A') (A') (A') (A') (A") (A')
                 (A") (A') (A') (A") (A') (A') (A") (A') (A') (A')
                 (A") (A') (A') (A") (A') (A') (A') (A') (A") (A')
                 (A') (A') (A") (A') (A") (A') (A") (A') (A") (A')
                 (A") (A') (A') (A') (A") (A') (A') (A") (A") (A')
                 (A') (A') (A") (A') (A") (A") (A') (A') (A') (A')
                 (A") (A') (A") (A') (A") (A') (A') (A') (A") (A')
                 (A') (A") (A") (A') (A') (A') (A') (A") (A') (A')
                 (A") (A') (A') (A") (A") (A') (A') (A") (A') (A")
                 (A') (A') (A") (A') (A') (A') (A") (A") (A') (A")
                 (A') (A') (A") (A") (A') (A') (A") (A') (A") (A')
                 (A') (A") (A') (A') (A') (A') (A') (A") (A') (A')
                 (A') (A") (A") (A') (A") (A") (A') (A") (A') (A")
                 (A') (A') (A') (A') (A') (A') (A') (A') (A") (A")
                 (A') (A') (A') (A") (A') (A') (A") (A') (A") (A')
                 (A") (A") (A') (A") (A") (A") (A") (A') (A') (A')
                 (A') (A") (A') (A') (A') (A') (A') (A') (A') (A')
 The electronic state of the initial guess is 1-A'.
 Leave Link  401 at Sat May  9 23:33:31 2020, MaxMem= 1073741824 cpu:       2.9
 (Enter /home/matheus/.gaussian/g09/l502.exe)
 Closed shell SCF:
 Requested convergence on RMS density matrix=1.00D-08 within 128 cycles.
 Requested convergence on MAX density matrix=1.00D-06.
 Requested convergence on             energy=1.00D-06.
 No special actions if energy rises.
 Using DIIS extrapolation, IDIIS=  1040.
 Integral symmetry usage will be decided dynamically.
       126823 words used for storage of precomputed grid.
 IEnd=      305835 IEndB=      305835 NGot=  1073741824 MDV=  1073505300
 LenX=  1073505300 LenY=  1073452418
 Fock matrices will be formed incrementally for  20 cycles.

 Cycle   1  Pass 1  IDiag  1:
 FoFJK:  IHMeth= 1 ICntrl=     0 DoSepK=T KAlg= 1 I1Cent= 0 FoldK=F
 FoFCou: FMM=F IPFlag=           0 FMFlag=      100000 FMFlg1=           0
         NFxFlg=           0 DoJE=T BraDBF=F KetDBF=F FulRan=T
         Omega=  0.000000  0.000000  1.000000  0.000000  0.000000 ICntrl=     500 IOpCl=  0
         NMat0=    1 NMatS0=    1 NMatT0=    0 NMatD0=    1 NMtDS0=    0 NMtDT0=    0
         I1Cent=           0 NGrid=           0.
 Petite list used in FoFCou.
 E= -2904.93482458908    
 DIIS: error= 7.71D-02 at cycle   1 NSaved=   1.
 NSaved= 1 IEnMin= 1 EnMin= -2904.93482458908     IErMin= 1 ErrMin= 7.71D-02
 ErrMax= 7.71D-02 EMaxC= 1.00D-01 BMatC= 2.17D+00 BMatP= 2.17D+00
 IDIUse=3 WtCom= 2.29D-01 WtEn= 7.71D-01
 Coeff-Com:  0.100D+01
 Coeff-En:   0.100D+01
 Coeff:      0.100D+01
 Gap=     0.496 Goal=   None    Shift=    0.000
 GapD=    0.496 DampG=2.000 DampE=0.500 DampFc=1.0000 IDamp=-1.
 RMSDP=6.16D-03 MaxDP=3.67D-01              OVMax= 1.79D-01

 Cycle   2  Pass 1  IDiag  1:
 RMSU=  4.33D-03    CP:  1.03D+00
 FoFJK:  IHMeth= 1 ICntrl=     0 DoSepK=T KAlg= 1 I1Cent= 0 FoldK=F
 E= -2905.22719542571     Delta-E=       -0.292370836625 Rises=F Damp=F
 DIIS: error= 3.84D-02 at cycle   2 NSaved=   2.
 NSaved= 2 IEnMin= 2 EnMin= -2905.22719542571     IErMin= 2 ErrMin= 3.84D-02
 ErrMax= 3.84D-02 EMaxC= 1.00D-01 BMatC= 5.62D-01 BMatP= 2.17D+00
 IDIUse=3 WtCom= 6.16D-01 WtEn= 3.84D-01
 Coeff-Com:  0.330D+00 0.670D+00
 Coeff-En:   0.217D+00 0.783D+00
 Coeff:      0.286D+00 0.714D+00
 Gap=     0.417 Goal=   None    Shift=    0.000
 RMSDP=2.74D-03 MaxDP=1.59D-01 DE=-2.92D-01 OVMax= 7.71D-02

 Cycle   3  Pass 1  IDiag  1:
 RMSU=  5.72D-04    CP:  1.02D+00  5.75D-01
 FoFJK:  IHMeth= 1 ICntrl=     0 DoSepK=T KAlg= 1 I1Cent= 0 FoldK=F
 E= -2905.41787504188     Delta-E=       -0.190679616172 Rises=F Damp=F
 DIIS: error= 7.79D-03 at cycle   3 NSaved=   3.
 NSaved= 3 IEnMin= 3 EnMin= -2905.41787504188     IErMin= 3 ErrMin= 7.79D-03
 ErrMax= 7.79D-03 EMaxC= 1.00D-01 BMatC= 2.06D-02 BMatP= 5.62D-01
 IDIUse=3 WtCom= 9.22D-01 WtEn= 7.79D-02
 Coeff-Com:  0.340D-01 0.196D+00 0.770D+00
 Coeff-En:   0.000D+00 0.000D+00 0.100D+01
 Coeff:      0.313D-01 0.181D+00 0.788D+00
 Gap=     0.401 Goal=   None    Shift=    0.000
 RMSDP=5.17D-04 MaxDP=2.04D-02 DE=-1.91D-01 OVMax= 2.63D-02

 Cycle   4  Pass 1  IDiag  1:
 RMSU=  2.40D-04    CP:  1.02D+00  6.36D-01  8.64D-01
 FoFJK:  IHMeth= 1 ICntrl=     0 DoSepK=T KAlg= 1 I1Cent= 0 FoldK=F
 E= -2905.42689221465     Delta-E=       -0.009017172767 Rises=F Damp=F
 DIIS: error= 3.18D-03 at cycle   4 NSaved=   4.
 NSaved= 4 IEnMin= 4 EnMin= -2905.42689221465     IErMin= 4 ErrMin= 3.18D-03
 ErrMax= 3.18D-03 EMaxC= 1.00D-01 BMatC= 2.03D-03 BMatP= 2.06D-02
 IDIUse=3 WtCom= 9.68D-01 WtEn= 3.18D-02
 Coeff-Com: -0.107D-02 0.563D-01 0.382D+00 0.562D+00
 Coeff-En:   0.000D+00 0.000D+00 0.000D+00 0.100D+01
 Coeff:     -0.104D-02 0.545D-01 0.370D+00 0.576D+00
 Gap=     0.386 Goal=   None    Shift=    0.000
 RMSDP=1.28D-04 MaxDP=7.27D-03 DE=-9.02D-03 OVMax= 7.79D-03

 Cycle   5  Pass 1  IDiag  1:
 RMSU=  4.00D-05    CP:  1.02D+00  6.34D-01  9.12D-01  6.88D-01
 FoFJK:  IHMeth= 1 ICntrl=     0 DoSepK=T KAlg= 1 I1Cent= 0 FoldK=F
 E= -2905.42811679935     Delta-E=       -0.001224584700 Rises=F Damp=F
 DIIS: error= 3.72D-04 at cycle   5 NSaved=   5.
 NSaved= 5 IEnMin= 5 EnMin= -2905.42811679935     IErMin= 5 ErrMin= 3.72D-04
 ErrMax= 3.72D-04 EMaxC= 1.00D-01 BMatC= 3.79D-05 BMatP= 2.03D-03
 IDIUse=3 WtCom= 9.96D-01 WtEn= 3.72D-03
 Coeff-Com: -0.115D-02 0.186D-01 0.142D+00 0.237D+00 0.604D+00
 Coeff-En:   0.000D+00 0.000D+00 0.000D+00 0.000D+00 0.100D+01
 Coeff:     -0.114D-02 0.185D-01 0.141D+00 0.236D+00 0.605D+00
 Gap=     0.384 Goal=   None    Shift=    0.000
 RMSDP=2.29D-05 MaxDP=9.84D-04 DE=-1.22D-03 OVMax= 1.89D-03

 Cycle   6  Pass 1  IDiag  1:
 RMSU=  1.55D-05    CP:  1.02D+00  6.34D-01  9.16D-01  7.06D-01  9.66D-01
 FoFJK:  IHMeth= 1 ICntrl=     0 DoSepK=T KAlg= 1 I1Cent= 0 FoldK=F
 E= -2905.42813695356     Delta-E=       -0.000020154215 Rises=F Damp=F
 DIIS: error= 1.70D-04 at cycle   6 NSaved=   6.
 NSaved= 6 IEnMin= 6 EnMin= -2905.42813695356     IErMin= 6 ErrMin= 1.70D-04
 ErrMax= 1.70D-04 EMaxC= 1.00D-01 BMatC= 8.50D-06 BMatP= 3.79D-05
 IDIUse=3 WtCom= 9.98D-01 WtEn= 1.70D-03
 Coeff-Com: -0.360D-03-0.562D-02-0.270D-01-0.308D-01 0.318D+00 0.746D+00
 Coeff-En:   0.000D+00 0.000D+00 0.000D+00 0.000D+00 0.141D+00 0.859D+00
 Coeff:     -0.359D-03-0.561D-02-0.269D-01-0.307D-01 0.317D+00 0.746D+00
 Gap=     0.384 Goal=   None    Shift=    0.000
 RMSDP=1.22D-05 MaxDP=4.71D-04 DE=-2.02D-05 OVMax= 6.65D-04

 Cycle   7  Pass 1  IDiag  1:
 RMSU=  3.98D-06    CP:  1.02D+00  6.34D-01  9.22D-01  7.14D-01  1.12D+00
                    CP:  9.27D-01
 FoFJK:  IHMeth= 1 ICntrl=     0 DoSepK=T KAlg= 1 I1Cent= 0 FoldK=F
 E= -2905.42814306471     Delta-E=       -0.000006111142 Rises=F Damp=F
 DIIS: error= 1.62D-05 at cycle   7 NSaved=   7.
 NSaved= 7 IEnMin= 7 EnMin= -2905.42814306471     IErMin= 7 ErrMin= 1.62D-05
 ErrMax= 1.62D-05 EMaxC= 1.00D-01 BMatC= 3.92D-08 BMatP= 8.50D-06
 IDIUse=1 WtCom= 1.00D+00 WtEn= 0.00D+00
 Coeff-Com:  0.241D-04-0.841D-03-0.589D-02-0.834D-02-0.100D-01 0.339D-01
 Coeff-Com:  0.991D+00
 Coeff:      0.241D-04-0.841D-03-0.589D-02-0.834D-02-0.100D-01 0.339D-01
 Coeff:      0.991D+00
 Gap=     0.384 Goal=   None    Shift=    0.000
 RMSDP=2.26D-06 MaxDP=9.35D-05 DE=-6.11D-06 OVMax= 1.54D-04

 Cycle   8  Pass 1  IDiag  1:
 RMSU=  8.41D-07    CP:  1.02D+00  6.34D-01  9.23D-01  7.16D-01  1.14D+00
                    CP:  9.72D-01  1.15D+00
 FoFJK:  IHMeth= 1 ICntrl=     0 DoSepK=T KAlg= 1 I1Cent= 0 FoldK=F
 E= -2905.42814314783     Delta-E=       -0.000000083129 Rises=F Damp=F
 DIIS: error= 2.53D-06 at cycle   8 NSaved=   8.
 NSaved= 8 IEnMin= 8 EnMin= -2905.42814314783     IErMin= 8 ErrMin= 2.53D-06
 ErrMax= 2.53D-06 EMaxC= 1.00D-01 BMatC= 2.10D-09 BMatP= 3.92D-08
 IDIUse=1 WtCom= 1.00D+00 WtEn= 0.00D+00
 Coeff-Com:  0.108D-04 0.716D-04 0.233D-03-0.733D-04-0.125D-01-0.234D-01
 Coeff-Com:  0.716D-01 0.964D+00
 Coeff:      0.108D-04 0.716D-04 0.233D-03-0.733D-04-0.125D-01-0.234D-01
 Coeff:      0.716D-01 0.964D+00
 Gap=     0.384 Goal=   None    Shift=    0.000
 RMSDP=5.16D-07 MaxDP=2.04D-05 DE=-8.31D-08 OVMax= 3.69D-05

 Cycle   9  Pass 1  IDiag  1:
 RMSU=  1.49D-07    CP:  1.02D+00  6.34D-01  9.23D-01  7.16D-01  1.14D+00
                    CP:  9.79D-01  1.20D+00  1.22D+00
 FoFJK:  IHMeth= 1 ICntrl=     0 DoSepK=T KAlg= 1 I1Cent= 0 FoldK=F
 E= -2905.42814315212     Delta-E=       -0.000000004288 Rises=F Damp=F
 DIIS: error= 8.14D-07 at cycle   9 NSaved=   9.
 NSaved= 9 IEnMin= 9 EnMin= -2905.42814315212     IErMin= 9 ErrMin= 8.14D-07
 ErrMax= 8.14D-07 EMaxC= 1.00D-01 BMatC= 1.90D-10 BMatP= 2.10D-09
 IDIUse=1 WtCom= 1.00D+00 WtEn= 0.00D+00
 Coeff-Com: -0.658D-06 0.563D-04 0.376D-03 0.362D-03-0.105D-02-0.442D-02
 Coeff-Com: -0.526D-01 0.125D+00 0.933D+00
 Coeff:     -0.658D-06 0.563D-04 0.376D-03 0.362D-03-0.105D-02-0.442D-02
 Coeff:     -0.526D-01 0.125D+00 0.933D+00
 Gap=     0.384 Goal=   None    Shift=    0.000
 RMSDP=1.15D-07 MaxDP=4.57D-06 DE=-4.29D-09 OVMax= 7.97D-06

 Cycle  10  Pass 1  IDiag  1:
 RMSU=  3.89D-08    CP:  1.02D+00  6.34D-01  9.23D-01  7.16D-01  1.14D+00
                    CP:  9.80D-01  1.21D+00  1.28D+00  1.10D+00
 FoFJK:  IHMeth= 1 ICntrl=     0 DoSepK=T KAlg= 1 I1Cent= 0 FoldK=F
 E= -2905.42814315244     Delta-E=       -0.000000000316 Rises=F Damp=F
 DIIS: error= 1.52D-07 at cycle  10 NSaved=  10.
 NSaved=10 IEnMin=10 EnMin= -2905.42814315244     IErMin=10 ErrMin= 1.52D-07
 ErrMax= 1.52D-07 EMaxC= 1.00D-01 BMatC= 8.38D-12 BMatP= 1.90D-10
 IDIUse=1 WtCom= 1.00D+00 WtEn= 0.00D+00
 Coeff-Com: -0.405D-06 0.205D-05 0.183D-04 0.258D-04 0.803D-03 0.144D-02
 Coeff-Com: -0.731D-02-0.575D-01 0.556D-01 0.101D+01
 Coeff:     -0.405D-06 0.205D-05 0.183D-04 0.258D-04 0.803D-03 0.144D-02
 Coeff:     -0.731D-02-0.575D-01 0.556D-01 0.101D+01
 Gap=     0.384 Goal=   None    Shift=    0.000
 RMSDP=2.50D-08 MaxDP=6.13D-07 DE=-3.16D-10 OVMax= 2.12D-06

 Cycle  11  Pass 1  IDiag  1:
 RMSU=  9.56D-09    CP:  1.02D+00  6.34D-01  9.23D-01  7.16D-01  1.14D+00
                    CP:  9.80D-01  1.21D+00  1.29D+00  1.16D+00  1.18D+00
 FoFJK:  IHMeth= 1 ICntrl=     0 DoSepK=T KAlg= 1 I1Cent= 0 FoldK=F
 E= -2905.42814315246     Delta-E=       -0.000000000018 Rises=F Damp=F
 DIIS: error= 4.59D-08 at cycle  11 NSaved=  11.
 NSaved=11 IEnMin=11 EnMin= -2905.42814315246     IErMin=11 ErrMin= 4.59D-08
 ErrMax= 4.59D-08 EMaxC= 1.00D-01 BMatC= 4.15D-13 BMatP= 8.38D-12
 IDIUse=1 WtCom= 1.00D+00 WtEn= 0.00D+00
 Coeff-Com:  0.112D-06-0.140D-05-0.116D-04-0.987D-06 0.336D-04 0.121D-03
 Coeff-Com:  0.179D-02-0.495D-02-0.299D-01 0.541D-02 0.103D+01
 Coeff:      0.112D-06-0.140D-05-0.116D-04-0.987D-06 0.336D-04 0.121D-03
 Coeff:      0.179D-02-0.495D-02-0.299D-01 0.541D-02 0.103D+01
 Gap=     0.384 Goal=   None    Shift=    0.000
 RMSDP=5.80D-09 MaxDP=1.57D-07 DE=-1.82D-11 OVMax= 3.86D-07

 SCF Done:  E(RwB97XD) =  -2905.42814315     A.U. after   11 cycles
             Convg  =    0.5800D-08             -V/T =  2.0015
 KE= 2.900971270386D+03 PE=-7.235015144467D+03 EE= 1.280339504370D+03
 Leave Link  502 at Sat May  9 23:34:07 2020, MaxMem= 1073741824 cpu:     287.5
 (Enter /home/matheus/.gaussian/g09/l601.exe)
 Copying SCF densities to generalized density rwf, IOpCl= 0 IROHF=0.

 **********************************************************************

            Population analysis using the SCF density.

 **********************************************************************

 Orbital symmetries:
       Occupied  (A') (A') (A') (A") (A') (A') (A') (A') (A') (A")
                 (A') (A') (A") (A') (A") (A') (A') (A') (A') (A')
                 (A') (A") (A') (A") (A') (A') (A")
       Virtual   (A') (A') (A') (A') (A") (A') (A') (A') (A") (A')
                 (A') (A") (A') (A') (A") (A') (A") (A') (A') (A')
                 (A') (A") (A') (A") (A') (A') (A') (A') (A") (A')
                 (A') (A') (A") (A') (A") (A') (A") (A') (A") (A')
                 (A") (A') (A') (A') (A") (A') (A') (A") (A") (A')
                 (A') (A') (A") (A') (A") (A') (A") (A') (A') (A')
                 (A") (A') (A") (A') (A") (A') (A') (A') (A") (A')
                 (A') (A") (A") (A') (A') (A') (A') (A") (A') (A')
                 (A') (A") (A') (A") (A") (A") (A') (A') (A') (A")
                 (A') (A') (A") (A') (A') (A") (A') (A') (A") (A")
                 (A') (A') (A") (A') (A") (A') (A") (A') (A') (A")
                 (A') (A") (A') (A') (A') (A') (A') (A") (A') (A')
                 (A') (A") (A") (A') (A") (A") (A') (A") (A') (A")
                 (A') (A') (A') (A') (A') (A') (A') (A') (A") (A")
                 (A') (A') (A') (A") (A') (A') (A") (A') (A") (A')
                 (A") (A') (A") (A") (A") (A") (A") (A') (A') (A')
                 (A') (A") (A') (A') (A') (A') (A') (A') (A') (A')
 The electronic state is 1-A'.
 Alpha  occ. eigenvalues -- -513.06808 -67.33492 -60.88377 -60.88362 -60.88356
 Alpha  occ. eigenvalues --  -19.31466 -19.31047  -9.78799  -7.48134  -7.48084
 Alpha  occ. eigenvalues --   -7.48064  -3.34871  -3.34860  -3.34845  -3.34804
 Alpha  occ. eigenvalues --   -3.34803  -1.21835  -1.01018  -0.99410  -0.63087
 Alpha  occ. eigenvalues --   -0.59723  -0.49821  -0.48152  -0.47358  -0.46974
 Alpha  occ. eigenvalues --   -0.43801  -0.34810
 Alpha virt. eigenvalues --    0.03600   0.04224   0.07745   0.09873   0.10787
 Alpha virt. eigenvalues --    0.11638   0.13488   0.14209   0.17203   0.17287
 Alpha virt. eigenvalues --    0.18043   0.19473   0.20655   0.23036   0.23431
 Alpha virt. eigenvalues --    0.24393   0.26548   0.27973   0.29786   0.33345
 Alpha virt. eigenvalues --    0.34003   0.34228   0.36503   0.38517   0.39201
 Alpha virt. eigenvalues --    0.40163   0.42669   0.47927   0.51080   0.53667
 Alpha virt. eigenvalues --    0.56069   0.58582   0.63375   0.64242   0.67573
 Alpha virt. eigenvalues --    0.69905   0.70292   0.72357   0.73418   0.74464
 Alpha virt. eigenvalues --    0.74833   0.75095   0.77041   0.78656   0.79019
 Alpha virt. eigenvalues --    0.80860   0.84485   0.85818   0.87852   0.89014
 Alpha virt. eigenvalues --    0.90412   0.92723   0.94740   0.97270   0.97814
 Alpha virt. eigenvalues --    1.01635   1.02277   1.03419   1.04415   1.06491
 Alpha virt. eigenvalues --    1.10255   1.12135   1.13970   1.17133   1.18154
 Alpha virt. eigenvalues --    1.25292   1.29650   1.33682   1.38286   1.39423
 Alpha virt. eigenvalues --    1.48459   1.50045   1.52244   1.54213   1.55696
 Alpha virt. eigenvalues --    1.60198   1.76308   1.77133   1.83712   1.92063
 Alpha virt. eigenvalues --    1.96501   1.96874   2.02579   2.11001   2.12833
 Alpha virt. eigenvalues --    2.13501   2.13996   2.15279   2.17706   2.24394
 Alpha virt. eigenvalues --    2.24930   2.26497   2.28269   2.31203   2.32709
 Alpha virt. eigenvalues --    2.35280   2.37262   2.42276   2.43570   2.45793
 Alpha virt. eigenvalues --    2.46066   2.47339   2.49141   2.53654   2.55850
 Alpha virt. eigenvalues --    2.56821   2.59579   2.63551   2.66663   2.67674
 Alpha virt. eigenvalues --    2.68578   2.72676   2.72831   2.76744   2.87071
 Alpha virt. eigenvalues --    2.94702   3.05571   3.06957   3.13331   3.49150
 Alpha virt. eigenvalues --    3.73777   3.80958   3.87986   4.03373   4.04420
 Alpha virt. eigenvalues --    4.09175   4.12162   4.19067   4.21330   4.25330
 Alpha virt. eigenvalues --    4.35081   4.40227   4.50831   4.53010   4.71630
 Alpha virt. eigenvalues --    4.87027   5.00300   5.01468   5.04656   5.06670
 Alpha virt. eigenvalues --    5.35302   5.42472   5.81166   5.95143   6.07133
 Alpha virt. eigenvalues --    6.12084   6.27398   6.34588   6.42787   6.44139
 Alpha virt. eigenvalues --    6.68337   6.70130   6.71622   6.78445   6.84183
 Alpha virt. eigenvalues --    6.87761   6.90553   6.92470   6.92867   6.95678
 Alpha virt. eigenvalues --    6.99198   7.19768   7.23094   7.37116   7.59765
 Alpha virt. eigenvalues --    7.82127   8.10530   8.13171  14.15411  14.57735
          Condensed to atoms (all electrons):
              1          2          3          4          5
     1  O    8.168235  -0.160162   0.179240   0.006939  -0.030144
     2  O   -0.160162   8.256735   0.004551   0.200208  -0.018638
     3  H    0.179240   0.004551   0.625888   0.003343   0.002991
     4  H    0.006939   0.200208   0.003343   0.537183  -0.003634
     5  Kr  -0.030144  -0.018638   0.002991  -0.003634  36.042575
 Mulliken atomic charges:
              1
     1  O   -0.164107
     2  O   -0.282693
     3  H    0.183988
     4  H    0.255961
     5  Kr   0.006851
 Sum of Mulliken atomic charges =   0.00000
 Mulliken charges with hydrogens summed into heavy atoms:
              1
     1  O    0.019881
     2  O   -0.026732
     5  Kr   0.006851
 Sum of Mulliken charges with hydrogens summed into heavy atoms =   0.00000
          Condensed to fragments (all electrons):
     1      -0.006851
     2       0.006851
 Electronic spatial extent (au):  <R**2>=            492.4374
 Charge=              0.0000 electrons
 Dipole moment (field-independent basis, Debye):
    X=              0.2820    Y=              0.1820    Z=              0.0000  Tot=              0.3356
 Quadrupole moment (field-independent basis, Debye-Ang):
   XX=            -28.1725   YY=            -26.2033   ZZ=            -30.6567
   XY=             -3.8834   XZ=              0.0000   YZ=              0.0000
 Traceless Quadrupole moment (field-independent basis, Debye-Ang):
   XX=              0.1717   YY=              2.1408   ZZ=             -2.3125
   XY=             -3.8834   XZ=              0.0000   YZ=              0.0000
 Octapole moment (field-independent basis, Debye-Ang**2):
  XXX=              0.3938  YYY=             -0.2667  ZZZ=              0.0000  XYY=             16.6079
  XXY=              3.6495  XXZ=              0.0000  XZZ=              0.1344  YZZ=              8.7238
  YYZ=              0.0000  XYZ=              0.0000
 Hexadecapole moment (field-independent basis, Debye-Ang**3):
 XXXX=            -63.5189 YYYY=           -341.1624 ZZZZ=            -29.5791 XXXY=             -2.4739
 XXXZ=              0.0000 YYYX=            -49.9842 YYYZ=              0.0000 ZZZX=              0.0000
 ZZZY=              0.0000 XXYY=            -73.0929 XXZZ=            -17.5462 YYZZ=            -80.3444
 XXYZ=              0.0000 YYXZ=              0.0000 ZZXY=              0.8688
 N-N= 1.482762265582D+02 E-N=-7.235015146639D+03  KE= 2.900971270386D+03
 Symmetry A'   KE= 2.485208174954D+03
 Symmetry A"   KE= 4.157630954321D+02
 No NMR shielding tensors so no spin-rotation constants.
 Leave Link  601 at Sat May  9 23:34:07 2020, MaxMem= 1073741824 cpu:       0.9
 (Enter /home/matheus/.gaussian/g09/l122.exe)
 Counterpoise: doing DCBS calculation for fragment   1 NewBq=T
 Leave Link  122 at Sat May  9 23:34:07 2020, MaxMem= 1073741824 cpu:       0.0
 (Enter /home/matheus/.gaussian/g09/l301.exe)
 Basis read from rwf:  (5D, 7F)
 No pseudopotential information found on rwf file.
 There are   131 symmetry adapted basis functions of A'  symmetry.
 There are    66 symmetry adapted basis functions of A"  symmetry.
 Integral buffers will be    131072 words long.
 Raffenetti 2 integral format.
 Two-electron integral symmetry is turned on.
   197 basis functions,   415 primitive gaussians,   229 cartesian basis functions
     9 alpha electrons        9 beta electrons
       nuclear repulsion energy        36.6006188945 Hartrees.
 IExCor= 4639 DFT=T Ex+Corr=wB97XD ExCW=0 ScaHFX=  1.000000
 ScaDFX=  1.000000  1.000000  1.000000  1.000000 ScalE2=  1.000000  1.000000
 IRadAn=      5 IRanWt=     -1 IRanGd=            0 ICorTp=0
  HFx wShort=  0.000000 wLong=  0.200000 cFull=  0.222036 cShort=  0.000000 cLong=  0.777964
  DFx wShort=  0.000000 wLong=  0.200000 cFull=  0.000000 cShort=  0.000000 cLong=  1.000000
 NAtoms=    5 NActive=    5 NUniq=    5 SFac= 1.00D+00 NAtFMM=   60 NAOKFM=F Big=F
 R6Disp: Dispersion energy =        -0.0001972383 Hartrees.
 Nuclear repulsion after empirical dispersion term =       36.6004216562 Hartrees.
 No density basis found on file   718.
 Leave Link  301 at Sat May  9 23:34:07 2020, MaxMem= 1073741824 cpu:       0.2
 (Enter /home/matheus/.gaussian/g09/l302.exe)
 NPDir=0 NMtPBC=     1 NCelOv=     1 NCel=       1 NClECP=     1 NCelD=      1
         NCelK=      1 NCelE2=     1 NClLst=     1 CellRange=     0.0.
 One-electron integrals computed using PRISM.
 NBasis=   197 RedAO= T  NBF=   131    66
 NBsUse=   197 1.00D-06 NBFU=   131    66
 Precomputing XC quadrature grid using
 IXCGrd= 2 IRadAn=           5 IRanWt=          -1 IRanGd=           0 AccXCQ= 0.00D+00.
 NRdTot=     427 NPtTot=      123814 NUsed=      126881 NTot=      126913
 NSgBfM=   229   229   229   229   229 NAtAll=     5     5.
 Leave Link  302 at Sat May  9 23:34:08 2020, MaxMem= 1073741824 cpu:       0.9
 (Enter /home/matheus/.gaussian/g09/l303.exe)
 DipDrv:  MaxL=1.
 Leave Link  303 at Sat May  9 23:34:08 2020, MaxMem= 1073741824 cpu:       0.2
 (Enter /home/matheus/.gaussian/g09/l401.exe)
 Harris functional with IExCor= 4639 diagonalized for initial guess.
 ExpMin= 2.53D-02 ExpMax= 1.17D+07 ExpMxC= 1.33D+04 IAcc=3 IRadAn=         5 AccDes= 0.00D+00
 HarFok:  IExCor= 4639 AccDes= 0.00D+00 IRadAn=         5 IDoV= 1
 ScaDFX=  1.000000  1.000000  1.000000  1.000000
 FoFCou: FMM=F IPFlag=           0 FMFlag=      100000 FMFlg1=           0
         NFxFlg=           0 DoJE=T BraDBF=F KetDBF=T FulRan=T
         Omega=  0.000000  0.000000  1.000000  0.000000  0.000000 ICntrl=     500 IOpCl=  0
         NMat0=    1 NMatS0=    1 NMatT0=    0 NMatD0=    1 NMtDS0=    0 NMtDT0=    0
         I1Cent=           4 NGrid=           0.
 Petite list used in FoFCou.
 Harris En= -146.291156734467    
 Initial guess orbital symmetries:
       Occupied  (A') (A') (A') (A') (A') (A') (A") (A') (A")
       Virtual   (A') (A') (A') (A") (A') (A') (A') (A') (A") (A')
                 (A') (A") (A') (A') (A") (A') (A') (A') (A") (A')
                 (A') (A") (A') (A') (A') (A') (A") (A') (A") (A')
                 (A') (A') (A') (A") (A") (A') (A') (A") (A') (A")
                 (A') (A') (A") (A') (A') (A") (A') (A") (A') (A')
                 (A') (A") (A') (A') (A") (A') (A") (A") (A') (A')
                 (A') (A") (A') (A') (A") (A') (A') (A") (A") (A')
                 (A') (A') (A") (A') (A") (A') (A') (A") (A') (A")
                 (A') (A') (A') (A') (A") (A') (A') (A") (A") (A')
                 (A') (A") (A') (A') (A') (A") (A') (A") (A') (A')
                 (A") (A") (A') (A') (A') (A') (A") (A') (A") (A')
                 (A') (A') (A') (A') (A") (A") (A') (A") (A') (A")
                 (A") (A") (A') (A') (A') (A") (A") (A') (A') (A")
                 (A') (A') (A") (A") (A') (A') (A') (A') (A') (A')
                 (A') (A') (A") (A") (A') (A') (A') (A") (A') (A')
                 (A") (A') (A") (A') (A") (A") (A') (A") (A") (A")
                 (A") (A') (A') (A') (A') (A") (A') (A') (A') (A')
                 (A') (A') (A') (A') (A') (A") (A') (A') (A") (A')
                 (A") (A') (A') (A') (A") (A') (A') (A')
 The electronic state of the initial guess is 1-A'.
 Leave Link  401 at Sat May  9 23:34:08 2020, MaxMem= 1073741824 cpu:       2.6
 (Enter /home/matheus/.gaussian/g09/l502.exe)
 Closed shell SCF:
 Requested convergence on RMS density matrix=1.00D-08 within 128 cycles.
 Requested convergence on MAX density matrix=1.00D-06.
 Requested convergence on             energy=1.00D-06.
 No special actions if energy rises.
 Using DIIS extrapolation, IDIIS=  1040.
 Integral symmetry usage will be decided dynamically.
       126823 words used for storage of precomputed grid.
 IEnd=      305835 IEndB=      305835 NGot=  1073741824 MDV=  1073505300
 LenX=  1073505300 LenY=  1073452418
 Fock matrices will be formed incrementally for  20 cycles.

 Cycle   1  Pass 1  IDiag  1:
 FoFJK:  IHMeth= 1 ICntrl=     0 DoSepK=T KAlg= 1 I1Cent= 0 FoldK=F
 FoFCou: FMM=F IPFlag=           0 FMFlag=      100000 FMFlg1=           0
         NFxFlg=           0 DoJE=T BraDBF=F KetDBF=F FulRan=T
         Omega=  0.000000  0.000000  1.000000  0.000000  0.000000 ICntrl=     500 IOpCl=  0
         NMat0=    1 NMatS0=    1 NMatT0=    0 NMatD0=    1 NMtDS0=    0 NMtDT0=    0
         I1Cent=           0 NGrid=           0.
 Petite list used in FoFCou.
 E= -151.476731670711    
 DIIS: error= 3.52D-02 at cycle   1 NSaved=   1.
 NSaved= 1 IEnMin= 1 EnMin= -151.476731670711     IErMin= 1 ErrMin= 3.52D-02
 ErrMax= 3.52D-02 EMaxC= 1.00D-01 BMatC= 2.98D-01 BMatP= 2.98D-01
 IDIUse=3 WtCom= 6.48D-01 WtEn= 3.52D-01
 Coeff-Com:  0.100D+01
 Coeff-En:   0.100D+01
 Coeff:      0.100D+01
 Gap=     0.495 Goal=   None    Shift=    0.000
 GapD=    0.495 DampG=2.000 DampE=0.500 DampFc=1.0000 IDamp=-1.
 RMSDP=2.32D-03 MaxDP=1.00D-01              OVMax= 1.09D-01

 Cycle   2  Pass 1  IDiag  1:
 RMSU=  1.61D-03    CP:  9.56D-01
 FoFJK:  IHMeth= 1 ICntrl=     0 DoSepK=T KAlg= 1 I1Cent= 0 FoldK=F
 E= -151.505858617717     Delta-E=       -0.029126947006 Rises=F Damp=F
 DIIS: error= 1.82D-02 at cycle   2 NSaved=   2.
 NSaved= 2 IEnMin= 2 EnMin= -151.505858617717     IErMin= 2 ErrMin= 1.82D-02
 ErrMax= 1.82D-02 EMaxC= 1.00D-01 BMatC= 8.89D-02 BMatP= 2.98D-01
 IDIUse=3 WtCom= 8.18D-01 WtEn= 1.82D-01
 Coeff-Com:  0.330D+00 0.670D+00
 Coeff-En:   0.366D+00 0.634D+00
 Coeff:      0.337D+00 0.663D+00
 Gap=     0.413 Goal=   None    Shift=    0.000
 RMSDP=9.78D-04 MaxDP=4.76D-02 DE=-2.91D-02 OVMax= 5.85D-02

 Cycle   3  Pass 1  IDiag  1:
 RMSU=  3.67D-04    CP:  9.76D-01  6.46D-01
 FoFJK:  IHMeth= 1 ICntrl=     0 DoSepK=T KAlg= 1 I1Cent= 0 FoldK=F
 E= -151.553786700352     Delta-E=       -0.047928082635 Rises=F Damp=F
 DIIS: error= 5.21D-03 at cycle   3 NSaved=   3.
 NSaved= 3 IEnMin= 3 EnMin= -151.553786700352     IErMin= 3 ErrMin= 5.21D-03
 ErrMax= 5.21D-03 EMaxC= 1.00D-01 BMatC= 6.32D-03 BMatP= 8.89D-02
 IDIUse=3 WtCom= 9.48D-01 WtEn= 5.21D-02
 Coeff-Com:  0.114D-01 0.218D+00 0.771D+00
 Coeff-En:   0.000D+00 0.000D+00 0.100D+01
 Coeff:      0.108D-01 0.207D+00 0.783D+00
 Gap=     0.386 Goal=   None    Shift=    0.000
 RMSDP=2.76D-04 MaxDP=1.24D-02 DE=-4.79D-02 OVMax= 1.64D-02

 Cycle   4  Pass 1  IDiag  1:
 RMSU=  6.36D-05    CP:  9.70D-01  7.50D-01  8.14D-01
 FoFJK:  IHMeth= 1 ICntrl=     0 DoSepK=T KAlg= 1 I1Cent= 0 FoldK=F
 E= -151.557811681741     Delta-E=       -0.004024981389 Rises=F Damp=F
 DIIS: error= 4.46D-04 at cycle   4 NSaved=   4.
 NSaved= 4 IEnMin= 4 EnMin= -151.557811681741     IErMin= 4 ErrMin= 4.46D-04
 ErrMax= 4.46D-04 EMaxC= 1.00D-01 BMatC= 5.16D-05 BMatP= 6.32D-03
 IDIUse=3 WtCom= 9.96D-01 WtEn= 4.46D-03
 Coeff-Com: -0.100D-02-0.531D-02 0.653D-01 0.941D+00
 Coeff-En:   0.000D+00 0.000D+00 0.000D+00 0.100D+01
 Coeff:     -0.997D-03-0.528D-02 0.650D-01 0.941D+00
 Gap=     0.383 Goal=   None    Shift=    0.000
 RMSDP=3.59D-05 MaxDP=2.00D-03 DE=-4.02D-03 OVMax= 1.48D-03

 Cycle   5  Pass 1  IDiag  1:
 RMSU=  1.20D-05    CP:  9.71D-01  7.43D-01  8.59D-01  1.15D+00
 FoFJK:  IHMeth= 1 ICntrl=     0 DoSepK=T KAlg= 1 I1Cent= 0 FoldK=F
 E= -151.557848991421     Delta-E=       -0.000037309680 Rises=F Damp=F
 DIIS: error= 3.79D-05 at cycle   5 NSaved=   5.
 NSaved= 5 IEnMin= 5 EnMin= -151.557848991421     IErMin= 5 ErrMin= 3.79D-05
 ErrMax= 3.79D-05 EMaxC= 1.00D-01 BMatC= 3.10D-07 BMatP= 5.16D-05
 IDIUse=1 WtCom= 1.00D+00 WtEn= 0.00D+00
 Coeff-Com: -0.403D-03-0.811D-02-0.308D-01-0.363D-01 0.108D+01
 Coeff:     -0.403D-03-0.811D-02-0.308D-01-0.363D-01 0.108D+01
 Gap=     0.383 Goal=   None    Shift=    0.000
 RMSDP=8.07D-06 MaxDP=3.57D-04 DE=-3.73D-05 OVMax= 5.58D-04

 Cycle   6  Pass 1  IDiag  1:
 RMSU=  2.20D-06    CP:  9.71D-01  7.43D-01  8.65D-01  1.21D+00  1.22D+00
 FoFJK:  IHMeth= 1 ICntrl=     0 DoSepK=T KAlg= 1 I1Cent= 0 FoldK=F
 E= -151.557849792222     Delta-E=       -0.000000800801 Rises=F Damp=F
 DIIS: error= 1.15D-05 at cycle   6 NSaved=   6.
 NSaved= 6 IEnMin= 6 EnMin= -151.557849792222     IErMin= 6 ErrMin= 1.15D-05
 ErrMax= 1.15D-05 EMaxC= 1.00D-01 BMatC= 2.66D-08 BMatP= 3.10D-07
 IDIUse=1 WtCom= 1.00D+00 WtEn= 0.00D+00
 Coeff-Com: -0.354D-04-0.125D-02-0.700D-02-0.273D-01 0.179D+00 0.857D+00
 Coeff:     -0.354D-04-0.125D-02-0.700D-02-0.273D-01 0.179D+00 0.857D+00
 Gap=     0.383 Goal=   None    Shift=    0.000
 RMSDP=1.30D-06 MaxDP=5.13D-05 DE=-8.01D-07 OVMax= 9.89D-05

 Cycle   7  Pass 1  IDiag  1:
 RMSU=  5.79D-07    CP:  9.71D-01  7.43D-01  8.65D-01  1.21D+00  1.26D+00
                    CP:  1.21D+00
 FoFJK:  IHMeth= 1 ICntrl=     0 DoSepK=T KAlg= 1 I1Cent= 0 FoldK=F
 E= -151.557849819367     Delta-E=       -0.000000027145 Rises=F Damp=F
 DIIS: error= 8.60D-06 at cycle   7 NSaved=   7.
 NSaved= 7 IEnMin= 7 EnMin= -151.557849819367     IErMin= 7 ErrMin= 8.60D-06
 ErrMax= 8.60D-06 EMaxC= 1.00D-01 BMatC= 1.80D-08 BMatP= 2.66D-08
 IDIUse=1 WtCom= 1.00D+00 WtEn= 0.00D+00
 Coeff-Com:  0.213D-04 0.160D-03-0.528D-03-0.108D-01-0.215D-01 0.471D+00
 Coeff-Com:  0.561D+00
 Coeff:      0.213D-04 0.160D-03-0.528D-03-0.108D-01-0.215D-01 0.471D+00
 Coeff:      0.561D+00
 Gap=     0.383 Goal=   None    Shift=    0.000
 RMSDP=4.79D-07 MaxDP=2.17D-05 DE=-2.71D-08 OVMax= 3.50D-05

 Cycle   8  Pass 1  IDiag  1:
 RMSU=  1.92D-07    CP:  9.71D-01  7.43D-01  8.65D-01  1.21D+00  1.27D+00
                    CP:  1.30D+00  7.60D-01
 FoFJK:  IHMeth= 1 ICntrl=     0 DoSepK=T KAlg= 1 I1Cent= 0 FoldK=F
 E= -151.557849832333     Delta-E=       -0.000000012966 Rises=F Damp=F
 DIIS: error= 1.88D-06 at cycle   8 NSaved=   8.
 NSaved= 8 IEnMin= 8 EnMin= -151.557849832333     IErMin= 8 ErrMin= 1.88D-06
 ErrMax= 1.88D-06 EMaxC= 1.00D-01 BMatC= 9.71D-10 BMatP= 1.80D-08
 IDIUse=1 WtCom= 1.00D+00 WtEn= 0.00D+00
 Coeff-Com:  0.770D-05 0.231D-03 0.113D-02 0.225D-02-0.398D-01-0.457D-01
 Coeff-Com:  0.154D+00 0.928D+00
 Coeff:      0.770D-05 0.231D-03 0.113D-02 0.225D-02-0.398D-01-0.457D-01
 Coeff:      0.154D+00 0.928D+00
 Gap=     0.383 Goal=   None    Shift=    0.000
 RMSDP=1.86D-07 MaxDP=6.15D-06 DE=-1.30D-08 OVMax= 1.50D-05

 Cycle   9  Pass 1  IDiag  1:
 RMSU=  5.03D-08    CP:  9.71D-01  7.43D-01  8.65D-01  1.21D+00  1.28D+00
                    CP:  1.34D+00  8.81D-01  1.04D+00
 FoFJK:  IHMeth= 1 ICntrl=     0 DoSepK=T KAlg= 1 I1Cent= 0 FoldK=F
 E= -151.557849833488     Delta-E=       -0.000000001155 Rises=F Damp=F
 DIIS: error= 2.32D-07 at cycle   9 NSaved=   9.
 NSaved= 9 IEnMin= 9 EnMin= -151.557849833488     IErMin= 9 ErrMin= 2.32D-07
 ErrMax= 2.32D-07 EMaxC= 1.00D-01 BMatC= 1.28D-11 BMatP= 9.71D-10
 IDIUse=1 WtCom= 1.00D+00 WtEn= 0.00D+00
 Coeff-Com: -0.126D-06 0.927D-05 0.996D-04 0.550D-03-0.777D-03-0.261D-01
 Coeff-Com: -0.128D-01 0.840D-01 0.955D+00
 Coeff:     -0.126D-06 0.927D-05 0.996D-04 0.550D-03-0.777D-03-0.261D-01
 Coeff:     -0.128D-01 0.840D-01 0.955D+00
 Gap=     0.383 Goal=   None    Shift=    0.000
 RMSDP=2.79D-08 MaxDP=6.54D-07 DE=-1.16D-09 OVMax= 2.91D-06

 Cycle  10  Pass 1  IDiag  1:
 RMSU=  1.02D-08    CP:  9.71D-01  7.43D-01  8.65D-01  1.21D+00  1.28D+00
                    CP:  1.34D+00  8.88D-01  1.07D+00  1.24D+00
 FoFJK:  IHMeth= 1 ICntrl=     0 DoSepK=T KAlg= 1 I1Cent= 0 FoldK=F
 E= -151.557849833510     Delta-E=       -0.000000000022 Rises=F Damp=F
 DIIS: error= 7.56D-08 at cycle  10 NSaved=  10.
 NSaved=10 IEnMin=10 EnMin= -151.557849833510     IErMin=10 ErrMin= 7.56D-08
 ErrMax= 7.56D-08 EMaxC= 1.00D-01 BMatC= 9.35D-13 BMatP= 1.28D-11
 IDIUse=1 WtCom= 1.00D+00 WtEn= 0.00D+00
 Coeff-Com:  0.188D-06-0.323D-05-0.425D-04-0.154D-03 0.133D-02 0.357D-02
 Coeff-Com: -0.360D-02-0.363D-01-0.113D+00 0.115D+01
 Coeff:      0.188D-06-0.323D-05-0.425D-04-0.154D-03 0.133D-02 0.357D-02
 Coeff:     -0.360D-02-0.363D-01-0.113D+00 0.115D+01
 Gap=     0.383 Goal=   None    Shift=    0.000
 RMSDP=1.26D-08 MaxDP=4.32D-07 DE=-2.21D-11 OVMax= 8.16D-07

 Cycle  11  Pass 1  IDiag  1:
 RMSU=  2.20D-09    CP:  9.71D-01  7.43D-01  8.65D-01  1.21D+00  1.28D+00
                    CP:  1.34D+00  8.89D-01  1.08D+00  1.32D+00  1.26D+00
 FoFJK:  IHMeth= 1 ICntrl=     0 DoSepK=T KAlg= 1 I1Cent= 0 FoldK=F
 E= -151.557849833513     Delta-E=       -0.000000000002 Rises=F Damp=F
 DIIS: error= 9.31D-09 at cycle  11 NSaved=  11.
 NSaved=11 IEnMin=11 EnMin= -151.557849833513     IErMin=11 ErrMin= 9.31D-09
 ErrMax= 9.31D-09 EMaxC= 1.00D-01 BMatC= 7.46D-15 BMatP= 9.35D-13
 IDIUse=1 WtCom= 1.00D+00 WtEn= 0.00D+00
 Coeff-Com: -0.679D-07-0.981D-07 0.506D-05 0.223D-04-0.209D-03-0.327D-03
 Coeff-Com:  0.803D-03 0.556D-02 0.766D-02-0.229D+00 0.122D+01
 Coeff:     -0.679D-07-0.981D-07 0.506D-05 0.223D-04-0.209D-03-0.327D-03
 Coeff:      0.803D-03 0.556D-02 0.766D-02-0.229D+00 0.122D+01
 Gap=     0.383 Goal=   None    Shift=    0.000
 RMSDP=1.30D-09 MaxDP=5.10D-08 DE=-2.10D-12 OVMax= 1.55D-07

 SCF Done:  E(RwB97XD) =  -151.557849834     A.U. after   11 cycles
             Convg  =    0.1299D-08             -V/T =  2.0059
 KE= 1.506659959968D+02 PE=-4.317248576404D+02 EE= 9.290059015389D+01
 Leave Link  502 at Sat May  9 23:34:40 2020, MaxMem= 1073741824 cpu:     259.1
 (Enter /home/matheus/.gaussian/g09/l601.exe)
 Copying SCF densities to generalized density rwf, IOpCl= 0 IROHF=0.

 **********************************************************************

            Population analysis using the SCF density.

 **********************************************************************

 Orbital symmetries:
       Occupied  (A') (A') (A') (A') (A') (A') (A") (A') (A")
       Virtual   (A') (A') (A') (A') (A") (A') (A') (A') (A') (A")
                 (A') (A") (A') (A') (A') (A") (A') (A') (A") (A')
                 (A') (A") (A') (A') (A') (A') (A") (A') (A") (A')
                 (A') (A') (A') (A") (A') (A") (A') (A") (A') (A")
                 (A') (A') (A") (A') (A') (A") (A') (A") (A') (A')
                 (A') (A") (A') (A') (A") (A') (A") (A') (A") (A')
                 (A') (A") (A') (A') (A") (A') (A') (A") (A") (A')
                 (A') (A') (A") (A') (A") (A') (A') (A") (A') (A")
                 (A') (A') (A') (A') (A") (A') (A') (A") (A") (A')
                 (A') (A") (A') (A') (A') (A") (A') (A") (A') (A')
                 (A") (A") (A') (A') (A') (A') (A") (A') (A") (A')
                 (A') (A') (A') (A') (A") (A') (A") (A") (A') (A")
                 (A") (A") (A') (A') (A') (A") (A") (A') (A") (A')
                 (A') (A') (A") (A") (A') (A') (A') (A') (A') (A')
                 (A') (A') (A") (A") (A') (A') (A') (A") (A') (A')
                 (A") (A') (A") (A') (A") (A') (A") (A") (A") (A")
                 (A") (A') (A') (A') (A') (A") (A') (A') (A') (A')
                 (A') (A') (A') (A') (A') (A") (A') (A') (A") (A')
                 (A") (A') (A') (A') (A") (A') (A') (A')
 The electronic state is 1-A'.
 Alpha  occ. eigenvalues --  -19.31594 -19.31589  -1.22044  -1.01126  -0.63233
 Alpha  occ. eigenvalues --   -0.59285  -0.49890  -0.44376  -0.35040
 Alpha virt. eigenvalues --    0.03235   0.03672   0.06981   0.09268   0.09424
 Alpha virt. eigenvalues --    0.10703   0.11213   0.14029   0.16592   0.17564
 Alpha virt. eigenvalues --    0.18277   0.20144   0.21188   0.23096   0.27258
 Alpha virt. eigenvalues --    0.27309   0.29489   0.31293   0.31897   0.33556
 Alpha virt. eigenvalues --    0.37147   0.38134   0.38516   0.39447   0.41889
 Alpha virt. eigenvalues --    0.43276   0.44123   0.47307   0.49285   0.50041
 Alpha virt. eigenvalues --    0.54502   0.57841   0.60186   0.64915   0.66711
 Alpha virt. eigenvalues --    0.67907   0.71969   0.74429   0.74463   0.75035
 Alpha virt. eigenvalues --    0.77425   0.81810   0.82932   0.86813   0.89738
 Alpha virt. eigenvalues --    0.90741   0.91566   0.95070   0.96730   0.99104
 Alpha virt. eigenvalues --    1.00824   1.03274   1.05017   1.09233   1.14053
 Alpha virt. eigenvalues --    1.14636   1.14847   1.16907   1.17028   1.23947
 Alpha virt. eigenvalues --    1.25795   1.29836   1.32943   1.33144   1.34073
 Alpha virt. eigenvalues --    1.34349   1.35091   1.36897   1.37245   1.45610
 Alpha virt. eigenvalues --    1.48020   1.50717   1.51836   1.52693   1.56240
 Alpha virt. eigenvalues --    1.57170   1.64314   1.66302   1.72353   1.77269
 Alpha virt. eigenvalues --    1.79295   1.82659   1.88113   1.96026   1.98468
 Alpha virt. eigenvalues --    2.00382   2.05013   2.11253   2.13544   2.17005
 Alpha virt. eigenvalues --    2.23477   2.27350   2.27820   2.35835   2.40971
 Alpha virt. eigenvalues --    2.45897   2.53400   2.55204   2.55984   2.64684
 Alpha virt. eigenvalues --    2.65917   2.67666   2.70868   2.83366   2.92187
 Alpha virt. eigenvalues --    3.04868   3.06711   3.10156   3.26934   3.30995
 Alpha virt. eigenvalues --    3.38201   3.49062   3.61663   3.69205   3.77742
 Alpha virt. eigenvalues --    3.80401   3.80420   3.82572   3.83585   3.84311
 Alpha virt. eigenvalues --    3.87422   3.88941   3.90948   3.92917   3.94958
 Alpha virt. eigenvalues --    3.96513   4.06489   4.08078   4.10072   4.10520
 Alpha virt. eigenvalues --    4.11613   4.18508   4.20545   4.25803   4.32223
 Alpha virt. eigenvalues --    4.38862   4.43665   4.55702   4.72299   4.87020
 Alpha virt. eigenvalues --    5.00416   5.02114   5.04586   5.06488   5.35529
 Alpha virt. eigenvalues --    5.42376   5.81142   5.94988   6.06930   6.11849
 Alpha virt. eigenvalues --    6.27340   6.34551   6.42659   6.43969   6.68114
 Alpha virt. eigenvalues --    6.69990   6.71424   6.78319   6.84048   6.87589
 Alpha virt. eigenvalues --    6.90323   6.91866   6.92540   6.95474   6.99027
 Alpha virt. eigenvalues --    7.19546   7.23051   7.36865   7.59462   7.81932
 Alpha virt. eigenvalues --    8.10314   8.12801  10.91095  14.15425  14.56169
 Alpha virt. eigenvalues --   14.84472  14.89666  15.12466  29.04235  29.04876
 Alpha virt. eigenvalues --   29.09120  29.15226  29.24555  49.12399 148.32411
 Alpha virt. eigenvalues --  148.40141 148.73288 752.53989
          Condensed to atoms (all electrons):
              1          2          3          4          5
     1  O    8.200512  -0.156452   0.164552  -0.000942  -0.010012
     2  O   -0.156452   8.182572   0.005105   0.218298  -0.000266
     3  H    0.164552   0.005105   0.623705   0.005342   0.001823
     4  H   -0.000942   0.218298   0.005342   0.543292  -0.003417
     5  Kr  -0.010012  -0.000266   0.001823  -0.003417   0.001857
 Mulliken atomic charges:
              1
     1  O   -0.197659
     2  O   -0.249256
     3  H    0.199473
     4  H    0.237426
     5  Kr   0.010016
 Sum of Mulliken atomic charges =   0.00000
 Mulliken charges with hydrogens summed into heavy atoms:
              1
     1  O    0.001814
     2  O   -0.011830
     5  Kr   0.010016
 Sum of Mulliken charges with hydrogens summed into heavy atoms =   0.00000
          Condensed to fragments (all electrons):
     1      -0.010016
     2       0.010016
 Electronic spatial extent (au):  <R**2>=            324.6329
 Charge=              0.0000 electrons
 Dipole moment (field-independent basis, Debye):
    X=             -0.0005    Y=              0.0003    Z=              0.0000  Tot=              0.0006
 Quadrupole moment (field-independent basis, Debye-Ang):
   XX=            -10.5506   YY=             -8.5866   ZZ=            -13.1077
   XY=             -4.0542   XZ=              0.0000   YZ=              0.0000
 Traceless Quadrupole moment (field-independent basis, Debye-Ang):
   XX=              0.1977   YY=              2.1617   ZZ=             -2.3594
   XY=             -4.0542   XZ=              0.0000   YZ=              0.0000
 Octapole moment (field-independent basis, Debye-Ang**2):
  XXX=             -0.0039  YYY=             51.5177  ZZZ=              0.0000  XYY=             16.2208
  XXY=             21.1024  XXZ=              0.0000  XZZ=             -0.0018  YZZ=             26.2166
  YYZ=              0.0000  XYZ=              0.0000
 Hexadecapole moment (field-independent basis, Debye-Ang**3):
 XXXX=            -45.2216 YYYY=           -216.1338 ZZZZ=            -11.4424 XXXY=             -2.8550
 XXXZ=              0.0000 YYYX=            -50.1999 YYYZ=              0.0000 ZZZX=              0.0000
 ZZZY=              0.0000 XXYY=            -49.2662 XXZZ=            -11.4680 YYZZ=            -56.6479
 XXYZ=              0.0000 YYXZ=              0.0000 ZZXY=              0.7854
 N-N= 3.660042165621D+01 E-N=-4.317248575199D+02  KE= 1.506659959968D+02
 Symmetry A'   KE= 1.409486462782D+02
 Symmetry A"   KE= 9.717349718581D+00
 No NMR shielding tensors so no spin-rotation constants.
 Leave Link  601 at Sat May  9 23:34:41 2020, MaxMem= 1073741824 cpu:       0.9
 (Enter /home/matheus/.gaussian/g09/l122.exe)
 Counterpoise: doing DCBS calculation for fragment   2 NewBq=T
 Leave Link  122 at Sat May  9 23:34:41 2020, MaxMem= 1073741824 cpu:       0.0
 (Enter /home/matheus/.gaussian/g09/l301.exe)
 Basis read from rwf:  (5D, 7F)
 No pseudopotential information found on rwf file.
 There are   131 symmetry adapted basis functions of A'  symmetry.
 There are    66 symmetry adapted basis functions of A"  symmetry.
 Integral buffers will be    131072 words long.
 Raffenetti 2 integral format.
 Two-electron integral symmetry is turned on.
   197 basis functions,   415 primitive gaussians,   229 cartesian basis functions
    18 alpha electrons       18 beta electrons
       nuclear repulsion energy         0.0000000000 Hartrees.
 IExCor= 4639 DFT=T Ex+Corr=wB97XD ExCW=0 ScaHFX=  1.000000
 ScaDFX=  1.000000  1.000000  1.000000  1.000000 ScalE2=  1.000000  1.000000
 IRadAn=      5 IRanWt=     -1 IRanGd=            0 ICorTp=0
  HFx wShort=  0.000000 wLong=  0.200000 cFull=  0.222036 cShort=  0.000000 cLong=  0.777964
  DFx wShort=  0.000000 wLong=  0.200000 cFull=  0.000000 cShort=  0.000000 cLong=  1.000000
 NAtoms=    5 NActive=    5 NUniq=    5 SFac= 1.00D+00 NAtFMM=   60 NAOKFM=F Big=F
 R6Disp: Dispersion energy =         0.0000000000 Hartrees.
 Nuclear repulsion after empirical dispersion term =        0.0000000000 Hartrees.
 No density basis found on file   718.
 Leave Link  301 at Sat May  9 23:34:41 2020, MaxMem= 1073741824 cpu:       0.2
 (Enter /home/matheus/.gaussian/g09/l302.exe)
 NPDir=0 NMtPBC=     1 NCelOv=     1 NCel=       1 NClECP=     1 NCelD=      1
         NCelK=      1 NCelE2=     1 NClLst=     1 CellRange=     0.0.
 One-electron integrals computed using PRISM.
 NBasis=   197 RedAO= T  NBF=   131    66
 NBsUse=   197 1.00D-06 NBFU=   131    66
 Precomputing XC quadrature grid using
 IXCGrd= 2 IRadAn=           5 IRanWt=          -1 IRanGd=           0 AccXCQ= 0.00D+00.
 NRdTot=     427 NPtTot=      123814 NUsed=      126881 NTot=      126913
 NSgBfM=   229   229   229   229   229 NAtAll=     5     5.
 Leave Link  302 at Sat May  9 23:34:41 2020, MaxMem= 1073741824 cpu:       0.9
 (Enter /home/matheus/.gaussian/g09/l303.exe)
 DipDrv:  MaxL=1.
 Leave Link  303 at Sat May  9 23:34:41 2020, MaxMem= 1073741824 cpu:       0.2
 (Enter /home/matheus/.gaussian/g09/l401.exe)
 Harris functional with IExCor= 4639 diagonalized for initial guess.
 ExpMin= 2.53D-02 ExpMax= 1.17D+07 ExpMxC= 1.33D+04 IAcc=3 IRadAn=         5 AccDes= 0.00D+00
 HarFok:  IExCor= 4639 AccDes= 0.00D+00 IRadAn=         5 IDoV= 1
 ScaDFX=  1.000000  1.000000  1.000000  1.000000
 FoFCou: FMM=F IPFlag=           0 FMFlag=      100000 FMFlg1=           0
         NFxFlg=           0 DoJE=T BraDBF=F KetDBF=T FulRan=T
         Omega=  0.000000  0.000000  1.000000  0.000000  0.000000 ICntrl=     500 IOpCl=  0
         NMat0=    1 NMatS0=    1 NMatT0=    0 NMatD0=    1 NMtDS0=    0 NMtDT0=    0
         I1Cent=           4 NGrid=           0.
 Petite list used in FoFCou.
 Harris En= -2730.20436768721    
 Initial guess orbital symmetries:
       Occupied  (A') (A') (A') (A') (A") (A') (A') (A') (A") (A')
                 (A') (A") (A') (A") (A') (A') (A') (A")
       Virtual   (A') (A') (A') (A") (A') (A') (A') (A") (A') (A')
                 (A") (A') (A') (A") (A') (A") (A') (A') (A') (A')
                 (A") (A') (A") (A') (A') (A') (A') (A") (A') (A')
                 (A") (A') (A') (A") (A') (A') (A") (A') (A') (A")
                 (A') (A") (A") (A') (A') (A') (A") (A') (A') (A")
                 (A') (A') (A") (A") (A') (A") (A') (A') (A') (A")
                 (A') (A") (A') (A') (A") (A') (A') (A") (A') (A')
                 (A') (A') (A') (A") (A") (A') (A') (A') (A') (A")
                 (A') (A") (A') (A') (A") (A') (A") (A') (A') (A")
                 (A") (A') (A") (A') (A") (A') (A") (A') (A") (A')
                 (A") (A') (A') (A") (A') (A") (A') (A') (A') (A")
                 (A') (A") (A') (A') (A') (A') (A") (A") (A') (A')
                 (A') (A') (A') (A") (A') (A') (A") (A') (A') (A")
                 (A') (A") (A') (A") (A') (A') (A') (A") (A") (A')
                 (A') (A') (A') (A') (A') (A") (A') (A") (A') (A')
                 (A") (A") (A') (A") (A") (A') (A') (A') (A') (A')
                 (A') (A") (A") (A") (A') (A') (A") (A') (A') (A")
                 (A') (A") (A') (A') (A') (A') (A') (A') (A')
 The electronic state of the initial guess is 1-A'.
 Leave Link  401 at Sat May  9 23:34:41 2020, MaxMem= 1073741824 cpu:       2.5
 (Enter /home/matheus/.gaussian/g09/l502.exe)
 Closed shell SCF:
 Requested convergence on RMS density matrix=1.00D-08 within 128 cycles.
 Requested convergence on MAX density matrix=1.00D-06.
 Requested convergence on             energy=1.00D-06.
 No special actions if energy rises.
 Using DIIS extrapolation, IDIIS=  1040.
 Integral symmetry usage will be decided dynamically.
       126823 words used for storage of precomputed grid.
 IEnd=      305835 IEndB=      305835 NGot=  1073741824 MDV=  1073505300
 LenX=  1073505300 LenY=  1073452418
 Fock matrices will be formed incrementally for  20 cycles.

 Cycle   1  Pass 1  IDiag  1:
 FoFJK:  IHMeth= 1 ICntrl=     0 DoSepK=T KAlg= 1 I1Cent= 0 FoldK=F
 FoFCou: FMM=F IPFlag=           0 FMFlag=      100000 FMFlg1=           0
         NFxFlg=           0 DoJE=T BraDBF=F KetDBF=F FulRan=T
         Omega=  0.000000  0.000000  1.000000  0.000000  0.000000 ICntrl=     500 IOpCl=  0
         NMat0=    1 NMatS0=    1 NMatT0=    0 NMatD0=    1 NMtDS0=    0 NMtDT0=    0
         I1Cent=           0 NGrid=           0.
 Petite list used in FoFCou.
 E= -2753.46458250339    
 DIIS: error= 7.71D-02 at cycle   1 NSaved=   1.
 NSaved= 1 IEnMin= 1 EnMin= -2753.46458250339     IErMin= 1 ErrMin= 7.71D-02
 ErrMax= 7.71D-02 EMaxC= 1.00D-01 BMatC= 1.87D+00 BMatP= 1.87D+00
 IDIUse=3 WtCom= 2.29D-01 WtEn= 7.71D-01
 Coeff-Com:  0.100D+01
 Coeff-En:   0.100D+01
 Coeff:      0.100D+01
 Gap=     0.634 Goal=   None    Shift=    0.000
 GapD=    0.634 DampG=2.000 DampE=0.500 DampFc=1.0000 IDamp=-1.
 RMSDP=5.69D-03 MaxDP=3.68D-01              OVMax= 1.78D-01

 Cycle   2  Pass 1  IDiag  1:
 RMSU=  3.97D-03    CP:  1.04D+00
 FoFJK:  IHMeth= 1 ICntrl=     0 DoSepK=T KAlg= 1 I1Cent= 0 FoldK=F
 E= -2753.72409177411     Delta-E=       -0.259509270720 Rises=F Damp=F
 DIIS: error= 3.83D-02 at cycle   2 NSaved=   2.
 NSaved= 2 IEnMin= 2 EnMin= -2753.72409177411     IErMin= 2 ErrMin= 3.83D-02
 ErrMax= 3.83D-02 EMaxC= 1.00D-01 BMatC= 4.75D-01 BMatP= 1.87D+00
 IDIUse=3 WtCom= 6.17D-01 WtEn= 3.83D-01
 Coeff-Com:  0.330D+00 0.670D+00
 Coeff-En:   0.183D+00 0.817D+00
 Coeff:      0.274D+00 0.726D+00
 Gap=     0.470 Goal=   None    Shift=    0.000
 RMSDP=2.58D-03 MaxDP=1.62D-01 DE=-2.60D-01 OVMax= 8.01D-02

 Cycle   3  Pass 1  IDiag  1:
 RMSU=  3.83D-04    CP:  1.03D+00  5.56D-01
 FoFJK:  IHMeth= 1 ICntrl=     0 DoSepK=T KAlg= 1 I1Cent= 0 FoldK=F
 E= -2753.87040214155     Delta-E=       -0.146310367444 Rises=F Damp=F
 DIIS: error= 5.82D-03 at cycle   3 NSaved=   3.
 NSaved= 3 IEnMin= 3 EnMin= -2753.87040214155     IErMin= 3 ErrMin= 5.82D-03
 ErrMax= 5.82D-03 EMaxC= 1.00D-01 BMatC= 1.24D-02 BMatP= 4.75D-01
 IDIUse=3 WtCom= 9.42D-01 WtEn= 5.82D-02
 Coeff-Com: -0.590D-02 0.130D+00 0.876D+00
 Coeff-En:   0.000D+00 0.000D+00 0.100D+01
 Coeff:     -0.555D-02 0.123D+00 0.883D+00
 Gap=     0.500 Goal=   None    Shift=    0.000
 RMSDP=3.35D-04 MaxDP=1.90D-02 DE=-1.46D-01 OVMax= 1.37D-02

 Cycle   4  Pass 1  IDiag  1:
 RMSU=  4.64D-05    CP:  1.03D+00  6.13D-01  9.32D-01
 FoFJK:  IHMeth= 1 ICntrl=     0 DoSepK=T KAlg= 1 I1Cent= 0 FoldK=F
 E= -2753.87434213671     Delta-E=       -0.003939995161 Rises=F Damp=F
 DIIS: error= 3.17D-04 at cycle   4 NSaved=   4.
 NSaved= 4 IEnMin= 4 EnMin= -2753.87434213671     IErMin= 4 ErrMin= 3.17D-04
 ErrMax= 3.17D-04 EMaxC= 1.00D-01 BMatC= 3.03D-05 BMatP= 1.24D-02
 IDIUse=3 WtCom= 9.97D-01 WtEn= 3.17D-03
 Coeff-Com: -0.788D-03-0.160D-01-0.391D-01 0.106D+01
 Coeff-En:   0.000D+00 0.000D+00 0.000D+00 0.100D+01
 Coeff:     -0.786D-03-0.159D-01-0.390D-01 0.106D+01
 Gap=     0.498 Goal=   None    Shift=    0.000
 RMSDP=2.57D-05 MaxDP=9.41D-04 DE=-3.94D-03 OVMax= 8.51D-04

 Cycle   5  Pass 1  IDiag  1:
 RMSU=  1.16D-05    CP:  1.03D+00  6.10D-01  9.53D-01  1.12D+00
 FoFJK:  IHMeth= 1 ICntrl=     0 DoSepK=T KAlg= 1 I1Cent= 0 FoldK=F
 E= -2753.87435517696     Delta-E=       -0.000013040245 Rises=F Damp=F
 DIIS: error= 1.53D-05 at cycle   5 NSaved=   5.
 NSaved= 5 IEnMin= 5 EnMin= -2753.87435517696     IErMin= 5 ErrMin= 1.53D-05
 ErrMax= 1.53D-05 EMaxC= 1.00D-01 BMatC= 3.72D-08 BMatP= 3.03D-05
 IDIUse=1 WtCom= 1.00D+00 WtEn= 0.00D+00
 Coeff-Com:  0.122D-03-0.710D-03-0.821D-02-0.403D-01 0.105D+01
 Coeff:      0.122D-03-0.710D-03-0.821D-02-0.403D-01 0.105D+01
 Gap=     0.498 Goal=   None    Shift=    0.000
 RMSDP=2.64D-06 MaxDP=1.16D-04 DE=-1.30D-05 OVMax= 1.89D-04

 Cycle   6  Pass 1  IDiag  1:
 RMSU=  9.58D-07    CP:  1.03D+00  6.10D-01  9.54D-01  1.14D+00  1.09D+00
 FoFJK:  IHMeth= 1 ICntrl=     0 DoSepK=T KAlg= 1 I1Cent= 0 FoldK=F
 E= -2753.87435529962     Delta-E=       -0.000000122658 Rises=F Damp=F
 DIIS: error= 4.58D-06 at cycle   6 NSaved=   6.
 NSaved= 6 IEnMin= 6 EnMin= -2753.87435529962     IErMin= 6 ErrMin= 4.58D-06
 ErrMax= 4.58D-06 EMaxC= 1.00D-01 BMatC= 4.15D-09 BMatP= 3.72D-08
 IDIUse=1 WtCom= 1.00D+00 WtEn= 0.00D+00
 Coeff-Com:  0.641D-05 0.239D-03 0.186D-04-0.370D-01 0.602D-01 0.976D+00
 Coeff:      0.641D-05 0.239D-03 0.186D-04-0.370D-01 0.602D-01 0.976D+00
 Gap=     0.498 Goal=   None    Shift=    0.000
 RMSDP=6.11D-07 MaxDP=2.65D-05 DE=-1.23D-07 OVMax= 2.74D-05

 Cycle   7  Pass 1  IDiag  1:
 RMSU=  9.98D-08    CP:  1.03D+00  6.10D-01  9.54D-01  1.14D+00  1.11D+00
                    CP:  1.19D+00
 FoFJK:  IHMeth= 1 ICntrl=     0 DoSepK=T KAlg= 1 I1Cent= 0 FoldK=F
 E= -2753.87435530394     Delta-E=       -0.000000004328 Rises=F Damp=F
 DIIS: error= 2.86D-07 at cycle   7 NSaved=   7.
 NSaved= 7 IEnMin= 7 EnMin= -2753.87435530394     IErMin= 7 ErrMin= 2.86D-07
 ErrMax= 2.86D-07 EMaxC= 1.00D-01 BMatC= 3.23D-11 BMatP= 4.15D-09
 IDIUse=1 WtCom= 1.00D+00 WtEn= 0.00D+00
 Coeff-Com:  0.354D-06 0.693D-04 0.116D-03-0.813D-02 0.475D-02 0.210D+00
 Coeff-Com:  0.793D+00
 Coeff:      0.354D-06 0.693D-04 0.116D-03-0.813D-02 0.475D-02 0.210D+00
 Coeff:      0.793D+00
 Gap=     0.498 Goal=   None    Shift=    0.000
 RMSDP=4.73D-08 MaxDP=1.49D-06 DE=-4.33D-09 OVMax= 2.49D-06

 Cycle   8  Pass 1  IDiag  1:
 RMSU=  1.77D-08    CP:  1.03D+00  6.10D-01  9.54D-01  1.14D+00  1.11D+00
                    CP:  1.22D+00  1.06D+00
 FoFJK:  IHMeth= 1 ICntrl=     0 DoSepK=T KAlg= 1 I1Cent= 0 FoldK=F
 E= -2753.87435530397     Delta-E=       -0.000000000030 Rises=F Damp=F
 DIIS: error= 8.08D-08 at cycle   8 NSaved=   8.
 NSaved= 8 IEnMin= 8 EnMin= -2753.87435530397     IErMin= 8 ErrMin= 8.08D-08
 ErrMax= 8.08D-08 EMaxC= 1.00D-01 BMatC= 1.73D-12 BMatP= 3.23D-11
 IDIUse=1 WtCom= 1.00D+00 WtEn= 0.00D+00
 Coeff-Com: -0.137D-06-0.415D-05 0.267D-04 0.155D-02-0.297D-02-0.427D-01
 Coeff-Com:  0.689D-01 0.975D+00
 Coeff:     -0.137D-06-0.415D-05 0.267D-04 0.155D-02-0.297D-02-0.427D-01
 Coeff:      0.689D-01 0.975D+00
 Gap=     0.498 Goal=   None    Shift=    0.000
 RMSDP=2.14D-08 MaxDP=8.69D-07 DE=-3.00D-11 OVMax= 5.44D-07

 Cycle   9  Pass 1  IDiag  1:
 RMSU=  3.58D-09    CP:  1.03D+00  6.10D-01  9.54D-01  1.14D+00  1.11D+00
                    CP:  1.23D+00  1.12D+00  1.11D+00
 FoFJK:  IHMeth= 1 ICntrl=     0 DoSepK=T KAlg= 1 I1Cent= 0 FoldK=F
 E= -2753.87435530397     Delta-E=        0.000000000001 Rises=F Damp=F
 DIIS: error= 7.42D-09 at cycle   9 NSaved=   9.
 NSaved= 9 IEnMin= 8 EnMin= -2753.87435530397     IErMin= 9 ErrMin= 7.42D-09
 ErrMax= 7.42D-09 EMaxC= 1.00D-01 BMatC= 7.09D-15 BMatP= 1.73D-12
 IDIUse=1 WtCom= 1.00D+00 WtEn= 0.00D+00
 Coeff-Com:  0.111D-07 0.194D-06-0.254D-05-0.135D-03 0.102D-03 0.468D-02
 Coeff-Com: -0.147D-01-0.140D+00 0.115D+01
 Coeff:      0.111D-07 0.194D-06-0.254D-05-0.135D-03 0.102D-03 0.468D-02
 Coeff:     -0.147D-01-0.140D+00 0.115D+01
 Gap=     0.498 Goal=   None    Shift=    0.000
 RMSDP=2.00D-09 MaxDP=7.79D-08 DE= 9.09D-13 OVMax= 9.73D-08

 SCF Done:  E(RwB97XD) =  -2753.87435530     A.U. after    9 cycles
             Convg  =    0.2004D-08             -V/T =  2.0013
 KE= 2.750260031358D+03 PE=-6.580198441773D+03 EE= 1.076064055111D+03
 Leave Link  502 at Sat May  9 23:35:08 2020, MaxMem= 1073741824 cpu:     216.2
 (Enter /home/matheus/.gaussian/g09/l601.exe)
 Copying SCF densities to generalized density rwf, IOpCl= 0 IROHF=0.

 **********************************************************************

            Population analysis using the SCF density.

 **********************************************************************

 Orbital symmetries:
       Occupied  (A') (A') (A') (A') (A") (A') (A') (A') (A") (A')
                 (A') (A") (A") (A') (A') (A') (A') (A")
       Virtual   (A') (A') (A') (A") (A') (A') (A') (A") (A') (A')
                 (A") (A') (A') (A") (A') (A") (A') (A') (A') (A')
                 (A") (A') (A') (A") (A') (A') (A') (A") (A') (A')
                 (A") (A') (A') (A") (A') (A') (A") (A') (A') (A")
                 (A') (A") (A") (A') (A') (A') (A") (A') (A') (A")
                 (A') (A') (A") (A") (A') (A") (A') (A') (A") (A')
                 (A') (A") (A') (A') (A") (A') (A') (A') (A') (A")
                 (A') (A') (A') (A") (A") (A') (A') (A') (A') (A")
                 (A') (A") (A') (A") (A') (A") (A') (A') (A') (A")
                 (A") (A') (A") (A') (A") (A') (A") (A') (A") (A')
                 (A") (A') (A") (A') (A') (A") (A') (A') (A') (A")
                 (A') (A") (A') (A') (A') (A') (A") (A") (A') (A')
                 (A') (A') (A') (A") (A') (A') (A") (A') (A') (A")
                 (A') (A') (A") (A") (A') (A') (A') (A") (A") (A')
                 (A') (A') (A') (A') (A') (A") (A') (A") (A') (A')
                 (A") (A") (A') (A") (A") (A') (A') (A') (A') (A')
                 (A') (A") (A") (A") (A') (A') (A") (A') (A') (A")
                 (A') (A") (A') (A') (A') (A') (A') (A') (A')
 The electronic state is 1-A'.
 Alpha  occ. eigenvalues -- -513.05923 -67.32596 -60.87472 -60.87471 -60.87471
 Alpha  occ. eigenvalues --   -9.77891  -7.47187  -7.47186  -7.47186  -3.33929
 Alpha  occ. eigenvalues --   -3.33928  -3.33928  -3.33927  -3.33927  -0.98489
 Alpha  occ. eigenvalues --   -0.46647  -0.46643  -0.46642
 Alpha virt. eigenvalues --    0.03131   0.05118   0.08625   0.10397   0.11128
 Alpha virt. eigenvalues --    0.12555   0.13286   0.14857   0.16668   0.17246
 Alpha virt. eigenvalues --    0.18177   0.19617   0.20993   0.25649   0.26319
 Alpha virt. eigenvalues --    0.27330   0.27581   0.31720   0.33893   0.35064
 Alpha virt. eigenvalues --    0.35473   0.36920   0.38055   0.38671   0.41310
 Alpha virt. eigenvalues --    0.43181   0.43371   0.51802   0.54188   0.56518
 Alpha virt. eigenvalues --    0.62867   0.63898   0.67350   0.68277   0.70642
 Alpha virt. eigenvalues --    0.73616   0.74424   0.74633   0.76150   0.76274
 Alpha virt. eigenvalues --    0.80418   0.81362   0.83002   0.83891   0.84484
 Alpha virt. eigenvalues --    0.86375   0.88018   0.88877   0.91185   0.93737
 Alpha virt. eigenvalues --    0.97020   0.99050   0.99872   1.01479   1.03050
 Alpha virt. eigenvalues --    1.05409   1.05453   1.07527   1.12239   1.12409
 Alpha virt. eigenvalues --    1.15959   1.16615   1.18306   1.25425   1.28817
 Alpha virt. eigenvalues --    1.31733   1.34332   1.41999   1.42399   1.43043
 Alpha virt. eigenvalues --    1.56269   1.59092   1.72484   1.74335   1.77894
 Alpha virt. eigenvalues --    1.82888   1.85682   1.87037   1.88467   2.14063
 Alpha virt. eigenvalues --    2.18841   2.25033   2.26302   2.29075   2.29141
 Alpha virt. eigenvalues --    2.32027   2.32449   2.36533   2.39573   2.39768
 Alpha virt. eigenvalues --    2.42115   2.43945   2.46647   2.46738   2.49327
 Alpha virt. eigenvalues --    2.52000   2.53305   2.54173   2.56471   2.58666
 Alpha virt. eigenvalues --    2.60726   2.61552   2.62823   2.63549   2.66983
 Alpha virt. eigenvalues --    2.67849   2.69630   2.75519   2.78715   2.88099
 Alpha virt. eigenvalues --    2.89113   3.02767   3.05204   3.11652   3.15790
 Alpha virt. eigenvalues --    3.25460   3.26190   3.28932   3.34939   3.52997
 Alpha virt. eigenvalues --    3.60097   3.64715   3.85863   3.88025   4.03945
 Alpha virt. eigenvalues --    4.33434   4.43248   4.56898   4.57816   4.62868
 Alpha virt. eigenvalues --    4.74164   4.91901   4.92490   4.93301   5.02748
 Alpha virt. eigenvalues --    5.11905   5.14971   5.60146   5.66866   5.84595
 Alpha virt. eigenvalues --    5.87275   5.95701   6.23242   6.84956   6.96318
 Alpha virt. eigenvalues --    7.26330   7.43381   7.60645   7.66426   7.76280
 Alpha virt. eigenvalues --    7.78564   8.10375   8.10495   8.17172   8.26611
 Alpha virt. eigenvalues --    8.33695   8.38358   8.69892   8.90599   9.65265
 Alpha virt. eigenvalues --    9.71654   9.77454   9.83630   9.96206  10.07066
 Alpha virt. eigenvalues --   10.19103  10.20359  10.50500  10.93956  11.42430
 Alpha virt. eigenvalues --   11.57028  11.62152  12.03774  12.15124  13.22235
 Alpha virt. eigenvalues --   13.70577  14.53801  62.96921  64.52620
          Condensed to atoms (all electrons):
              1          2          3          4          5
     1  O    0.003922  -0.003368  -0.001928   0.001723  -0.009738
     2  O   -0.003368   0.007731   0.001385  -0.004791  -0.005265
     3  H   -0.001928   0.001385   0.001173  -0.000598   0.000891
     4  H    0.001723  -0.004791  -0.000598   0.004548  -0.021167
     5  Kr  -0.009738  -0.005265   0.000891  -0.021167  36.068337
 Mulliken atomic charges:
              1
     1  O    0.009389
     2  O    0.004308
     3  H   -0.000923
     4  H    0.020284
     5  Kr  -0.033057
 Sum of Mulliken atomic charges =   0.00000
 Mulliken charges with hydrogens summed into heavy atoms:
              1
     1  O    0.008465
     2  O    0.024592
     5  Kr  -0.033057
 Sum of Mulliken charges with hydrogens summed into heavy atoms =   0.00000
          Condensed to fragments (all electrons):
     1       0.033057
     2      -0.033057
 Electronic spatial extent (au):  <R**2>=            167.8999
 Charge=              0.0000 electrons
 Dipole moment (field-independent basis, Debye):
    X=             -0.0006    Y=             -0.0005    Z=              0.0000  Tot=              0.0008
 Quadrupole moment (field-independent basis, Debye-Ang):
   XX=            -17.6407   YY=            -17.6281   ZZ=            -17.6470
   XY=              0.0050   XZ=              0.0000   YZ=              0.0000
 Traceless Quadrupole moment (field-independent basis, Debye-Ang):
   XX=             -0.0021   YY=              0.0105   ZZ=             -0.0084
   XY=              0.0050   XZ=              0.0000   YZ=              0.0000
 Octapole moment (field-independent basis, Debye-Ang**2):
  XXX=             -0.0027  YYY=            -52.8827  ZZZ=              0.0000  XYY=              0.0111
  XXY=            -17.6408  XXZ=              0.0000  XZZ=             -0.0010  YZZ=            -17.6443
  YYZ=              0.0000  XYZ=              0.0000
 Hexadecapole moment (field-independent basis, Debye-Ang**3):
 XXXX=            -18.4342 YYYY=           -124.1844 ZZZZ=            -18.4471 XXXY=              0.0163
 XXXZ=              0.0000 YYYX=              0.0264 YYYZ=              0.0000 ZZZX=              0.0000
 ZZZY=              0.0000 XXYY=            -23.7800 XXZZ=             -6.1426 YYZZ=            -23.7844
 XXYZ=              0.0000 YYXZ=              0.0000 ZZXY=              0.0067
 N-N= 0.000000000000D+00 E-N=-6.580198442526D+03  KE= 2.750260031358D+03
 Symmetry A'   KE= 2.344208186319D+03
 Symmetry A"   KE= 4.060518450387D+02
 No NMR shielding tensors so no spin-rotation constants.
 Leave Link  601 at Sat May  9 23:35:08 2020, MaxMem= 1073741824 cpu:       0.9
 (Enter /home/matheus/.gaussian/g09/l122.exe)
 Counterpoise: doing MCBS calculation for fragment   1
 Leave Link  122 at Sat May  9 23:35:08 2020, MaxMem= 1073741824 cpu:       0.0
 (Enter /home/matheus/.gaussian/g09/l301.exe)
 Basis read from rwf:  (5D, 7F)
 No pseudopotential information found on rwf file.
 There are    92 symmetry adapted basis functions of A'  symmetry.
 There are    46 symmetry adapted basis functions of A"  symmetry.
 Integral buffers will be    131072 words long.
 Raffenetti 2 integral format.
 Two-electron integral symmetry is turned on.
   138 basis functions,   198 primitive gaussians,   160 cartesian basis functions
     9 alpha electrons        9 beta electrons
       nuclear repulsion energy        36.6006188945 Hartrees.
 IExCor= 4639 DFT=T Ex+Corr=wB97XD ExCW=0 ScaHFX=  1.000000
 ScaDFX=  1.000000  1.000000  1.000000  1.000000 ScalE2=  1.000000  1.000000
 IRadAn=      5 IRanWt=     -1 IRanGd=            0 ICorTp=0
  HFx wShort=  0.000000 wLong=  0.200000 cFull=  0.222036 cShort=  0.000000 cLong=  0.777964
  DFx wShort=  0.000000 wLong=  0.200000 cFull=  0.000000 cShort=  0.000000 cLong=  1.000000
 NAtoms=    5 NActive=    4 NUniq=    4 SFac= 1.00D+00 NAtFMM=   60 NAOKFM=F Big=F
 R6Disp: Dispersion energy =        -0.0001972383 Hartrees.
 Nuclear repulsion after empirical dispersion term =       36.6004216562 Hartrees.
 No density basis found on file   718.
 Leave Link  301 at Sat May  9 23:35:08 2020, MaxMem= 1073741824 cpu:       0.2
 (Enter /home/matheus/.gaussian/g09/l302.exe)
 NPDir=0 NMtPBC=     1 NCelOv=     1 NCel=       1 NClECP=     1 NCelD=      1
         NCelK=      1 NCelE2=     1 NClLst=     1 CellRange=     0.0.
 One-electron integrals computed using PRISM.
 NBasis=   138 RedAO= T  NBF=    92    46
 NBsUse=   138 1.00D-06 NBFU=    92    46
 Precomputing XC quadrature grid using
 IXCGrd= 2 IRadAn=           5 IRanWt=          -1 IRanGd=           0 AccXCQ= 0.00D+00.
 NRdTot=     344 NPtTot=       92556 NUsed=       95038 NTot=       95070
 NSgBfM=   160   160   160   160   160 NAtAll=     4     4.
 Leave Link  302 at Sat May  9 23:35:09 2020, MaxMem= 1073741824 cpu:       0.8
 (Enter /home/matheus/.gaussian/g09/l303.exe)
 DipDrv:  MaxL=1.
 Leave Link  303 at Sat May  9 23:35:09 2020, MaxMem= 1073741824 cpu:       0.1
 (Enter /home/matheus/.gaussian/g09/l401.exe)
 Harris functional with IExCor= 4639 diagonalized for initial guess.
 ExpMin= 2.53D-02 ExpMax= 1.53D+04 ExpMxC= 5.22D+02 IAcc=3 IRadAn=         5 AccDes= 0.00D+00
 HarFok:  IExCor= 4639 AccDes= 0.00D+00 IRadAn=         5 IDoV= 1
 ScaDFX=  1.000000  1.000000  1.000000  1.000000
 FoFCou: FMM=F IPFlag=           0 FMFlag=      100000 FMFlg1=           0
         NFxFlg=           0 DoJE=T BraDBF=F KetDBF=T FulRan=T
         Omega=  0.000000  0.000000  1.000000  0.000000  0.000000 ICntrl=     500 IOpCl=  0
         NMat0=    1 NMatS0=    1 NMatT0=    0 NMatD0=    1 NMtDS0=    0 NMtDT0=    0
         I1Cent=           4 NGrid=           0.
 Petite list used in FoFCou.
 Harris En= -146.291080772022    
 Initial guess orbital symmetries:
       Occupied  (A') (A') (A') (A') (A') (A') (A") (A') (A")
       Virtual   (A') (A') (A') (A') (A') (A") (A') (A') (A") (A')
                 (A") (A') (A') (A') (A") (A') (A') (A') (A') (A')
                 (A') (A") (A") (A') (A') (A") (A") (A') (A') (A")
                 (A') (A') (A") (A') (A') (A") (A") (A') (A') (A')
                 (A') (A") (A') (A") (A') (A') (A') (A") (A") (A')
                 (A') (A') (A") (A') (A') (A") (A') (A') (A") (A")
                 (A') (A') (A") (A') (A') (A') (A") (A') (A') (A")
                 (A") (A') (A") (A') (A') (A') (A') (A') (A") (A')
                 (A') (A") (A") (A') (A") (A") (A') (A") (A') (A")
                 (A') (A') (A') (A') (A') (A') (A') (A") (A") (A')
                 (A') (A') (A") (A') (A') (A") (A') (A") (A') (A')
                 (A") (A") (A") (A") (A") (A') (A") (A') (A') (A')
                 (A") (A') (A') (A') (A') (A') (A') (A') (A')
 The electronic state of the initial guess is 1-A'.
 Leave Link  401 at Sat May  9 23:35:09 2020, MaxMem= 1073741824 cpu:       1.6
 (Enter /home/matheus/.gaussian/g09/l502.exe)
 Closed shell SCF:
 Requested convergence on RMS density matrix=1.00D-08 within 128 cycles.
 Requested convergence on MAX density matrix=1.00D-06.
 Requested convergence on             energy=1.00D-06.
 No special actions if energy rises.
 Using DIIS extrapolation, IDIIS=  1040.
 Integral symmetry usage will be decided dynamically.
        94980 words used for storage of precomputed grid.
 IEnd=      192406 IEndB=      192406 NGot=  1073741824 MDV=  1073591819
 LenX=  1073591819 LenY=  1073565778
 Fock matrices will be formed incrementally for  20 cycles.

 Cycle   1  Pass 1  IDiag  1:
 FoFJK:  IHMeth= 1 ICntrl=     0 DoSepK=T KAlg= 1 I1Cent= 0 FoldK=F
 FoFCou: FMM=F IPFlag=           0 FMFlag=      100000 FMFlg1=           0
         NFxFlg=           0 DoJE=T BraDBF=F KetDBF=F FulRan=T
         Omega=  0.000000  0.000000  1.000000  0.000000  0.000000 ICntrl=     500 IOpCl=  0
         NMat0=    1 NMatS0=    1 NMatT0=    0 NMatD0=    1 NMtDS0=    0 NMtDT0=    0
         I1Cent=           0 NGrid=           0.
 Petite list used in FoFCou.
 E= -151.476735995353    
 DIIS: error= 5.21D-02 at cycle   1 NSaved=   1.
 NSaved= 1 IEnMin= 1 EnMin= -151.476735995353     IErMin= 1 ErrMin= 5.21D-02
 ErrMax= 5.21D-02 EMaxC= 1.00D-01 BMatC= 2.98D-01 BMatP= 2.98D-01
 IDIUse=3 WtCom= 4.79D-01 WtEn= 5.21D-01
 Coeff-Com:  0.100D+01
 Coeff-En:   0.100D+01
 Coeff:      0.100D+01
 Gap=     0.497 Goal=   None    Shift=    0.000
 GapD=    0.497 DampG=2.000 DampE=0.500 DampFc=1.0000 IDamp=-1.
 RMSDP=3.23D-03 MaxDP=9.88D-02              OVMax= 1.09D-01

 Cycle   2  Pass 1  IDiag  1:
[...]
 FoFCou: FMM=F IPFlag=           0 FMFlag=      100000 FMFlg1=           0
         NFxFlg=           0 DoJE=T BraDBF=F KetDBF=T FulRan=T
         Omega=  0.000000  0.000000  1.000000  0.000000  0.000000 ICntrl=     500 IOpCl=  0
         NMat0=    1 NMatS0=    1 NMatT0=    0 NMatD0=    1 NMtDS0=    0 NMtDT0=    0
         I1Cent=           4 NGrid=           0.
 Petite list used in FoFCou.
 Harris En= -2730.20262349092    
 Leave Link  401 at Sat May  9 23:56:02 2020, MaxMem= 1073741824 cpu:       2.8
 (Enter /home/matheus/.gaussian/g09/l502.exe)
 Closed shell SCF:
 Requested convergence on RMS density matrix=1.00D-08 within 128 cycles.
 Requested convergence on MAX density matrix=1.00D-06.
 Requested convergence on             energy=1.00D-06.
 No special actions if energy rises.
 Using DIIS extrapolation, IDIIS=  1040.
 Integral symmetry usage will be decided dynamically.
       127132 words used for storage of precomputed grid.
 IEnd=      306144 IEndB=      306144 NGot=  1073741824 MDV=  1073504991
 LenX=  1073504991 LenY=  1073452109
 Fock matrices will be formed incrementally for  20 cycles.

 Cycle   1  Pass 1  IDiag  1:
 FoFJK:  IHMeth= 1 ICntrl=     0 DoSepK=T KAlg= 1 I1Cent= 0 FoldK=F
 FoFCou: FMM=F IPFlag=           0 FMFlag=      100000 FMFlg1=           0
         NFxFlg=           0 DoJE=T BraDBF=F KetDBF=F FulRan=T
         Omega=  0.000000  0.000000  1.000000  0.000000  0.000000 ICntrl=     500 IOpCl=  0
         NMat0=    1 NMatS0=    1 NMatT0=    0 NMatD0=    1 NMtDS0=    0 NMtDT0=    0
         I1Cent=           0 NGrid=           0.
 Petite list used in FoFCou.
 E= -2753.87423824978    
 DIIS: error= 1.72D-04 at cycle   1 NSaved=   1.
 NSaved= 1 IEnMin= 1 EnMin= -2753.87423824978     IErMin= 1 ErrMin= 1.72D-04
 ErrMax= 1.72D-04 EMaxC= 1.00D-01 BMatC= 3.98D-06 BMatP= 3.98D-06
 IDIUse=3 WtCom= 9.98D-01 WtEn= 1.72D-03
 Coeff-Com:  0.100D+01
 Coeff-En:   0.100D+01
 Coeff:      0.100D+01
 Gap=     0.496 Goal=   None    Shift=    0.000
 RMSDP=2.25D-05 MaxDP=9.48D-04              OVMax= 3.52D-04

 Cycle   2  Pass 1  IDiag  1:
 RMSU=  1.59D-05    CP:  1.00D+00
 FoFJK:  IHMeth= 1 ICntrl=     0 DoSepK=T KAlg= 1 I1Cent= 0 FoldK=F
 E= -2753.87423883805     Delta-E=       -0.000000588274 Rises=F Damp=F
 DIIS: error= 3.60D-06 at cycle   2 NSaved=   2.
 NSaved= 2 IEnMin= 2 EnMin= -2753.87423883805     IErMin= 2 ErrMin= 3.60D-06
 ErrMax= 3.60D-06 EMaxC= 1.00D-01 BMatC= 4.15D-09 BMatP= 3.98D-06
 IDIUse=1 WtCom= 1.00D+00 WtEn= 0.00D+00
 Coeff-Com: -0.980D-02 0.101D+01
 Coeff:     -0.980D-02 0.101D+01
 Gap=     0.496 Goal=   None    Shift=    0.000
 RMSDP=1.81D-06 MaxDP=7.03D-05 DE=-5.88D-07 OVMax= 5.22D-05

 Cycle   3  Pass 1  IDiag  1:
 RMSU=  6.01D-07    CP:  1.00D+00  1.07D+00
 FoFJK:  IHMeth= 1 ICntrl=     0 DoSepK=T KAlg= 1 I1Cent= 0 FoldK=F
 E= -2753.87423884577     Delta-E=       -0.000000007713 Rises=F Damp=F
 DIIS: error= 7.02D-07 at cycle   3 NSaved=   3.
 NSaved= 3 IEnMin= 3 EnMin= -2753.87423884577     IErMin= 3 ErrMin= 7.02D-07
 ErrMax= 7.02D-07 EMaxC= 1.00D-01 BMatC= 1.13D-10 BMatP= 4.15D-09
 IDIUse=1 WtCom= 1.00D+00 WtEn= 0.00D+00
 Coeff-Com:  0.193D-04-0.981D-01 0.110D+01
 Coeff:      0.193D-04-0.981D-01 0.110D+01
 Gap=     0.496 Goal=   None    Shift=    0.000
 RMSDP=2.19D-07 MaxDP=8.40D-06 DE=-7.71D-09 OVMax= 1.02D-05

 Cycle   4  Pass 1  IDiag  1:
 RMSU=  6.13D-08    CP:  1.00D+00  1.07D+00  1.21D+00
 FoFJK:  IHMeth= 1 ICntrl=     0 DoSepK=T KAlg= 1 I1Cent= 0 FoldK=F
 E= -2753.87423884598     Delta-E=       -0.000000000216 Rises=F Damp=F
 DIIS: error= 5.46D-07 at cycle   4 NSaved=   4.
 NSaved= 4 IEnMin= 4 EnMin= -2753.87423884598     IErMin= 4 ErrMin= 5.46D-07
 ErrMax= 5.46D-07 EMaxC= 1.00D-01 BMatC= 1.71D-11 BMatP= 1.13D-10
 IDIUse=1 WtCom= 1.00D+00 WtEn= 0.00D+00
 Coeff-Com:  0.210D-03-0.513D-01 0.328D+00 0.723D+00
 Coeff:      0.210D-03-0.513D-01 0.328D+00 0.723D+00
 Gap=     0.496 Goal=   None    Shift=    0.000
 RMSDP=2.62D-08 MaxDP=1.23D-06 DE=-2.16D-10 OVMax= 1.45D-06

 Cycle   5  Pass 1  IDiag  1:
 RMSU=  1.12D-08    CP:  1.00D+00  1.07D+00  1.24D+00  1.09D+00
 FoFJK:  IHMeth= 1 ICntrl=     0 DoSepK=T KAlg= 1 I1Cent= 0 FoldK=F
 E= -2753.87423884600     Delta-E=       -0.000000000020 Rises=F Damp=F
 DIIS: error= 2.23D-08 at cycle   5 NSaved=   5.
 NSaved= 5 IEnMin= 5 EnMin= -2753.87423884600     IErMin= 5 ErrMin= 2.23D-08
 ErrMax= 2.23D-08 EMaxC= 1.00D-01 BMatC= 1.38D-13 BMatP= 1.71D-11
 IDIUse=1 WtCom= 1.00D+00 WtEn= 0.00D+00
 Coeff-Com: -0.106D-04 0.546D-02-0.483D-01-0.381D-01 0.108D+01
 Coeff:     -0.106D-04 0.546D-02-0.483D-01-0.381D-01 0.108D+01
 Gap=     0.496 Goal=   None    Shift=    0.000
 RMSDP=1.14D-08 MaxDP=7.04D-07 DE=-2.00D-11 OVMax= 3.75D-07

 Cycle   6  Pass 1  IDiag  1:
 RMSU=  1.42D-09    CP:  1.00D+00  1.07D+00  1.24D+00  1.17D+00  1.17D+00
 FoFJK:  IHMeth= 1 ICntrl=     0 DoSepK=T KAlg= 1 I1Cent= 0 FoldK=F
 E= -2753.87423884601     Delta-E=       -0.000000000007 Rises=F Damp=F
 DIIS: error= 9.58D-09 at cycle   6 NSaved=   6.
 NSaved= 6 IEnMin= 6 EnMin= -2753.87423884601     IErMin= 6 ErrMin= 9.58D-09
 ErrMax= 9.58D-09 EMaxC= 1.00D-01 BMatC= 1.48D-14 BMatP= 1.38D-13
 IDIUse=1 WtCom= 1.00D+00 WtEn= 0.00D+00
 Coeff-Com: -0.109D-04 0.332D-02-0.249D-01-0.340D-01 0.291D+00 0.764D+00
 Coeff:     -0.109D-04 0.332D-02-0.249D-01-0.340D-01 0.291D+00 0.764D+00
 Gap=     0.496 Goal=   None    Shift=    0.000
 RMSDP=9.59D-10 MaxDP=5.32D-08 DE=-7.28D-12 OVMax= 5.13D-08

 SCF Done:  E(RwB97XD) =  -2753.87423885     A.U. after    6 cycles
             Convg  =    0.9593D-09             -V/T =  2.0013
 KE= 2.750294568666D+03 PE=-6.580235199974D+03 EE= 1.076066392461D+03
 Leave Link  502 at Sat May  9 23:56:16 2020, MaxMem= 1073741824 cpu:     114.6
 (Enter /home/matheus/.gaussian/g09/l122.exe)
 Restoring MOs from calculation   4 to rwf.
 Counterpoise: doing MCBS calculation for fragment   1
 Leave Link  122 at Sat May  9 23:56:16 2020, MaxMem= 1073741824 cpu:       0.0
 (Enter /home/matheus/.gaussian/g09/l301.exe)
 Basis read from rwf:  (5D, 7F)
 No pseudopotential information found on rwf file.
 There are    92 symmetry adapted basis functions of A'  symmetry.
 There are    46 symmetry adapted basis functions of A"  symmetry.
 Integral buffers will be    131072 words long.
 Raffenetti 2 integral format.
 Two-electron integral symmetry is turned on.
   138 basis functions,   198 primitive gaussians,   160 cartesian basis functions
     9 alpha electrons        9 beta electrons
       nuclear repulsion energy        36.6006188945 Hartrees.
 IExCor= 4639 DFT=T Ex+Corr=wB97XD ExCW=0 ScaHFX=  1.000000
 ScaDFX=  1.000000  1.000000  1.000000  1.000000 ScalE2=  1.000000  1.000000
 IRadAn=      5 IRanWt=     -1 IRanGd=            0 ICorTp=0
  HFx wShort=  0.000000 wLong=  0.200000 cFull=  0.222036 cShort=  0.000000 cLong=  0.777964
  DFx wShort=  0.000000 wLong=  0.200000 cFull=  0.000000 cShort=  0.000000 cLong=  1.000000
 NAtoms=    5 NActive=    4 NUniq=    4 SFac= 1.00D+00 NAtFMM=   60 NAOKFM=F Big=F
 R6Disp: Dispersion energy =        -0.0001972383 Hartrees.
 Nuclear repulsion after empirical dispersion term =       36.6004216562 Hartrees.
 No density basis found on file   718.
 Leave Link  301 at Sat May  9 23:56:16 2020, MaxMem= 1073741824 cpu:       0.2
 (Enter /home/matheus/.gaussian/g09/l302.exe)
 NPDir=0 NMtPBC=     1 NCelOv=     1 NCel=       1 NClECP=     1 NCelD=      1
         NCelK=      1 NCelE2=     1 NClLst=     1 CellRange=     0.0.
 One-electron integrals computed using PRISM.
 NBasis=   138 RedAO= T  NBF=    92    46
 NBsUse=   138 1.00D-06 NBFU=    92    46
 Precomputing XC quadrature grid using
 IXCGrd= 2 IRadAn=           5 IRanWt=          -1 IRanGd=           0 AccXCQ= 0.00D+00.
 NRdTot=     344 NPtTot=       92556 NUsed=       95038 NTot=       95070
 NSgBfM=   160   160   160   160   160 NAtAll=     4     4.
 Leave Link  302 at Sat May  9 23:56:16 2020, MaxMem= 1073741824 cpu:       0.8
 (Enter /home/matheus/.gaussian/g09/l303.exe)
 DipDrv:  MaxL=1.
 Leave Link  303 at Sat May  9 23:56:17 2020, MaxMem= 1073741824 cpu:       0.2
 (Enter /home/matheus/.gaussian/g09/l401.exe)
 Initial guess read from the read-write file.
 Guess basis will be translated and rotated to current coordinates.
 Initial guess orbital symmetries:
       Occupied  (A') (A') (A') (A') (A') (A') (A") (A') (A")
       Virtual   (A') (A') (A') (A') (A') (A") (A') (A') (A') (A")
                 (A") (A') (A') (A') (A") (A') (A') (A') (A') (A')
                 (A') (A") (A") (A') (A') (A") (A') (A") (A') (A")
                 (A') (A') (A') (A") (A') (A") (A') (A") (A') (A')
                 (A') (A") (A') (A") (A') (A') (A') (A") (A") (A')
                 (A') (A') (A") (A') (A') (A") (A') (A') (A") (A")
                 (A') (A') (A') (A") (A') (A') (A") (A') (A') (A")
                 (A") (A') (A') (A") (A') (A') (A') (A') (A") (A')
                 (A') (A") (A") (A') (A") (A") (A') (A") (A') (A")
                 (A') (A') (A') (A') (A') (A') (A') (A") (A") (A')
                 (A') (A') (A") (A') (A') (A") (A') (A") (A') (A")
                 (A') (A") (A") (A") (A') (A") (A") (A') (A') (A')
                 (A') (A") (A') (A') (A') (A') (A') (A') (A')
 The electronic state of the initial guess is 1-A'.
 Generating alternative initial guess.
 Harris functional with IExCor= 4639 diagonalized for initial guess.
 ExpMin= 2.53D-02 ExpMax= 1.53D+04 ExpMxC= 5.22D+02 IAcc=3 IRadAn=         5 AccDes= 0.00D+00
 HarFok:  IExCor= 4639 AccDes= 0.00D+00 IRadAn=         5 IDoV= 1
 ScaDFX=  1.000000  1.000000  1.000000  1.000000
 FoFCou: FMM=F IPFlag=           0 FMFlag=      100000 FMFlg1=           0
         NFxFlg=           0 DoJE=T BraDBF=F KetDBF=T FulRan=T
         Omega=  0.000000  0.000000  1.000000  0.000000  0.000000 ICntrl=     500 IOpCl=  0
         NMat0=    1 NMatS0=    1 NMatT0=    0 NMatD0=    1 NMtDS0=    0 NMtDT0=    0
         I1Cent=           4 NGrid=           0.
 Petite list used in FoFCou.
 Harris En= -146.291080772022    
 Leave Link  401 at Sat May  9 23:56:17 2020, MaxMem= 1073741824 cpu:       2.5
 (Enter /home/matheus/.gaussian/g09/l502.exe)
 Closed shell SCF:
 Requested convergence on RMS density matrix=1.00D-08 within 128 cycles.
 Requested convergence on MAX density matrix=1.00D-06.
 Requested convergence on             energy=1.00D-06.
 No special actions if energy rises.
 Using DIIS extrapolation, IDIIS=  1040.
 Integral symmetry usage will be decided dynamically.
        94980 words used for storage of precomputed grid.
 IEnd=      192406 IEndB=      192406 NGot=  1073741824 MDV=  1073591819
 LenX=  1073591819 LenY=  1073565778
 Fock matrices will be formed incrementally for  20 cycles.

 Cycle   1  Pass 1  IDiag  1:
 FoFJK:  IHMeth= 1 ICntrl=     0 DoSepK=T KAlg= 1 I1Cent= 0 FoldK=F
 FoFCou: FMM=F IPFlag=           0 FMFlag=      100000 FMFlg1=           0
         NFxFlg=           0 DoJE=T BraDBF=F KetDBF=F FulRan=T
         Omega=  0.000000  0.000000  1.000000  0.000000  0.000000 ICntrl=     500 IOpCl=  0
         NMat0=    1 NMatS0=    1 NMatT0=    0 NMatD0=    1 NMtDS0=    0 NMtDT0=    0
         I1Cent=           0 NGrid=           0.
 Petite list used in FoFCou.
 E= -151.557784085476    
 DIIS: error= 8.29D-11 at cycle   1 NSaved=   1.
 NSaved= 1 IEnMin= 1 EnMin= -151.557784085476     IErMin= 1 ErrMin= 8.29D-11
 ErrMax= 8.29D-11 EMaxC= 1.00D-01 BMatC= 1.10D-18 BMatP= 1.10D-18
 IDIUse=1 WtCom= 1.00D+00 WtEn= 0.00D+00
 Coeff-Com:  0.100D+01
 Coeff:      0.100D+01
 Gap=     0.386 Goal=   None    Shift=    0.000
 RMSDP=8.34D-12 MaxDP=3.79D-10              OVMax= 4.35D-10

 SCF Done:  E(RwB97XD) =  -151.557784085     A.U. after    1 cycles
             Convg  =    0.8336D-11             -V/T =  2.0059
 KE= 1.506655972453D+02 PE=-4.317234055414D+02 EE= 9.289960255435D+01
 Leave Link  502 at Sat May  9 23:56:18 2020, MaxMem= 1073741824 cpu:       8.4
 (Enter /home/matheus/.gaussian/g09/l122.exe)
 Restoring MOs from calculation   5 to rwf.
 Counterpoise: doing MCBS calculation for fragment   2
 Leave Link  122 at Sat May  9 23:56:18 2020, MaxMem= 1073741824 cpu:       0.0
 (Enter /home/matheus/.gaussian/g09/l301.exe)
 Basis read from rwf:  (5D, 7F)
 No pseudopotential information found on rwf file.
 There are    39 symmetry adapted basis functions of A'  symmetry.
 There are    20 symmetry adapted basis functions of A"  symmetry.
 Integral buffers will be    131072 words long.
 Raffenetti 2 integral format.
 Two-electron integral symmetry is turned on.
    59 basis functions,   217 primitive gaussians,    69 cartesian basis functions
    18 alpha electrons       18 beta electrons
       nuclear repulsion energy         0.0000000000 Hartrees.
 IExCor= 4639 DFT=T Ex+Corr=wB97XD ExCW=0 ScaHFX=  1.000000
 ScaDFX=  1.000000  1.000000  1.000000  1.000000 ScalE2=  1.000000  1.000000
 IRadAn=      5 IRanWt=     -1 IRanGd=            0 ICorTp=0
  HFx wShort=  0.000000 wLong=  0.200000 cFull=  0.222036 cShort=  0.000000 cLong=  0.777964
  DFx wShort=  0.000000 wLong=  0.200000 cFull=  0.000000 cShort=  0.000000 cLong=  1.000000
 NAtoms=    5 NActive=    1 NUniq=    1 SFac= 1.00D+00 NAtFMM=   60 NAOKFM=F Big=F
 R6Disp: Dispersion energy =         0.0000000000 Hartrees.
 Nuclear repulsion after empirical dispersion term =        0.0000000000 Hartrees.
 No density basis found on file   718.
 Leave Link  301 at Sat May  9 23:56:18 2020, MaxMem= 1073741824 cpu:       0.3
 (Enter /home/matheus/.gaussian/g09/l302.exe)
 NPDir=0 NMtPBC=     1 NCelOv=     1 NCel=       1 NClECP=     1 NCelD=      1
         NCelK=      1 NCelE2=     1 NClLst=     1 CellRange=     0.0.
 One-electron integrals computed using PRISM.
 NBasis=    59 RedAO= T  NBF=    39    20
 NBsUse=    59 1.00D-06 NBFU=    39    20
 Precomputing XC quadrature grid using
 IXCGrd= 2 IRadAn=           5 IRanWt=          -1 IRanGd=           0 AccXCQ= 0.00D+00.
 NRdTot=      81 NPtTot=       30352 NUsed=       30981 NTot=       31013
 NSgBfM=    69    69    69    69    69 NAtAll=     1     1.
 Leave Link  302 at Sat May  9 23:56:18 2020, MaxMem= 1073741824 cpu:       0.7
 (Enter /home/matheus/.gaussian/g09/l303.exe)
 DipDrv:  MaxL=1.
 Leave Link  303 at Sat May  9 23:56:18 2020, MaxMem= 1073741824 cpu:       0.2
 (Enter /home/matheus/.gaussian/g09/l401.exe)
 Initial guess read from the read-write file.
 Guess basis will be translated and rotated to current coordinates.
 Initial guess orbital symmetries:
       Occupied  (A') (A') (A") (A') (A') (A') (A') (A') (A") (A')
                 (A") (A") (A') (A') (A') (A') (A') (A")
       Virtual   (A') (A') (A') (A") (A") (A") (A') (A') (A') (A')
                 (A') (A") (A') (A") (A") (A') (A') (A') (A") (A')
                 (A') (A") (A") (A') (A') (A') (A') (A") (A") (A")
                 (A') (A') (A') (A') (A") (A') (A") (A') (A') (A")
                 (A')
 The electronic state of the initial guess is 1-A'.
 Generating alternative initial guess.
 Harris functional with IExCor= 4639 diagonalized for initial guess.
 ExpMin= 4.00D-02 ExpMax= 1.17D+07 ExpMxC= 1.33D+04 IAcc=3 IRadAn=         5 AccDes= 0.00D+00
 HarFok:  IExCor= 4639 AccDes= 0.00D+00 IRadAn=         5 IDoV= 1
 ScaDFX=  1.000000  1.000000  1.000000  1.000000
 FoFCou: FMM=F IPFlag=           0 FMFlag=      100000 FMFlg1=           0
         NFxFlg=           0 DoJE=T BraDBF=F KetDBF=T FulRan=T
         Omega=  0.000000  0.000000  1.000000  0.000000  0.000000 ICntrl=     500 IOpCl=  0
         NMat0=    1 NMatS0=    1 NMatT0=    0 NMatD0=    1 NMtDS0=    0 NMtDT0=    0
         I1Cent=           4 NGrid=           0.
 Petite list used in FoFCou.
 DSYEVD returned Info=          79 IAlg= 4 N=    39 NDim=    59 NE2=    18198841 trying DSYEV.
 Harris En= -2730.20235208354    
 Leave Link  401 at Sat May  9 23:56:18 2020, MaxMem= 1073741824 cpu:       1.1
 (Enter /home/matheus/.gaussian/g09/l502.exe)
 Closed shell SCF:
 Requested convergence on RMS density matrix=1.00D-08 within 128 cycles.
 Requested convergence on MAX density matrix=1.00D-06.
 Requested convergence on             energy=1.00D-06.
 No special actions if energy rises.
 Using DIIS extrapolation, IDIIS=  1040.
 Integral symmetry usage will be decided dynamically.
        30923 words used for storage of precomputed grid.
 IEnd=       64425 IEndB=       64425 NGot=  1073741824 MDV=  1073698870
 LenX=  1073698870 LenY=  1073693668
 Fock matrices will be formed incrementally for  20 cycles.

 Cycle   1  Pass 1  IDiag  1:
 FoFJK:  IHMeth= 1 ICntrl=     0 DoSepK=T KAlg= 1 I1Cent= 0 FoldK=F
 FoFCou: FMM=F IPFlag=           0 FMFlag=      100000 FMFlg1=           0
         NFxFlg=           0 DoJE=T BraDBF=F KetDBF=F FulRan=T
         Omega=  0.000000  0.000000  1.000000  0.000000  0.000000 ICntrl=     500 IOpCl=  0
         NMat0=    1 NMatS0=    1 NMatT0=    0 NMatD0=    1 NMtDS0=    0 NMtDT0=    0
         I1Cent=           0 NGrid=           0.
 Petite list used in FoFCou.
 E= -2753.87421986325    
 DIIS: error= 1.02D-13 at cycle   1 NSaved=   1.
 NSaved= 1 IEnMin= 1 EnMin= -2753.87421986325     IErMin= 1 ErrMin= 1.02D-13
 ErrMax= 1.02D-13 EMaxC= 1.00D-01 BMatC= 1.09D-24 BMatP= 1.09D-24
 IDIUse=1 WtCom= 1.00D+00 WtEn= 0.00D+00
 Coeff-Com:  0.100D+01
 Coeff:      0.100D+01
 Gap=     0.562 Goal=   None    Shift=    0.000
 RMSDP=1.30D-14 MaxDP=1.52D-13              OVMax= 1.30D-13

 SCF Done:  E(RwB97XD) =  -2753.87421986     A.U. after    1 cycles
             Convg  =    0.1296D-13             -V/T =  2.0013
 KE= 2.750300381543D+03 PE=-6.580241205809D+03 EE= 1.076066604402D+03
 Leave Link  502 at Sat May  9 23:56:20 2020, MaxMem= 1073741824 cpu:      12.7
 (Enter /home/matheus/.gaussian/g09/l122.exe)
 Restoring MOs from calculation   1 to rwf.
 Counterpoise: corrected energy =   -2905.432284691241
 Counterpoise: BSSE energy =       0.000023454845
 Leave Link  122 at Sat May  9 23:56:20 2020, MaxMem= 1073741824 cpu:       0.0
 (Enter /home/matheus/.gaussian/g09/l108.exe)
 Scan completed.

 Summary of the potential surface scan:
   N      R1          SCF    
 ----  ---------  -----------
    1     3.0000  -2753.87422
    2     3.1000  -2753.87422
    3     3.2000  -2753.87422
    4     3.3000  -2753.87422
    5     3.4000  -2753.87422
    6     3.5000  -2753.87422
    7     3.6000  -2753.87422
    8     3.7000  -2753.87422
    9     3.8000  -2753.87422
   10     3.9000  -2753.87422
   11     4.0000  -2753.87422
   12     4.1000  -2753.87422
   13     4.2000  -2753.87422
   14     4.3000  -2753.87422
   15     4.4000  -2753.87422
   16     4.5000  -2753.87422
   17     4.6000  -2753.87422
   18     4.7000  -2753.87422
   19     4.8000  -2753.87422
   20     4.9000  -2753.87422
   21     5.0000  -2753.87422
 ----  ---------  -----------
  
 Leave Link  108 at Sat May  9 23:56:20 2020, MaxMem= 1073741824 cpu:       0.0
 (Enter /home/matheus/.gaussian/g09/l9999.exe)
 1\1\GINC-REDGIANT\Scan\RwB97XD\Aug-CC-pVTZ\H2Kr1O2\MATHEUS\09-May-2020
 \1\\#p wb97xd/aug-cc-PVTz int=ultrafine counterpoise=2 Scan\\TCC\\0,1\
 O,0,0.,0.,0.725\O,0,0.,0.,-0.725\H,0,0.,-0.9187205947,1.0235104166\H,0
 ,0.,0.9187205947,-1.0235104166\Kr,0,0.,R1,0.\\R1=3.,s,20,0.1\\Version=
 EM64L-G09RevC.01\State=1-A'\HF=-2753.8742199,-2753.8742199,-2753.87421
 99,-2753.8742199,-2753.8742199,-2753.8742199,-2753.8742199,-2753.87421
 99,-2753.8742199,-2753.8742199,-2753.8742199,-2753.8742199,-2753.87421
 99,-2753.8742199,-2753.8742199,-2753.8742199,-2753.8742199,-2753.87421
 99,-2753.8742199,-2753.8742199,-2753.8742199\RMSD=9.316e-09,1.906e-10,
 6.313e-11,4.172e-11,2.477e-11,1.558e-11,9.651e-12,6.006e-12,3.737e-12,
 2.324e-12,1.440e-12,8.991e-13,5.613e-13,3.506e-13,2.137e-13,1.324e-13,
 8.170e-14,5.215e-14,3.046e-14,2.062e-14,1.296e-14\PG=CS [SG(H2Kr1O2)]\
 \@


 Until you make peace with who you are,
 you'll never be content with what you have.
                           -- Doris Mortman
 Job cpu time:  0 days  3 hours  0 minutes 53.8 seconds.
 File lengths (MBytes):  RWF=     33 Int=      0 D2E=      0 Chk=      8 Scr=      1
 Normal termination of Gaussian 09 at Sat May  9 23:56:20 2020.
