 Entering Gaussian System, Link 0=g09
 Input=/home/matheus/.tcc/Inputs/Inputs-wb97xd-default/H2O2-Kr_9.com
 Output=/home/matheus/.tcc/Logs/Logs-wb97xd-default/H2O2-Kr_9.log
 Initial command:
 /home/matheus/.gaussian/g09/l1.exe /home/matheus/.gaussian/g09/scratch/Gau-13110.inp -scrdir=/home/matheus/.gaussian/g09/scratch/
 Entering Link 1 = /home/matheus/.gaussian/g09/l1.exe PID=     13114.
  
 Copyright (c) 1988,1990,1992,1993,1995,1998,2003,2009,2011,
            Gaussian, Inc.  All Rights Reserved.
  
 This is part of the Gaussian(R) 09 program.  It is based on
 the Gaussian(R) 03 system (copyright 2003, Gaussian, Inc.),
 the Gaussian(R) 98 system (copyright 1998, Gaussian, Inc.),
 the Gaussian(R) 94 system (copyright 1995, Gaussian, Inc.),
 the Gaussian 92(TM) system (copyright 1992, Gaussian, Inc.),
 the Gaussian 90(TM) system (copyright 1990, Gaussian, Inc.),
 the Gaussian 88(TM) system (copyright 1988, Gaussian, Inc.),
 the Gaussian 86(TM) system (copyright 1986, Carnegie Mellon
 University), and the Gaussian 82(TM) system (copyright 1983,
 Carnegie Mellon University). Gaussian is a federally registered
 trademark of Gaussian, Inc.
  
 This software contains proprietary and confidential information,
 including trade secrets, belonging to Gaussian, Inc.
  
 This software is provided under written license and may be
 used, copied, transmitted, or stored only in accord with that
 written license.
  
 The following legend is applicable only to US Government
 contracts under FAR:
  
                    RESTRICTED RIGHTS LEGEND
  
 Use, reproduction and disclosure by the US Government is
 subject to restrictions as set forth in subparagraphs (a)
 and (c) of the Commercial Computer Software - Restricted
 Rights clause in FAR 52.227-19.
  
 Gaussian, Inc.
 340 Quinnipiac St., Bldg. 40, Wallingford CT 06492
  
  
 ---------------------------------------------------------------
 Warning -- This program may not be used in any manner that
 competes with the business of Gaussian, Inc. or will provide
 assistance to any competitor of Gaussian, Inc.  The licensee
 of this program is prohibited from giving any competitor of
 Gaussian, Inc. access to this program.  By using this program,
 the user acknowledges that Gaussian, Inc. is engaged in the
 business of creating and licensing software in the field of
 computational chemistry and represents and warrants to the
 licensee that it is not a competitor of Gaussian, Inc. and that
 it will not use this program in any manner prohibited above.
 ---------------------------------------------------------------
  

 Cite this work as:
 Gaussian 09, Revision C.01,
 M. J. Frisch, G. W. Trucks, H. B. Schlegel, G. E. Scuseria, 
 M. A. Robb, J. R. Cheeseman, G. Scalmani, V. Barone, B. Mennucci, 
 G. A. Petersson, H. Nakatsuji, M. Caricato, X. Li, H. P. Hratchian, 
 A. F. Izmaylov, J. Bloino, G. Zheng, J. L. Sonnenberg, M. Hada, 
 M. Ehara, K. Toyota, R. Fukuda, J. Hasegawa, M. Ishida, T. Nakajima, 
 Y. Honda, O. Kitao, H. Nakai, T. Vreven, J. A. Montgomery, Jr., 
 J. E. Peralta, F. Ogliaro, M. Bearpark, J. J. Heyd, E. Brothers, 
 K. N. Kudin, V. N. Staroverov, T. Keith, R. Kobayashi, J. Normand, 
 K. Raghavachari, A. Rendell, J. C. Burant, S. S. Iyengar, J. Tomasi, 
 M. Cossi, N. Rega, J. M. Millam, M. Klene, J. E. Knox, J. B. Cross, 
 V. Bakken, C. Adamo, J. Jaramillo, R. Gomperts, R. E. Stratmann, 
 O. Yazyev, A. J. Austin, R. Cammi, C. Pomelli, J. W. Ochterski, 
 R. L. Martin, K. Morokuma, V. G. Zakrzewski, G. A. Voth, 
 P. Salvador, J. J. Dannenberg, S. Dapprich, A. D. Daniels, 
 O. Farkas, J. B. Foresman, J. V. Ortiz, J. Cioslowski, 
 and D. J. Fox, Gaussian, Inc., Wallingford CT, 2010.
 
 ******************************************
 Gaussian 09:  EM64L-G09RevC.01 23-Sep-2011
                 9-May-2020 
 ******************************************
 %mem=8GB
 %nproc=8
 Will use up to    8 processors via shared memory.
 -------------------------------------------------------
 #p wb97xd/aug-cc-PVTz int=ultrafine counterpoise=2 Scan
 -------------------------------------------------------
 1/38=1,60=1,62=2/1,8;
 2/12=2,17=6,18=5,29=3,40=1/2;
 1/38=1,53=5172,62=2/22;
 3/5=16,6=1,7=10,11=2,16=1,25=1,30=1,74=-58,75=-5/1,2,3;
 4//1;
 5/5=2,38=5/2;
 6/7=2,8=2,9=2,10=2,18=1,28=1/1;
 1/53=4052,62=2,63=1/22;
 3/5=7,6=11,7=10,11=2,16=1,25=1,30=1,74=-58,75=-5,82=7/1,2,3;
 4//1;
 5/5=2,38=5/2;
 6/7=2,8=2,9=2,10=2,18=1,28=1/1;
 1/53=3042,62=2,63=2/22;
 3/5=7,6=11,7=10,11=2,16=1,25=1,30=1,74=-58,75=-5,82=7/1,2,3;
 4//1;
 5/5=2,38=5/2;
 6/7=2,8=2,9=2,10=2,18=1,28=1/1;
 1/53=2032,62=2,63=3/22;
 3/5=7,6=11,7=10,11=2,16=1,25=1,30=1,74=-58,75=-5,82=7/1,2,3;
 4//1;
 5/5=2,38=5/2;
 6/7=2,8=2,9=2,10=2,18=1,28=1/1;
 1/53=1022,62=2,63=4/22;
 3/5=7,6=11,7=10,11=2,16=1,25=1,30=1,74=-58,75=-5,82=7/1,2,3;
 4//1;
 5/5=2,38=5/2;
 6/7=2,8=2,9=2,10=2,18=1,28=1/1;
 1/53=5014,62=2,63=5/22;
 1/60=1,62=2/8(1);
 99/9=1/99;
 2/29=3/2;
 1/53=5173,62=2/22;
 3/5=7,6=11,7=10,11=2,16=1,25=1,30=1,74=-58,75=-5,82=7/1,2,3;
 4/5=5,16=3/1;
 5/5=2,38=5/2;
 1/53=4053,62=2,63=1/22;
 3/5=7,6=11,7=10,11=2,16=1,25=1,30=1,74=-58,75=-5,82=7/1,2,3;
 4/5=5,16=3/1;
 5/5=2,38=5/2;
 1/53=3043,62=2,63=2/22;
 3/5=7,6=11,7=10,11=2,16=1,25=1,30=1,74=-58,75=-5,82=7/1,2,3;
 4/5=5,16=3/1;
 5/5=2,38=5/2;
 1/53=2033,62=2,63=3/22;
 3/5=7,6=11,7=10,11=2,16=1,25=1,30=1,74=-58,75=-5,82=7/1,2,3;
 4/5=5,16=3/1;
 5/5=2,38=5/2;
 1/53=1024,62=2,63=4/22;
 3/5=7,6=11,7=10,11=2,16=1,25=1,30=1,74=-58,75=-5,82=7/1,2,3;
 4/5=5,16=3/1;
 5/5=2,38=5/2;
 1/53=5014,62=2,63=5/22;
 1/60=1,62=2/8(-22);
 99/9=1/99;
 Leave Link    1 at Sat May  9 19:13:06 2020, MaxMem= 1073741824 cpu:       0.2
 (Enter /home/matheus/.gaussian/g09/l101.exe)
 ---
 TCC
 ---
 Charge =  0 Multiplicity = 1 in supermolecule
 Charge =  0 Multiplicity = 1 in fragment  1.
 Charge =  0 Multiplicity = 1 in fragment  2.
 Symbolic Z-Matrix:
 O(Fragment=1)         0.        0.        0.725 
 O(Fragment=1)         0.        0.       -0.725 
 H(Fragment=1)         0.91872   0.        1.02351 
 H(Fragment=1)         0.        0.91872  -1.02351 
 Kr(Fragment=2)        0.       R1        0. 
       Variables:
  R1                    3.     Scan 20    0.1    
 
 NAtoms=      5 NQM=        0 NQMF=       0 NMMI=      5 NMMIF=      0
                NMic=       0 NMicF=      0.
                    Isotopes and Nuclear Properties:
 (Nuclear quadrupole moments (NQMom) in fm**2, nuclear magnetic moments (NMagM)
  in nuclear magnetons)

  Atom         1           2           3           4           5
 IAtWgt=          16          16           1           1          84
 AtmWgt=  15.9949146  15.9949146   1.0078250   1.0078250  83.9115064
 NucSpn=           0           0           1           1           0
 AtZEff=   0.0000000   0.0000000   0.0000000   0.0000000   0.0000000
 NQMom=    0.0000000   0.0000000   0.0000000   0.0000000   0.0000000
 NMagM=    0.0000000   0.0000000   2.7928460   2.7928460   0.0000000
 Leave Link  101 at Sat May  9 19:13:06 2020, MaxMem= 1073741824 cpu:       0.4
 (Enter /home/matheus/.gaussian/g09/l108.exe)
 Scan the potential surface.
 Variable   Value     No. Steps Step-Size
 -------- ----------- --------- ---------
     1       3.000000      20      0.1000
 A total of     21 points will be computed.
 Leave Link  108 at Sat May  9 19:13:06 2020, MaxMem= 1073741824 cpu:       0.0
 (Enter /home/matheus/.gaussian/g09/l202.exe)
 ---------------------------------------------------------------------------------------------------
                            Z-MATRIX (ANGSTROMS AND DEGREES)
   CD    Cent   Atom    N1       Length/X        N2       Alpha/Y        N3        Beta/Z          J
 ---------------------------------------------------------------------------------------------------
      1      1  O        0   0.000000          0.000000          0.725000
      2      2  O        0   0.000000          0.000000         -0.725000
      3      3  H        0   0.918721          0.000000          1.023510
      4      4  H        0   0.000000          0.918721         -1.023510
      5      5  Kr       0   0.000000          3.000000          0.000000
 ---------------------------------------------------------------------------------------------------
                         Z-Matrix orientation:                         
 ---------------------------------------------------------------------
 Center     Atomic      Atomic             Coordinates (Angstroms)
 Number     Number       Type             X           Y           Z
 ---------------------------------------------------------------------
      1          8           0        0.000000    0.000000    0.725000
      2          8           0        0.000000    0.000000   -0.725000
      3          1           0        0.918721    0.000000    1.023510
      4          1           0        0.000000    0.918721   -1.023510
      5         36           0        0.000000    3.000000    0.000000
 ---------------------------------------------------------------------
                    Distance matrix (angstroms):
                    1          2          3          4          5
     1  O    0.000000
     2  O    1.450000   0.000000
     3  H    0.966000   1.975180   0.000000
     4  H    1.975180   0.966000   2.424539   0.000000
     5  Kr   3.086361   3.086361   3.300246   2.319331   0.000000
 Stoichiometry    H2KrO2
 Framework group  C1[X(H2KrO2)]
 Deg. of freedom     9
 Full point group                 C1      NOp   1
 Largest Abelian subgroup         C1      NOp   1
 Largest concise Abelian subgroup C1      NOp   1
                         Standard orientation:                         
 ---------------------------------------------------------------------
 Center     Atomic      Atomic             Coordinates (Angstroms)
 Number     Number       Type             X           Y           Z
 ---------------------------------------------------------------------
      1          8           0        2.023612   -0.696492   -0.118952
      2          8           0        2.008959    0.747023    0.017247
      3          1           0        2.043021   -1.079789    0.767536
      4          1           0        1.087415    1.033416    0.060735
      5         36           0       -0.983084   -0.009941   -0.000406
 ---------------------------------------------------------------------
 Rotational constants (GHZ):     25.5933462      2.3453767      2.1627661
 Leave Link  202 at Sat May  9 19:13:06 2020, MaxMem= 1073741824 cpu:       0.0
 (Enter /home/matheus/.gaussian/g09/l122.exe)
 Leave Link  122 at Sat May  9 19:13:06 2020, MaxMem= 1073741824 cpu:       0.0
 (Enter /home/matheus/.gaussian/g09/l301.exe)
 Standard basis: Aug-CC-pVTZ (5D, 7F)
 Ernie: Thresh=  0.10000D-02 Tol=  0.10000D-05 Strict=F.
 Ernie:  38 primitive shells out of 205 were deleted.
 There are   197 symmetry adapted basis functions of A   symmetry.
 Integral buffers will be    131072 words long.
 Raffenetti 2 integral format.
 Two-electron integral symmetry is turned on.
   197 basis functions,   415 primitive gaussians,   229 cartesian basis functions
    27 alpha electrons       27 beta electrons
       nuclear repulsion energy       149.3716944117 Hartrees.
 IExCor= 4639 DFT=T Ex+Corr=wB97XD ExCW=0 ScaHFX=  1.000000
 ScaDFX=  1.000000  1.000000  1.000000  1.000000 ScalE2=  1.000000  1.000000
 IRadAn=      5 IRanWt=     -1 IRanGd=            0 ICorTp=0
  HFx wShort=  0.000000 wLong=  0.200000 cFull=  0.222036 cShort=  0.000000 cLong=  0.777964
  DFx wShort=  0.000000 wLong=  0.200000 cFull=  0.000000 cShort=  0.000000 cLong=  1.000000
 NAtoms=    5 NActive=    5 NUniq=    5 SFac= 1.00D+00 NAtFMM=   60 NAOKFM=F Big=F
 R6Disp: Dispersion energy =        -0.0009500984 Hartrees.
 Nuclear repulsion after empirical dispersion term =      149.3707443132 Hartrees.
 Leave Link  301 at Sat May  9 19:13:06 2020, MaxMem= 1073741824 cpu:       0.2
 (Enter /home/matheus/.gaussian/g09/l302.exe)
 NPDir=0 NMtPBC=     1 NCelOv=     1 NCel=       1 NClECP=     1 NCelD=      1
         NCelK=      1 NCelE2=     1 NClLst=     1 CellRange=     0.0.
 One-electron integrals computed using PRISM.
 NBasis=   197 RedAO= T  NBF=   197
 NBsUse=   197 1.00D-06 NBFU=   197
 Precomputing XC quadrature grid using
 IXCGrd= 2 IRadAn=           5 IRanWt=          -1 IRanGd=           0 AccXCQ= 0.00D+00.
 NRdTot=     427 NPtTot=      123512 NUsed=      126579 NTot=      126611
 NSgBfM=   229   229   229   229   229 NAtAll=     5     5.
 Leave Link  302 at Sat May  9 19:13:06 2020, MaxMem= 1073741824 cpu:       0.9
 (Enter /home/matheus/.gaussian/g09/l303.exe)
 DipDrv:  MaxL=1.
 Leave Link  303 at Sat May  9 19:13:06 2020, MaxMem= 1073741824 cpu:       0.2
 (Enter /home/matheus/.gaussian/g09/l401.exe)
 Harris functional with IExCor= 4639 diagonalized for initial guess.
 ExpMin= 2.53D-02 ExpMax= 1.17D+07 ExpMxC= 1.33D+04 IAcc=3 IRadAn=         5 AccDes= 0.00D+00
 HarFok:  IExCor= 4639 AccDes= 0.00D+00 IRadAn=         5 IDoV= 1
 ScaDFX=  1.000000  1.000000  1.000000  1.000000
 FoFCou: FMM=F IPFlag=           0 FMFlag=      100000 FMFlg1=           0
         NFxFlg=           0 DoJE=T BraDBF=F KetDBF=T FulRan=T
         Omega=  0.000000  0.000000  1.000000  0.000000  0.000000 ICntrl=     500 IOpCl=  0
         NMat0=    1 NMatS0=    1 NMatT0=    0 NMatD0=    1 NMtDS0=    0 NMtDT0=    0
         I1Cent=           4 NGrid=           0.
 Petite list used in FoFCou.
 Harris En= -2876.49070578204    
 Initial guess orbital symmetries:
       Occupied  (A) (A) (A) (A) (A) (A) (A) (A) (A) (A) (A) (A)
                 (A) (A) (A) (A) (A) (A) (A) (A) (A) (A) (A) (A)
                 (A) (A) (A)
       Virtual   (A) (A) (A) (A) (A) (A) (A) (A) (A) (A) (A) (A)
                 (A) (A) (A) (A) (A) (A) (A) (A) (A) (A) (A) (A)
                 (A) (A) (A) (A) (A) (A) (A) (A) (A) (A) (A) (A)
                 (A) (A) (A) (A) (A) (A) (A) (A) (A) (A) (A) (A)
                 (A) (A) (A) (A) (A) (A) (A) (A) (A) (A) (A) (A)
                 (A) (A) (A) (A) (A) (A) (A) (A) (A) (A) (A) (A)
                 (A) (A) (A) (A) (A) (A) (A) (A) (A) (A) (A) (A)
                 (A) (A) (A) (A) (A) (A) (A) (A) (A) (A) (A) (A)
                 (A) (A) (A) (A) (A) (A) (A) (A) (A) (A) (A) (A)
                 (A) (A) (A) (A) (A) (A) (A) (A) (A) (A) (A) (A)
                 (A) (A) (A) (A) (A) (A) (A) (A) (A) (A) (A) (A)
                 (A) (A) (A) (A) (A) (A) (A) (A) (A) (A) (A) (A)
                 (A) (A) (A) (A) (A) (A) (A) (A) (A) (A) (A) (A)
                 (A) (A) (A) (A) (A) (A) (A) (A) (A) (A) (A) (A)
                 (A) (A)
 The electronic state of the initial guess is 1-A.
 Leave Link  401 at Sat May  9 19:13:06 2020, MaxMem= 1073741824 cpu:       4.1
 (Enter /home/matheus/.gaussian/g09/l502.exe)
 Closed shell SCF:
 Requested convergence on RMS density matrix=1.00D-08 within 128 cycles.
 Requested convergence on MAX density matrix=1.00D-06.
 Requested convergence on             energy=1.00D-06.
 No special actions if energy rises.
 Using DIIS extrapolation, IDIIS=  1040.
 Integral symmetry usage will be decided dynamically.
       126521 words used for storage of precomputed grid.
 IEnd=      305468 IEndB=      305468 NGot=  1073741824 MDV=  1073505667
 LenX=  1073505667 LenY=  1073452785
 Fock matrices will be formed incrementally for  20 cycles.

 Cycle   1  Pass 1  IDiag  1:
 FoFJK:  IHMeth= 1 ICntrl=     0 DoSepK=T KAlg= 1 I1Cent= 0 FoldK=F
 FoFCou: FMM=F IPFlag=           0 FMFlag=      100000 FMFlg1=           0
         NFxFlg=           0 DoJE=T BraDBF=F KetDBF=F FulRan=T
         Omega=  0.000000  0.000000  1.000000  0.000000  0.000000 ICntrl=     500 IOpCl=  0
         NMat0=    1 NMatS0=    1 NMatT0=    0 NMatD0=    1 NMtDS0=    0 NMtDT0=    0
         I1Cent=           0 NGrid=           0.
 Symmetry not used in FoFCou.
 E= -2904.93636676365    
 DIIS: error= 6.36D-02 at cycle   1 NSaved=   1.
 NSaved= 1 IEnMin= 1 EnMin= -2904.93636676365     IErMin= 1 ErrMin= 6.36D-02
 ErrMax= 6.36D-02 EMaxC= 1.00D-01 BMatC= 2.17D+00 BMatP= 2.17D+00
 IDIUse=3 WtCom= 3.64D-01 WtEn= 6.36D-01
 Coeff-Com:  0.100D+01
 Coeff-En:   0.100D+01
 Coeff:      0.100D+01
 Gap=     0.536 Goal=   None    Shift=    0.000
 GapD=    0.536 DampG=2.000 DampE=0.500 DampFc=1.0000 IDamp=-1.
 RMSDP=6.10D-03 MaxDP=3.66D-01              OVMax= 1.78D-01

 Cycle   2  Pass 1  IDiag  1:
 RMSU=  4.29D-03    CP:  1.03D+00
 FoFJK:  IHMeth= 1 ICntrl=     0 DoSepK=T KAlg= 1 I1Cent= 0 FoldK=F
 E= -2905.23015154709     Delta-E=       -0.293784783436 Rises=F Damp=F
 DIIS: error= 3.12D-02 at cycle   2 NSaved=   2.
 NSaved= 2 IEnMin= 2 EnMin= -2905.23015154709     IErMin= 2 ErrMin= 3.12D-02
 ErrMax= 3.12D-02 EMaxC= 1.00D-01 BMatC= 5.64D-01 BMatP= 2.17D+00
 IDIUse=3 WtCom= 6.88D-01 WtEn= 3.12D-01
 Coeff-Com:  0.330D+00 0.670D+00
 Coeff-En:   0.217D+00 0.783D+00
 Coeff:      0.295D+00 0.705D+00
 Gap=     0.484 Goal=   None    Shift=    0.000
 RMSDP=2.69D-03 MaxDP=1.57D-01 DE=-2.94D-01 OVMax= 7.67D-02

 Cycle   3  Pass 1  IDiag  1:
 RMSU=  5.48D-04    CP:  1.02D+00  5.77D-01
 FoFJK:  IHMeth= 1 ICntrl=     0 DoSepK=T KAlg= 1 I1Cent= 0 FoldK=F
 E= -2905.42244263521     Delta-E=       -0.192291088121 Rises=F Damp=F
 DIIS: error= 6.18D-03 at cycle   3 NSaved=   3.
 NSaved= 3 IEnMin= 3 EnMin= -2905.42244263521     IErMin= 3 ErrMin= 6.18D-03
 ErrMax= 6.18D-03 EMaxC= 1.00D-01 BMatC= 1.84D-02 BMatP= 5.64D-01
 IDIUse=3 WtCom= 9.38D-01 WtEn= 6.18D-02
 Coeff-Com:  0.370D-01 0.192D+00 0.771D+00
 Coeff-En:   0.000D+00 0.000D+00 0.100D+01
 Coeff:      0.347D-01 0.180D+00 0.786D+00
 Gap=     0.444 Goal=   None    Shift=    0.000
 RMSDP=5.00D-04 MaxDP=2.17D-02 DE=-1.92D-01 OVMax= 2.76D-02

 Cycle   4  Pass 1  IDiag  1:
 RMSU=  2.42D-04    CP:  1.02D+00  6.35D-01  8.73D-01
 FoFJK:  IHMeth= 1 ICntrl=     0 DoSepK=T KAlg= 1 I1Cent= 0 FoldK=F
 E= -2905.43072404129     Delta-E=       -0.008281406083 Rises=F Damp=F
 DIIS: error= 2.52D-03 at cycle   4 NSaved=   4.
 NSaved= 4 IEnMin= 4 EnMin= -2905.43072404129     IErMin= 4 ErrMin= 2.52D-03
 ErrMax= 2.52D-03 EMaxC= 1.00D-01 BMatC= 2.09D-03 BMatP= 1.84D-02
 IDIUse=3 WtCom= 9.75D-01 WtEn= 2.52D-02
 Coeff-Com: -0.924D-03 0.526D-01 0.382D+00 0.567D+00
 Coeff-En:   0.000D+00 0.000D+00 0.000D+00 0.100D+01
 Coeff:     -0.901D-03 0.512D-01 0.372D+00 0.578D+00
 Gap=     0.428 Goal=   None    Shift=    0.000
 RMSDP=1.34D-04 MaxDP=7.93D-03 DE=-8.28D-03 OVMax= 7.52D-03

 Cycle   5  Pass 1  IDiag  1:
 RMSU=  3.89D-05    CP:  1.02D+00  6.32D-01  9.18D-01  6.66D-01
 FoFJK:  IHMeth= 1 ICntrl=     0 DoSepK=T KAlg= 1 I1Cent= 0 FoldK=F
 E= -2905.43199719073     Delta-E=       -0.001273149441 Rises=F Damp=F
 DIIS: error= 3.01D-04 at cycle   5 NSaved=   5.
 NSaved= 5 IEnMin= 5 EnMin= -2905.43199719073     IErMin= 5 ErrMin= 3.01D-04
 ErrMax= 3.01D-04 EMaxC= 1.00D-01 BMatC= 3.18D-05 BMatP= 2.09D-03
 IDIUse=3 WtCom= 9.97D-01 WtEn= 3.01D-03
 Coeff-Com: -0.106D-02 0.163D-01 0.135D+00 0.222D+00 0.628D+00
 Coeff-En:   0.000D+00 0.000D+00 0.000D+00 0.000D+00 0.100D+01
 Coeff:     -0.105D-02 0.162D-01 0.134D+00 0.221D+00 0.629D+00
 Gap=     0.426 Goal=   None    Shift=    0.000
 RMSDP=2.17D-05 MaxDP=1.02D-03 DE=-1.27D-03 OVMax= 1.61D-03

 Cycle   6  Pass 1  IDiag  1:
 RMSU=  1.49D-05    CP:  1.02D+00  6.32D-01  9.23D-01  6.77D-01  9.95D-01
 FoFJK:  IHMeth= 1 ICntrl=     0 DoSepK=T KAlg= 1 I1Cent= 0 FoldK=F
 E= -2905.43201347692     Delta-E=       -0.000016286183 Rises=F Damp=F
 DIIS: error= 1.51D-04 at cycle   6 NSaved=   6.
 NSaved= 6 IEnMin= 6 EnMin= -2905.43201347692     IErMin= 6 ErrMin= 1.51D-04
 ErrMax= 1.51D-04 EMaxC= 1.00D-01 BMatC= 8.92D-06 BMatP= 3.18D-05
 IDIUse=3 WtCom= 9.98D-01 WtEn= 1.51D-03
 Coeff-Com: -0.386D-03-0.502D-02-0.243D-01-0.295D-01 0.343D+00 0.716D+00
 Coeff-En:   0.000D+00 0.000D+00 0.000D+00 0.000D+00 0.173D+00 0.827D+00
 Coeff:     -0.385D-03-0.502D-02-0.243D-01-0.294D-01 0.343D+00 0.716D+00
 Gap=     0.426 Goal=   None    Shift=    0.000
 RMSDP=1.13D-05 MaxDP=4.49D-04 DE=-1.63D-05 OVMax= 6.60D-04

 Cycle   7  Pass 1  IDiag  1:
 RMSU=  3.94D-06    CP:  1.02D+00  6.32D-01  9.29D-01  6.82D-01  1.14D+00
                    CP:  8.71D-01
 FoFJK:  IHMeth= 1 ICntrl=     0 DoSepK=T KAlg= 1 I1Cent= 0 FoldK=F
 E= -2905.43201989991     Delta-E=       -0.000006422997 Rises=F Damp=F
 DIIS: error= 1.26D-05 at cycle   7 NSaved=   7.
 NSaved= 7 IEnMin= 7 EnMin= -2905.43201989991     IErMin= 7 ErrMin= 1.26D-05
 ErrMax= 1.26D-05 EMaxC= 1.00D-01 BMatC= 7.27D-08 BMatP= 8.92D-06
 IDIUse=1 WtCom= 1.00D+00 WtEn= 0.00D+00
 Coeff-Com:  0.295D-05-0.128D-02-0.880D-02-0.126D-01 0.567D-02 0.845D-01
 Coeff-Com:  0.933D+00
 Coeff:      0.295D-05-0.128D-02-0.880D-02-0.126D-01 0.567D-02 0.845D-01
 Coeff:      0.933D+00
 Gap=     0.426 Goal=   None    Shift=    0.000
 RMSDP=2.13D-06 MaxDP=6.64D-05 DE=-6.42D-06 OVMax= 1.80D-04

 Cycle   8  Pass 1  IDiag  1:
 RMSU=  8.77D-07    CP:  1.02D+00  6.32D-01  9.30D-01  6.83D-01  1.16D+00
                    CP:  9.15D-01  1.14D+00
 FoFJK:  IHMeth= 1 ICntrl=     0 DoSepK=T KAlg= 1 I1Cent= 0 FoldK=F
 E= -2905.43202003112     Delta-E=       -0.000000131207 Rises=F Damp=F
 DIIS: error= 3.21D-06 at cycle   8 NSaved=   8.
 NSaved= 8 IEnMin= 8 EnMin= -2905.43202003112     IErMin= 8 ErrMin= 3.21D-06
 ErrMax= 3.21D-06 EMaxC= 1.00D-01 BMatC= 4.22D-09 BMatP= 7.27D-08
 IDIUse=1 WtCom= 1.00D+00 WtEn= 0.00D+00
 Coeff-Com:  0.185D-04 0.129D-03 0.437D-03 0.304D-03-0.183D-01-0.303D-01
 Coeff-Com:  0.535D-01 0.994D+00
 Coeff:      0.185D-04 0.129D-03 0.437D-03 0.304D-03-0.183D-01-0.303D-01
 Coeff:      0.535D-01 0.994D+00
 Gap=     0.426 Goal=   None    Shift=    0.000
 RMSDP=6.51D-07 MaxDP=1.57D-05 DE=-1.31D-07 OVMax= 6.81D-05

 Cycle   9  Pass 1  IDiag  1:
 RMSU=  2.19D-07    CP:  1.02D+00  6.32D-01  9.30D-01  6.83D-01  1.16D+00
                    CP:  9.22D-01  1.20D+00  1.30D+00
 FoFJK:  IHMeth= 1 ICntrl=     0 DoSepK=T KAlg= 1 I1Cent= 0 FoldK=F
 E= -2905.43202004214     Delta-E=       -0.000000011023 Rises=F Damp=F
 DIIS: error= 1.28D-06 at cycle   9 NSaved=   9.
 NSaved= 9 IEnMin= 9 EnMin= -2905.43202004214     IErMin= 9 ErrMin= 1.28D-06
 ErrMax= 1.28D-06 EMaxC= 1.00D-01 BMatC= 3.72D-10 BMatP= 4.22D-09
 IDIUse=1 WtCom= 1.00D+00 WtEn= 0.00D+00
 Coeff-Com: -0.926D-06 0.737D-04 0.531D-03 0.592D-03-0.696D-03-0.423D-02
 Coeff-Com: -0.521D-01-0.470D-01 0.110D+01
 Coeff:     -0.926D-06 0.737D-04 0.531D-03 0.592D-03-0.696D-03-0.423D-02
 Coeff:     -0.521D-01-0.470D-01 0.110D+01
 Gap=     0.426 Goal=   None    Shift=    0.000
 RMSDP=2.31D-07 MaxDP=6.70D-06 DE=-1.10D-08 OVMax= 2.98D-05

 Cycle  10  Pass 1  IDiag  1:
 RMSU=  8.31D-08    CP:  1.02D+00  6.32D-01  9.30D-01  6.83D-01  1.16D+00
                    CP:  9.23D-01  1.21D+00  1.40D+00  1.37D+00
 FoFJK:  IHMeth= 1 ICntrl=     0 DoSepK=T KAlg= 1 I1Cent= 0 FoldK=F
 E= -2905.43202004343     Delta-E=       -0.000000001286 Rises=F Damp=F
 DIIS: error= 3.46D-07 at cycle  10 NSaved=  10.
 NSaved=10 IEnMin=10 EnMin= -2905.43202004343     IErMin=10 ErrMin= 3.46D-07
 ErrMax= 3.46D-07 EMaxC= 1.00D-01 BMatC= 4.57D-11 BMatP= 3.72D-10
 IDIUse=1 WtCom= 1.00D+00 WtEn= 0.00D+00
 Coeff-Com: -0.114D-05-0.316D-05 0.381D-05 0.323D-05 0.161D-02 0.279D-02
 Coeff-Com: -0.484D-02-0.117D+00 0.144D+00 0.973D+00
 Coeff:     -0.114D-05-0.316D-05 0.381D-05 0.323D-05 0.161D-02 0.279D-02
 Coeff:     -0.484D-02-0.117D+00 0.144D+00 0.973D+00
 Gap=     0.426 Goal=   None    Shift=    0.000
 RMSDP=7.37D-08 MaxDP=1.58D-06 DE=-1.29D-09 OVMax= 1.01D-05

 Cycle  11  Pass 1  IDiag  1:
 RMSU=  2.00D-08    CP:  1.02D+00  6.32D-01  9.30D-01  6.83D-01  1.16D+00
                    CP:  9.23D-01  1.21D+00  1.42D+00  1.53D+00  1.31D+00
 FoFJK:  IHMeth= 1 ICntrl=     0 DoSepK=T KAlg= 1 I1Cent= 0 FoldK=F
 E= -2905.43202004359     Delta-E=       -0.000000000155 Rises=F Damp=F
 DIIS: error= 1.08D-07 at cycle  11 NSaved=  11.
 NSaved=11 IEnMin=11 EnMin= -2905.43202004359     IErMin=11 ErrMin= 1.08D-07
 ErrMax= 1.08D-07 EMaxC= 1.00D-01 BMatC= 4.18D-12 BMatP= 4.57D-11
 IDIUse=1 WtCom= 1.00D+00 WtEn= 0.00D+00
 Coeff-Com:  0.388D-06-0.600D-05-0.522D-04-0.417D-04-0.173D-04 0.298D-03
 Coeff-Com:  0.650D-02 0.855D-03-0.104D+00-0.511D-01 0.115D+01
 Coeff:      0.388D-06-0.600D-05-0.522D-04-0.417D-04-0.173D-04 0.298D-03
 Coeff:      0.650D-02 0.855D-03-0.104D+00-0.511D-01 0.115D+01
 Gap=     0.426 Goal=   None    Shift=    0.000
 RMSDP=2.79D-08 MaxDP=5.98D-07 DE=-1.55D-10 OVMax= 3.86D-06

 Cycle  12  Pass 1  IDiag  1:
 RMSU=  5.35D-09    CP:  1.02D+00  6.32D-01  9.30D-01  6.83D-01  1.16D+00
                    CP:  9.23D-01  1.21D+00  1.42D+00  1.58D+00  1.48D+00
                    CP:  1.30D+00
 FoFJK:  IHMeth= 1 ICntrl=     0 DoSepK=T KAlg= 1 I1Cent= 0 FoldK=F
 E= -2905.43202004358     Delta-E=        0.000000000007 Rises=F Damp=F
 DIIS: error= 2.14D-08 at cycle  12 NSaved=  12.
 NSaved=12 IEnMin=11 EnMin= -2905.43202004359     IErMin=12 ErrMin= 2.14D-08
 ErrMax= 2.14D-08 EMaxC= 1.00D-01 BMatC= 1.66D-13 BMatP= 4.18D-12
 IDIUse=1 WtCom= 1.00D+00 WtEn= 0.00D+00
 Coeff-Com:  0.529D-08-0.391D-06-0.196D-05-0.450D-05-0.106D-03-0.180D-03
 Coeff-Com:  0.457D-03 0.596D-02-0.215D-02-0.503D-01-0.709D-01 0.112D+01
 Coeff:      0.529D-08-0.391D-06-0.196D-05-0.450D-05-0.106D-03-0.180D-03
 Coeff:      0.457D-03 0.596D-02-0.215D-02-0.503D-01-0.709D-01 0.112D+01
 Gap=     0.426 Goal=   None    Shift=    0.000
 RMSDP=6.12D-09 MaxDP=1.75D-07 DE= 6.82D-12 OVMax= 7.15D-07

 SCF Done:  E(RwB97XD) =  -2905.43202004     A.U. after   12 cycles
             Convg  =    0.6116D-08             -V/T =  2.0015
 KE= 2.900987736777D+03 PE=-7.236949634548D+03 EE= 1.281159133414D+03
 Leave Link  502 at Sat May  9 19:13:48 2020, MaxMem= 1073741824 cpu:     332.7
 (Enter /home/matheus/.gaussian/g09/l601.exe)
 Copying SCF densities to generalized density rwf, IOpCl= 0 IROHF=0.

 **********************************************************************

            Population analysis using the SCF density.

 **********************************************************************

 Orbital symmetries:
       Occupied  (A) (A) (A) (A) (A) (A) (A) (A) (A) (A) (A) (A)
                 (A) (A) (A) (A) (A) (A) (A) (A) (A) (A) (A) (A)
                 (A) (A) (A)
       Virtual   (A) (A) (A) (A) (A) (A) (A) (A) (A) (A) (A) (A)
                 (A) (A) (A) (A) (A) (A) (A) (A) (A) (A) (A) (A)
                 (A) (A) (A) (A) (A) (A) (A) (A) (A) (A) (A) (A)
                 (A) (A) (A) (A) (A) (A) (A) (A) (A) (A) (A) (A)
                 (A) (A) (A) (A) (A) (A) (A) (A) (A) (A) (A) (A)
                 (A) (A) (A) (A) (A) (A) (A) (A) (A) (A) (A) (A)
                 (A) (A) (A) (A) (A) (A) (A) (A) (A) (A) (A) (A)
                 (A) (A) (A) (A) (A) (A) (A) (A) (A) (A) (A) (A)
                 (A) (A) (A) (A) (A) (A) (A) (A) (A) (A) (A) (A)
                 (A) (A) (A) (A) (A) (A) (A) (A) (A) (A) (A) (A)
                 (A) (A) (A) (A) (A) (A) (A) (A) (A) (A) (A) (A)
                 (A) (A) (A) (A) (A) (A) (A) (A) (A) (A) (A) (A)
                 (A) (A) (A) (A) (A) (A) (A) (A) (A) (A) (A) (A)
                 (A) (A) (A) (A) (A) (A) (A) (A) (A) (A) (A) (A)
                 (A) (A)
 The electronic state is 1-A.
 Alpha  occ. eigenvalues -- -513.07428 -67.34114 -60.88998 -60.88986 -60.88978
 Alpha  occ. eigenvalues --  -19.31897 -19.31520  -9.79424  -7.48755  -7.48714
 Alpha  occ. eigenvalues --   -7.48687  -3.35493  -3.35486  -3.35465  -3.35432
 Alpha  occ. eigenvalues --   -3.35430  -1.22211  -1.01080  -1.00039  -0.65325
 Alpha  occ. eigenvalues --   -0.57080  -0.51988  -0.48451  -0.48113  -0.47237
 Alpha  occ. eigenvalues --   -0.39596  -0.39159
 Alpha virt. eigenvalues --    0.03395   0.04222   0.07974   0.09405   0.10247
 Alpha virt. eigenvalues --    0.11830   0.13154   0.13969   0.17095   0.17657
 Alpha virt. eigenvalues --    0.17916   0.18859   0.20258   0.22153   0.23010
 Alpha virt. eigenvalues --    0.24154   0.25244   0.27393   0.30192   0.32206
 Alpha virt. eigenvalues --    0.33750   0.34973   0.36391   0.37733   0.38633
 Alpha virt. eigenvalues --    0.40074   0.42057   0.46866   0.51196   0.53718
 Alpha virt. eigenvalues --    0.54468   0.58743   0.60222   0.63190   0.67038
 Alpha virt. eigenvalues --    0.69503   0.69897   0.71664   0.73923   0.74263
 Alpha virt. eigenvalues --    0.75178   0.75688   0.77024   0.78450   0.81097
 Alpha virt. eigenvalues --    0.82854   0.85320   0.87005   0.88322   0.88967
 Alpha virt. eigenvalues --    0.90503   0.90874   0.93401   0.94394   0.96963
 Alpha virt. eigenvalues --    0.98814   1.01161   1.03145   1.03811   1.05996
 Alpha virt. eigenvalues --    1.08218   1.13859   1.16641   1.20032   1.21784
 Alpha virt. eigenvalues --    1.23200   1.26416   1.32927   1.35192   1.37869
 Alpha virt. eigenvalues --    1.42147   1.47054   1.48697   1.51870   1.57308
 Alpha virt. eigenvalues --    1.66452   1.68651   1.80242   1.89059   1.92840
 Alpha virt. eigenvalues --    1.96244   2.00999   2.02396   2.07855   2.12713
 Alpha virt. eigenvalues --    2.14679   2.15435   2.17304   2.20542   2.23596
 Alpha virt. eigenvalues --    2.24749   2.26758   2.28229   2.28746   2.29943
 Alpha virt. eigenvalues --    2.35567   2.36407   2.43217   2.43614   2.44618
 Alpha virt. eigenvalues --    2.46010   2.46121   2.49378   2.53318   2.54174
 Alpha virt. eigenvalues --    2.56989   2.59592   2.64290   2.65371   2.68249
 Alpha virt. eigenvalues --    2.70196   2.72203   2.74681   2.81625   2.85262
 Alpha virt. eigenvalues --    2.92167   3.02142   3.08770   3.10674   3.59353
 Alpha virt. eigenvalues --    3.61924   3.88133   3.90907   3.98568   4.07795
 Alpha virt. eigenvalues --    4.13718   4.15941   4.17688   4.22232   4.26076
 Alpha virt. eigenvalues --    4.30671   4.47629   4.49313   4.54324   4.67081
 Alpha virt. eigenvalues --    4.88440   4.94172   4.96218   5.12984   5.14145
 Alpha virt. eigenvalues --    5.18434   5.41974   5.82729   6.02062   6.11669
 Alpha virt. eigenvalues --    6.17322   6.26252   6.28044   6.43698   6.46147
 Alpha virt. eigenvalues --    6.56831   6.75687   6.76501   6.79243   6.82512
 Alpha virt. eigenvalues --    6.86192   6.87711   6.89800   6.96116   6.98736
 Alpha virt. eigenvalues --    7.05795   7.11446   7.21710   7.43525   7.58919
 Alpha virt. eigenvalues --    7.77800   8.08311   8.10852  14.06056  14.66422
          Condensed to atoms (all electrons):
              1          2          3          4          5
     1  O    8.195542  -0.182791   0.208847   0.006416  -0.017020
     2  O   -0.182791   8.291915   0.011610   0.165390  -0.019907
     3  H    0.208847   0.011610   0.558650   0.001449  -0.001780
     4  H    0.006416   0.165390   0.001449   0.580647  -0.004226
     5  Kr  -0.017020  -0.019907  -0.001780  -0.004226  36.037268
 Mulliken atomic charges:
              1
     1  O   -0.210994
     2  O   -0.266218
     3  H    0.221224
     4  H    0.250323
     5  Kr   0.005665
 Sum of Mulliken atomic charges =   0.00000
 Mulliken charges with hydrogens summed into heavy atoms:
              1
     1  O    0.010230
     2  O   -0.015894
     5  Kr   0.005665
 Sum of Mulliken charges with hydrogens summed into heavy atoms =   0.00000
          Condensed to fragments (all electrons):
     1      -0.005665
     2       0.005665
 Electronic spatial extent (au):  <R**2>=            483.9280
 Charge=              0.0000 electrons
 Dipole moment (field-independent basis, Debye):
    X=             -1.7315    Y=             -0.3968    Z=              1.4603  Tot=              2.2996
 Quadrupole moment (field-independent basis, Debye-Ang):
   XX=            -34.5773   YY=            -27.8404   ZZ=            -28.9708
   XY=             -2.2588   XZ=              3.1863   YZ=             -1.8182
 Traceless Quadrupole moment (field-independent basis, Debye-Ang):
   XX=             -4.1145   YY=              2.6224   ZZ=              1.4920
   XY=             -2.2588   XZ=              3.1863   YZ=             -1.8182
 Octapole moment (field-independent basis, Debye-Ang**2):
  XXX=            -33.7983  YYY=             -1.0826  ZZZ=              1.1464  XYY=             -4.9775
  XXY=             -7.1004  XXZ=              6.2639  XZZ=             -5.2951  YZZ=             -1.8866
  YYZ=              2.2533  XYZ=             -3.8746
 Hexadecapole moment (field-independent basis, Debye-Ang**3):
 XXXX=           -449.1471 YYYY=            -62.7705 ZZZZ=            -29.6727 XXXY=            -15.2368
 XXXZ=             13.8186 YYYX=             -4.1432 YYYZ=             -2.6545 ZZZX=              2.9141
 ZZZY=             -1.9577 XXYY=            -80.0361 XXZZ=            -71.4852 YYZZ=            -15.8269
 XXYZ=             -8.3551 YYXZ=              4.6499 ZZXY=             -3.6373
 N-N= 1.493707443132D+02 E-N=-7.236949631312D+03  KE= 2.900987736777D+03
 No NMR shielding tensors so no spin-rotation constants.
 Leave Link  601 at Sat May  9 19:13:48 2020, MaxMem= 1073741824 cpu:       0.8
 (Enter /home/matheus/.gaussian/g09/l122.exe)
 Counterpoise: doing DCBS calculation for fragment   1 NewBq=T
 Leave Link  122 at Sat May  9 19:13:48 2020, MaxMem= 1073741824 cpu:       0.0
 (Enter /home/matheus/.gaussian/g09/l301.exe)
 Basis read from rwf:  (5D, 7F)
 No pseudopotential information found on rwf file.
 There are   197 symmetry adapted basis functions of A   symmetry.
 Integral buffers will be    131072 words long.
 Raffenetti 2 integral format.
 Two-electron integral symmetry is turned on.
   197 basis functions,   415 primitive gaussians,   229 cartesian basis functions
     9 alpha electrons        9 beta electrons
       nuclear repulsion energy        36.6265003879 Hartrees.
 IExCor= 4639 DFT=T Ex+Corr=wB97XD ExCW=0 ScaHFX=  1.000000
 ScaDFX=  1.000000  1.000000  1.000000  1.000000 ScalE2=  1.000000  1.000000
 IRadAn=      5 IRanWt=     -1 IRanGd=            0 ICorTp=0
  HFx wShort=  0.000000 wLong=  0.200000 cFull=  0.222036 cShort=  0.000000 cLong=  0.777964
  DFx wShort=  0.000000 wLong=  0.200000 cFull=  0.000000 cShort=  0.000000 cLong=  1.000000
 NAtoms=    5 NActive=    5 NUniq=    5 SFac= 1.00D+00 NAtFMM=   60 NAOKFM=F Big=F
 R6Disp: Dispersion energy =        -0.0002523317 Hartrees.
 Nuclear repulsion after empirical dispersion term =       36.6262480562 Hartrees.
 No density basis found on file   718.
 Leave Link  301 at Sat May  9 19:13:48 2020, MaxMem= 1073741824 cpu:       0.2
 (Enter /home/matheus/.gaussian/g09/l302.exe)
 NPDir=0 NMtPBC=     1 NCelOv=     1 NCel=       1 NClECP=     1 NCelD=      1
         NCelK=      1 NCelE2=     1 NClLst=     1 CellRange=     0.0.
 One-electron integrals computed using PRISM.
 NBasis=   197 RedAO= T  NBF=   197
 NBsUse=   197 1.00D-06 NBFU=   197
 Precomputing XC quadrature grid using
 IXCGrd= 2 IRadAn=           5 IRanWt=          -1 IRanGd=           0 AccXCQ= 0.00D+00.
 NRdTot=     427 NPtTot=      123512 NUsed=      126579 NTot=      126611
 NSgBfM=   229   229   229   229   229 NAtAll=     5     5.
 Leave Link  302 at Sat May  9 19:13:48 2020, MaxMem= 1073741824 cpu:       1.0
 (Enter /home/matheus/.gaussian/g09/l303.exe)
 DipDrv:  MaxL=1.
 Leave Link  303 at Sat May  9 19:13:48 2020, MaxMem= 1073741824 cpu:       0.2
 (Enter /home/matheus/.gaussian/g09/l401.exe)
 Harris functional with IExCor= 4639 diagonalized for initial guess.
 ExpMin= 2.53D-02 ExpMax= 1.17D+07 ExpMxC= 1.33D+04 IAcc=3 IRadAn=         5 AccDes= 0.00D+00
 HarFok:  IExCor= 4639 AccDes= 0.00D+00 IRadAn=         5 IDoV= 1
 ScaDFX=  1.000000  1.000000  1.000000  1.000000
 FoFCou: FMM=F IPFlag=           0 FMFlag=      100000 FMFlg1=           0
         NFxFlg=           0 DoJE=T BraDBF=F KetDBF=T FulRan=T
         Omega=  0.000000  0.000000  1.000000  0.000000  0.000000 ICntrl=     500 IOpCl=  0
         NMat0=    1 NMatS0=    1 NMatT0=    0 NMatD0=    1 NMtDS0=    0 NMtDT0=    0
         I1Cent=           4 NGrid=           0.
 Petite list used in FoFCou.
 Harris En= -146.295936843089    
 Initial guess orbital symmetries:
       Occupied  (A) (A) (A) (A) (A) (A) (A) (A) (A)
       Virtual   (A) (A) (A) (A) (A) (A) (A) (A) (A) (A) (A) (A)
                 (A) (A) (A) (A) (A) (A) (A) (A) (A) (A) (A) (A)
                 (A) (A) (A) (A) (A) (A) (A) (A) (A) (A) (A) (A)
                 (A) (A) (A) (A) (A) (A) (A) (A) (A) (A) (A) (A)
                 (A) (A) (A) (A) (A) (A) (A) (A) (A) (A) (A) (A)
                 (A) (A) (A) (A) (A) (A) (A) (A) (A) (A) (A) (A)
                 (A) (A) (A) (A) (A) (A) (A) (A) (A) (A) (A) (A)
                 (A) (A) (A) (A) (A) (A) (A) (A) (A) (A) (A) (A)
                 (A) (A) (A) (A) (A) (A) (A) (A) (A) (A) (A) (A)
                 (A) (A) (A) (A) (A) (A) (A) (A) (A) (A) (A) (A)
                 (A) (A) (A) (A) (A) (A) (A) (A) (A) (A) (A) (A)
                 (A) (A) (A) (A) (A) (A) (A) (A) (A) (A) (A) (A)
                 (A) (A) (A) (A) (A) (A) (A) (A) (A) (A) (A) (A)
                 (A) (A) (A) (A) (A) (A) (A) (A) (A) (A) (A) (A)
                 (A) (A) (A) (A) (A) (A) (A) (A) (A) (A) (A) (A)
                 (A) (A) (A) (A) (A) (A) (A) (A)
 The electronic state of the initial guess is 1-A.
 Leave Link  401 at Sat May  9 19:13:49 2020, MaxMem= 1073741824 cpu:       4.3
 (Enter /home/matheus/.gaussian/g09/l502.exe)
 Closed shell SCF:
 Requested convergence on RMS density matrix=1.00D-08 within 128 cycles.
 Requested convergence on MAX density matrix=1.00D-06.
 Requested convergence on             energy=1.00D-06.
 No special actions if energy rises.
 Using DIIS extrapolation, IDIIS=  1040.
 Integral symmetry usage will be decided dynamically.
       126521 words used for storage of precomputed grid.
 IEnd=      305468 IEndB=      305468 NGot=  1073741824 MDV=  1073505667
 LenX=  1073505667 LenY=  1073452785
 Fock matrices will be formed incrementally for  20 cycles.

 Cycle   1  Pass 1  IDiag  1:
 FoFJK:  IHMeth= 1 ICntrl=     0 DoSepK=T KAlg= 1 I1Cent= 0 FoldK=F
 FoFCou: FMM=F IPFlag=           0 FMFlag=      100000 FMFlg1=           0
         NFxFlg=           0 DoJE=T BraDBF=F KetDBF=F FulRan=T
         Omega=  0.000000  0.000000  1.000000  0.000000  0.000000 ICntrl=     500 IOpCl=  0
         NMat0=    1 NMatS0=    1 NMatT0=    0 NMatD0=    1 NMtDS0=    0 NMtDT0=    0
         I1Cent=           0 NGrid=           0.
 Symmetry not used in FoFCou.
 E= -151.478032588177    
 DIIS: error= 3.98D-02 at cycle   1 NSaved=   1.
 NSaved= 1 IEnMin= 1 EnMin= -151.478032588177     IErMin= 1 ErrMin= 3.98D-02
 ErrMax= 3.98D-02 EMaxC= 1.00D-01 BMatC= 3.02D-01 BMatP= 3.02D-01
 IDIUse=3 WtCom= 6.02D-01 WtEn= 3.98D-01
 Coeff-Com:  0.100D+01
 Coeff-En:   0.100D+01
 Coeff:      0.100D+01
 Gap=     0.534 Goal=   None    Shift=    0.000
 GapD=    0.534 DampG=2.000 DampE=0.500 DampFc=1.0000 IDamp=-1.
 RMSDP=2.46D-03 MaxDP=1.13D-01              OVMax= 1.07D-01

 Cycle   2  Pass 1  IDiag  1:
 RMSU=  1.70D-03    CP:  9.47D-01
 FoFJK:  IHMeth= 1 ICntrl=     0 DoSepK=T KAlg= 1 I1Cent= 0 FoldK=F
 E= -151.508658236550     Delta-E=       -0.030625648373 Rises=F Damp=F
 DIIS: error= 1.49D-02 at cycle   2 NSaved=   2.
 NSaved= 2 IEnMin= 2 EnMin= -151.508658236550     IErMin= 2 ErrMin= 1.49D-02
 ErrMax= 1.49D-02 EMaxC= 1.00D-01 BMatC= 9.09D-02 BMatP= 3.02D-01
 IDIUse=3 WtCom= 8.51D-01 WtEn= 1.49D-01
 Coeff-Com:  0.332D+00 0.668D+00
 Coeff-En:   0.362D+00 0.638D+00
 Coeff:      0.336D+00 0.664D+00
 Gap=     0.480 Goal=   None    Shift=    0.000
 RMSDP=1.03D-03 MaxDP=5.02D-02 DE=-3.06D-02 OVMax= 6.03D-02

 Cycle   3  Pass 1  IDiag  1:
 RMSU=  3.64D-04    CP:  9.70D-01  6.40D-01
 FoFJK:  IHMeth= 1 ICntrl=     0 DoSepK=T KAlg= 1 I1Cent= 0 FoldK=F
 E= -151.557276679980     Delta-E=       -0.048618443430 Rises=F Damp=F
 DIIS: error= 4.97D-03 at cycle   3 NSaved=   3.
 NSaved= 3 IEnMin= 3 EnMin= -151.557276679980     IErMin= 3 ErrMin= 4.97D-03
 ErrMax= 4.97D-03 EMaxC= 1.00D-01 BMatC= 6.95D-03 BMatP= 9.09D-02
 IDIUse=3 WtCom= 9.50D-01 WtEn= 4.97D-02
 Coeff-Com:  0.151D-01 0.226D+00 0.759D+00
 Coeff-En:   0.000D+00 0.000D+00 0.100D+01
 Coeff:      0.144D-01 0.215D+00 0.771D+00
 Gap=     0.426 Goal=   None    Shift=    0.000
 RMSDP=2.90D-04 MaxDP=1.21D-02 DE=-4.86D-02 OVMax= 1.71D-02

 Cycle   4  Pass 1  IDiag  1:
 RMSU=  6.56D-05    CP:  9.64D-01  7.43D-01  8.01D-01
 FoFJK:  IHMeth= 1 ICntrl=     0 DoSepK=T KAlg= 1 I1Cent= 0 FoldK=F
 E= -151.561752645208     Delta-E=       -0.004475965228 Rises=F Damp=F
 DIIS: error= 5.57D-04 at cycle   4 NSaved=   4.
 NSaved= 4 IEnMin= 4 EnMin= -151.561752645208     IErMin= 4 ErrMin= 5.57D-04
 ErrMax= 5.57D-04 EMaxC= 1.00D-01 BMatC= 7.64D-05 BMatP= 6.95D-03
 IDIUse=3 WtCom= 9.94D-01 WtEn= 5.57D-03
 Coeff-Com:  0.155D-03 0.239D-01 0.161D+00 0.815D+00
 Coeff-En:   0.000D+00 0.000D+00 0.000D+00 0.100D+01
 Coeff:      0.154D-03 0.238D-01 0.160D+00 0.816D+00
 Gap=     0.423 Goal=   None    Shift=    0.000
 RMSDP=3.77D-05 MaxDP=2.15D-03 DE=-4.48D-03 OVMax= 1.79D-03

 Cycle   5  Pass 1  IDiag  1:
 RMSU=  1.29D-05    CP:  9.65D-01  7.36D-01  8.46D-01  1.09D+00
 FoFJK:  IHMeth= 1 ICntrl=     0 DoSepK=T KAlg= 1 I1Cent= 0 FoldK=F
 E= -151.561806311181     Delta-E=       -0.000053665973 Rises=F Damp=F
 DIIS: error= 3.98D-05 at cycle   5 NSaved=   5.
 NSaved= 5 IEnMin= 5 EnMin= -151.561806311181     IErMin= 5 ErrMin= 3.98D-05
 ErrMax= 3.98D-05 EMaxC= 1.00D-01 BMatC= 6.98D-07 BMatP= 7.64D-05
 IDIUse=1 WtCom= 1.00D+00 WtEn= 0.00D+00
 Coeff-Com: -0.624D-03-0.109D-01-0.371D-01-0.603D-01 0.111D+01
 Coeff:     -0.624D-03-0.109D-01-0.371D-01-0.603D-01 0.111D+01
 Gap=     0.423 Goal=   None    Shift=    0.000
 RMSDP=1.05D-05 MaxDP=3.94D-04 DE=-5.37D-05 OVMax= 7.06D-04

 Cycle   6  Pass 1  IDiag  1:
 RMSU=  2.54D-06    CP:  9.65D-01  7.35D-01  8.56D-01  1.16D+00  1.27D+00
 FoFJK:  IHMeth= 1 ICntrl=     0 DoSepK=T KAlg= 1 I1Cent= 0 FoldK=F
 E= -151.561807945417     Delta-E=       -0.000001634236 Rises=F Damp=F
 DIIS: error= 9.51D-06 at cycle   6 NSaved=   6.
 NSaved= 6 IEnMin= 6 EnMin= -151.561807945417     IErMin= 6 ErrMin= 9.51D-06
 ErrMax= 9.51D-06 EMaxC= 1.00D-01 BMatC= 2.69D-08 BMatP= 6.98D-07
 IDIUse=1 WtCom= 1.00D+00 WtEn= 0.00D+00
 Coeff-Com:  0.240D-04-0.442D-03-0.464D-02-0.234D-01-0.323D-03 0.103D+01
 Coeff:      0.240D-04-0.442D-03-0.464D-02-0.234D-01-0.323D-03 0.103D+01
 Gap=     0.423 Goal=   None    Shift=    0.000
 RMSDP=1.72D-06 MaxDP=6.23D-05 DE=-1.63D-06 OVMax= 1.86D-04

 Cycle   7  Pass 1  IDiag  1:
 RMSU=  5.57D-07    CP:  9.65D-01  7.35D-01  8.57D-01  1.17D+00  1.31D+00
                    CP:  1.32D+00
 FoFJK:  IHMeth= 1 ICntrl=     0 DoSepK=T KAlg= 1 I1Cent= 0 FoldK=F
 E= -151.561808025262     Delta-E=       -0.000000079845 Rises=F Damp=F
 DIIS: error= 3.56D-06 at cycle   7 NSaved=   7.
 NSaved= 7 IEnMin= 7 EnMin= -151.561808025262     IErMin= 7 ErrMin= 3.56D-06
 ErrMax= 3.56D-06 EMaxC= 1.00D-01 BMatC= 2.82D-09 BMatP= 2.69D-08
 IDIUse=1 WtCom= 1.00D+00 WtEn= 0.00D+00
 Coeff-Com:  0.157D-04 0.353D-03 0.151D-02 0.181D-02-0.378D-01-0.103D+00
 Coeff-Com:  0.114D+01
 Coeff:      0.157D-04 0.353D-03 0.151D-02 0.181D-02-0.378D-01-0.103D+00
 Coeff:      0.114D+01
 Gap=     0.423 Goal=   None    Shift=    0.000
 RMSDP=5.78D-07 MaxDP=2.17D-05 DE=-7.98D-08 OVMax= 7.67D-05

 Cycle   8  Pass 1  IDiag  1:
 RMSU=  2.12D-07    CP:  9.65D-01  7.35D-01  8.57D-01  1.17D+00  1.32D+00
                    CP:  1.41D+00  1.38D+00
 FoFJK:  IHMeth= 1 ICntrl=     0 DoSepK=T KAlg= 1 I1Cent= 0 FoldK=F
 E= -151.561808032806     Delta-E=       -0.000000007544 Rises=F Damp=F
 DIIS: error= 2.81D-06 at cycle   8 NSaved=   8.
 NSaved= 8 IEnMin= 8 EnMin= -151.561808032806     IErMin= 8 ErrMin= 2.81D-06
 ErrMax= 2.81D-06 EMaxC= 1.00D-01 BMatC= 2.38D-09 BMatP= 2.82D-09
 IDIUse=1 WtCom= 1.00D+00 WtEn= 0.00D+00
 Coeff-Com:  0.548D-05 0.239D-03 0.137D-02 0.343D-02-0.185D-01-0.193D+00
 Coeff-Com:  0.672D+00 0.534D+00
 Coeff:      0.548D-05 0.239D-03 0.137D-02 0.343D-02-0.185D-01-0.193D+00
 Coeff:      0.672D+00 0.534D+00
 Gap=     0.423 Goal=   None    Shift=    0.000
 RMSDP=1.83D-07 MaxDP=8.48D-06 DE=-7.54D-09 OVMax= 2.05D-05

 Cycle   9  Pass 1  IDiag  1:
 RMSU=  9.25D-08    CP:  9.65D-01  7.35D-01  8.57D-01  1.17D+00  1.32D+00
                    CP:  1.42D+00  1.51D+00  9.33D-01
 FoFJK:  IHMeth= 1 ICntrl=     0 DoSepK=T KAlg= 1 I1Cent= 0 FoldK=F
 E= -151.561808034806     Delta-E=       -0.000000002000 Rises=F Damp=F
 DIIS: error= 4.43D-07 at cycle   9 NSaved=   9.
 NSaved= 9 IEnMin= 9 EnMin= -151.561808034806     IErMin= 9 ErrMin= 4.43D-07
 ErrMax= 4.43D-07 EMaxC= 1.00D-01 BMatC= 9.13D-11 BMatP= 2.38D-09
 IDIUse=1 WtCom= 1.00D+00 WtEn= 0.00D+00
 Coeff-Com: -0.709D-06-0.107D-04-0.216D-04-0.454D-04 0.530D-02-0.267D-01
 Coeff-Com: -0.499D-01 0.109D+00 0.962D+00
 Coeff:     -0.709D-06-0.107D-04-0.216D-04-0.454D-04 0.530D-02-0.267D-01
 Coeff:     -0.499D-01 0.109D+00 0.962D+00
 Gap=     0.423 Goal=   None    Shift=    0.000
 RMSDP=9.28D-08 MaxDP=1.76D-06 DE=-2.00D-09 OVMax= 1.23D-05

 Cycle  10  Pass 1  IDiag  1:
 RMSU=  1.85D-08    CP:  9.65D-01  7.35D-01  8.57D-01  1.17D+00  1.32D+00
                    CP:  1.42D+00  1.56D+00  1.16D+00  1.27D+00
 FoFJK:  IHMeth= 1 ICntrl=     0 DoSepK=T KAlg= 1 I1Cent= 0 FoldK=F
 E= -151.561808035011     Delta-E=       -0.000000000204 Rises=F Damp=F
 DIIS: error= 1.20D-07 at cycle  10 NSaved=  10.
 NSaved=10 IEnMin=10 EnMin= -151.561808035011     IErMin=10 ErrMin= 1.20D-07
 ErrMax= 1.20D-07 EMaxC= 1.00D-01 BMatC= 7.22D-12 BMatP= 9.13D-11
 IDIUse=1 WtCom= 1.00D+00 WtEn= 0.00D+00
 Coeff-Com: -0.122D-06-0.188D-04-0.140D-03-0.454D-03 0.221D-02 0.166D-01
 Coeff-Com: -0.665D-01-0.571D-01-0.420D-01 0.115D+01
 Coeff:     -0.122D-06-0.188D-04-0.140D-03-0.454D-03 0.221D-02 0.166D-01
 Coeff:     -0.665D-01-0.571D-01-0.420D-01 0.115D+01
 Gap=     0.423 Goal=   None    Shift=    0.000
 RMSDP=3.75D-08 MaxDP=7.48D-07 DE=-2.04D-10 OVMax= 5.24D-06

 Cycle  11  Pass 1  IDiag  1:
 RMSU=  6.47D-09    CP:  9.65D-01  7.35D-01  8.57D-01  1.17D+00  1.32D+00
                    CP:  1.42D+00  1.59D+00  1.23D+00  1.42D+00  1.46D+00
 FoFJK:  IHMeth= 1 ICntrl=     0 DoSepK=T KAlg= 1 I1Cent= 0 FoldK=F
 E= -151.561808035035     Delta-E=       -0.000000000024 Rises=F Damp=F
 DIIS: error= 2.97D-08 at cycle  11 NSaved=  11.
 NSaved=11 IEnMin=11 EnMin= -151.561808035035     IErMin=11 ErrMin= 2.97D-08
 ErrMax= 2.97D-08 EMaxC= 1.00D-01 BMatC= 2.43D-13 BMatP= 7.22D-12
 IDIUse=1 WtCom= 1.00D+00 WtEn= 0.00D+00
 Coeff-Com: -0.775D-07-0.135D-05-0.391D-05-0.191D-04-0.114D-03 0.113D-02
 Coeff-Com:  0.531D-02-0.438D-02-0.555D-01-0.222D-01 0.108D+01
 Coeff:     -0.775D-07-0.135D-05-0.391D-05-0.191D-04-0.114D-03 0.113D-02
 Coeff:      0.531D-02-0.438D-02-0.555D-01-0.222D-01 0.108D+01
 Gap=     0.423 Goal=   None    Shift=    0.000
 RMSDP=7.67D-09 MaxDP=2.42D-07 DE=-2.44D-11 OVMax= 8.64D-07

 SCF Done:  E(RwB97XD) =  -151.561808035     A.U. after   11 cycles
             Convg  =    0.7672D-08             -V/T =  2.0059
 KE= 1.506774783767D+02 PE=-4.317414896359D+02 EE= 9.287595516801D+01
 Leave Link  502 at Sat May  9 19:14:26 2020, MaxMem= 1073741824 cpu:     297.0
 (Enter /home/matheus/.gaussian/g09/l601.exe)
 Copying SCF densities to generalized density rwf, IOpCl= 0 IROHF=0.

 **********************************************************************

            Population analysis using the SCF density.

 **********************************************************************

 Orbital symmetries:
       Occupied  (A) (A) (A) (A) (A) (A) (A) (A) (A)
       Virtual   (A) (A) (A) (A) (A) (A) (A) (A) (A) (A) (A) (A)
                 (A) (A) (A) (A) (A) (A) (A) (A) (A) (A) (A) (A)
                 (A) (A) (A) (A) (A) (A) (A) (A) (A) (A) (A) (A)
                 (A) (A) (A) (A) (A) (A) (A) (A) (A) (A) (A) (A)
                 (A) (A) (A) (A) (A) (A) (A) (A) (A) (A) (A) (A)
                 (A) (A) (A) (A) (A) (A) (A) (A) (A) (A) (A) (A)
                 (A) (A) (A) (A) (A) (A) (A) (A) (A) (A) (A) (A)
                 (A) (A) (A) (A) (A) (A) (A) (A) (A) (A) (A) (A)
                 (A) (A) (A) (A) (A) (A) (A) (A) (A) (A) (A) (A)
                 (A) (A) (A) (A) (A) (A) (A) (A) (A) (A) (A) (A)
                 (A) (A) (A) (A) (A) (A) (A) (A) (A) (A) (A) (A)
                 (A) (A) (A) (A) (A) (A) (A) (A) (A) (A) (A) (A)
                 (A) (A) (A) (A) (A) (A) (A) (A) (A) (A) (A) (A)
                 (A) (A) (A) (A) (A) (A) (A) (A) (A) (A) (A) (A)
                 (A) (A) (A) (A) (A) (A) (A) (A) (A) (A) (A) (A)
                 (A) (A) (A) (A) (A) (A) (A) (A)
 The electronic state is 1-A.
 Alpha  occ. eigenvalues --  -19.32058 -19.32052  -1.22423  -1.01189  -0.65413
 Alpha  occ. eigenvalues --   -0.56686  -0.51760  -0.39901  -0.39450
 Alpha virt. eigenvalues --    0.02802   0.03767   0.07121   0.08587   0.09240
 Alpha virt. eigenvalues --    0.10727   0.10764   0.14030   0.17015   0.17599
 Alpha virt. eigenvalues --    0.18319   0.19061   0.20834   0.23023   0.25094
 Alpha virt. eigenvalues --    0.27006   0.30912   0.31653   0.32298   0.33942
 Alpha virt. eigenvalues --    0.34283   0.37629   0.37801   0.38923   0.40315
 Alpha virt. eigenvalues --    0.43374   0.44747   0.46624   0.48054   0.49775
 Alpha virt. eigenvalues --    0.52760   0.57873   0.59904   0.61208   0.64632
 Alpha virt. eigenvalues --    0.69367   0.72951   0.74546   0.76130   0.77750
 Alpha virt. eigenvalues --    0.79454   0.79984   0.87741   0.88013   0.89588
 Alpha virt. eigenvalues --    0.90223   0.92093   0.93426   0.95291   0.95892
 Alpha virt. eigenvalues --    0.98972   0.99777   1.03807   1.08343   1.11856
 Alpha virt. eigenvalues --    1.13808   1.15650   1.20197   1.21212   1.23038
 Alpha virt. eigenvalues --    1.25540   1.28703   1.30074   1.31715   1.32902
 Alpha virt. eigenvalues --    1.34250   1.34885   1.37852   1.38337   1.41252
 Alpha virt. eigenvalues --    1.43905   1.46927   1.48012   1.50888   1.54427
 Alpha virt. eigenvalues --    1.58357   1.64749   1.66248   1.69615   1.76919
 Alpha virt. eigenvalues --    1.80606   1.84310   1.91697   1.94446   2.01262
 Alpha virt. eigenvalues --    2.02473   2.04613   2.13346   2.17447   2.21170
 Alpha virt. eigenvalues --    2.24217   2.27302   2.32720   2.34593   2.35770
 Alpha virt. eigenvalues --    2.44908   2.50082   2.52346   2.58547   2.61248
 Alpha virt. eigenvalues --    2.64960   2.68357   2.77589   2.83275   2.91112
 Alpha virt. eigenvalues --    3.00870   3.07603   3.08711   3.26669   3.30683
 Alpha virt. eigenvalues --    3.40225   3.53954   3.56743   3.65926   3.78755
 Alpha virt. eigenvalues --    3.79140   3.81901   3.82532   3.83045   3.83837
 Alpha virt. eigenvalues --    3.85934   3.89280   3.91244   3.94424   3.96023
 Alpha virt. eigenvalues --    3.97402   4.00827   4.04973   4.09582   4.15350
 Alpha virt. eigenvalues --    4.17498   4.18400   4.23369   4.28043   4.33396
 Alpha virt. eigenvalues --    4.38564   4.48820   4.55501   4.67044   4.88561
 Alpha virt. eigenvalues --    4.94299   4.96383   5.12883   5.14455   5.18690
 Alpha virt. eigenvalues --    5.41805   5.82619   6.01627   6.11700   6.17180
 Alpha virt. eigenvalues --    6.26204   6.27981   6.43630   6.46080   6.56680
 Alpha virt. eigenvalues --    6.75570   6.76211   6.78874   6.82265   6.86082
 Alpha virt. eigenvalues --    6.87431   6.89577   6.95917   6.98538   7.05647
 Alpha virt. eigenvalues --    7.11225   7.21558   7.43355   7.58724   7.77541
 Alpha virt. eigenvalues --    8.07969   8.10124  10.88662  14.05636  14.65793
 Alpha virt. eigenvalues --   14.84259  14.88718  15.10391  29.03975  29.04081
 Alpha virt. eigenvalues --   29.08827  29.14079  29.23782  49.10063 148.32416
 Alpha virt. eigenvalues --  148.39093 148.71220 752.47963
          Condensed to atoms (all electrons):
              1          2          3          4          5
     1  O    8.176471  -0.174212   0.202756   0.003815   0.000729
     2  O   -0.174212   8.225018   0.011304   0.184352  -0.001940
     3  H    0.202756   0.011304   0.571404   0.003234  -0.001623
     4  H    0.003815   0.184352   0.003234   0.577015  -0.004037
     5  Kr   0.000729  -0.001940  -0.001623  -0.004037   0.001339
 Mulliken atomic charges:
              1
     1  O   -0.209557
     2  O   -0.244521
     3  H    0.212926
     4  H    0.235621
     5  Kr   0.005532
 Sum of Mulliken atomic charges =   0.00000
 Mulliken charges with hydrogens summed into heavy atoms:
              1
     1  O    0.003369
     2  O   -0.008900
     5  Kr   0.005532
 Sum of Mulliken charges with hydrogens summed into heavy atoms =   0.00000
          Condensed to fragments (all electrons):
     1      -0.005532
     2       0.005532
 Electronic spatial extent (au):  <R**2>=            320.4541
 Charge=              0.0000 electrons
 Dipole moment (field-independent basis, Debye):
    X=             -1.5278    Y=             -0.1640    Z=              1.5733  Tot=              2.1992
 Quadrupole moment (field-independent basis, Debye-Ang):
   XX=            -17.0103   YY=            -10.2207   ZZ=            -11.4111
   XY=             -2.3850   XZ=              3.1035   YZ=             -1.8335
 Traceless Quadrupole moment (field-independent basis, Debye-Ang):
   XX=             -4.1296   YY=              2.6600   ZZ=              1.4696
   XY=             -2.3850   XZ=              3.1035   YZ=             -1.8335
 Octapole moment (field-independent basis, Debye-Ang**2):
  XXX=            -84.5595  YYY=             -1.3000  ZZZ=              1.3270  XYY=            -22.1121
  XXY=             -6.9592  XXZ=              6.3822  XZZ=            -22.4693  YZZ=             -1.9612
  YYZ=              2.3135  XYZ=             -3.8803
 Hexadecapole moment (field-independent basis, Debye-Ang**3):
 XXXX=           -328.0101 YYYY=            -44.5022 ZZZZ=            -11.5050 XXXY=            -14.8307
 XXXZ=             13.6136 YYYX=             -3.9132 YYYZ=             -2.6852 ZZZX=              2.7891
 ZZZY=             -1.9869 XXYY=            -56.8499 XXZZ=            -48.4182 YYZZ=             -9.7446
 XXYZ=             -8.3740 YYXZ=              4.5966 ZZXY=             -3.5252
 N-N= 3.662624805622D+01 E-N=-4.317414897935D+02  KE= 1.506774783767D+02
 No NMR shielding tensors so no spin-rotation constants.
 Leave Link  601 at Sat May  9 19:14:26 2020, MaxMem= 1073741824 cpu:       0.7
 (Enter /home/matheus/.gaussian/g09/l122.exe)
 Counterpoise: doing DCBS calculation for fragment   2 NewBq=T
 Leave Link  122 at Sat May  9 19:14:26 2020, MaxMem= 1073741824 cpu:       0.0
 (Enter /home/matheus/.gaussian/g09/l301.exe)
 Basis read from rwf:  (5D, 7F)
 No pseudopotential information found on rwf file.
 There are   197 symmetry adapted basis functions of A   symmetry.
 Integral buffers will be    131072 words long.
 Raffenetti 2 integral format.
 Two-electron integral symmetry is turned on.
   197 basis functions,   415 primitive gaussians,   229 cartesian basis functions
    18 alpha electrons       18 beta electrons
       nuclear repulsion energy         0.0000000000 Hartrees.
 IExCor= 4639 DFT=T Ex+Corr=wB97XD ExCW=0 ScaHFX=  1.000000
 ScaDFX=  1.000000  1.000000  1.000000  1.000000 ScalE2=  1.000000  1.000000
 IRadAn=      5 IRanWt=     -1 IRanGd=            0 ICorTp=0
  HFx wShort=  0.000000 wLong=  0.200000 cFull=  0.222036 cShort=  0.000000 cLong=  0.777964
  DFx wShort=  0.000000 wLong=  0.200000 cFull=  0.000000 cShort=  0.000000 cLong=  1.000000
 NAtoms=    5 NActive=    5 NUniq=    5 SFac= 1.00D+00 NAtFMM=   60 NAOKFM=F Big=F
 R6Disp: Dispersion energy =         0.0000000000 Hartrees.
 Nuclear repulsion after empirical dispersion term =        0.0000000000 Hartrees.
 No density basis found on file   718.
 Leave Link  301 at Sat May  9 19:14:26 2020, MaxMem= 1073741824 cpu:       0.2
 (Enter /home/matheus/.gaussian/g09/l302.exe)
 NPDir=0 NMtPBC=     1 NCelOv=     1 NCel=       1 NClECP=     1 NCelD=      1
         NCelK=      1 NCelE2=     1 NClLst=     1 CellRange=     0.0.
 One-electron integrals computed using PRISM.
 NBasis=   197 RedAO= T  NBF=   197
 NBsUse=   197 1.00D-06 NBFU=   197
 Precomputing XC quadrature grid using
 IXCGrd= 2 IRadAn=           5 IRanWt=          -1 IRanGd=           0 AccXCQ= 0.00D+00.
 NRdTot=     427 NPtTot=      123512 NUsed=      126579 NTot=      126611
 NSgBfM=   229   229   229   229   229 NAtAll=     5     5.
 Leave Link  302 at Sat May  9 19:14:26 2020, MaxMem= 1073741824 cpu:       1.0
 (Enter /home/matheus/.gaussian/g09/l303.exe)
 DipDrv:  MaxL=1.
 Leave Link  303 at Sat May  9 19:14:27 2020, MaxMem= 1073741824 cpu:       0.2
 (Enter /home/matheus/.gaussian/g09/l401.exe)
 Harris functional with IExCor= 4639 diagonalized for initial guess.
 ExpMin= 2.53D-02 ExpMax= 1.17D+07 ExpMxC= 1.33D+04 IAcc=3 IRadAn=         5 AccDes= 0.00D+00
 HarFok:  IExCor= 4639 AccDes= 0.00D+00 IRadAn=         5 IDoV= 1
 ScaDFX=  1.000000  1.000000  1.000000  1.000000
 FoFCou: FMM=F IPFlag=           0 FMFlag=      100000 FMFlg1=           0
         NFxFlg=           0 DoJE=T BraDBF=F KetDBF=T FulRan=T
         Omega=  0.000000  0.000000  1.000000  0.000000  0.000000 ICntrl=     500 IOpCl=  0
         NMat0=    1 NMatS0=    1 NMatT0=    0 NMatD0=    1 NMtDS0=    0 NMtDT0=    0
         I1Cent=           4 NGrid=           0.
 Petite list used in FoFCou.
 Harris En= -2730.20432522374    
 Initial guess orbital symmetries:
       Occupied  (A) (A) (A) (A) (A) (A) (A) (A) (A) (A) (A) (A)
                 (A) (A) (A) (A) (A) (A)
       Virtual   (A) (A) (A) (A) (A) (A) (A) (A) (A) (A) (A) (A)
                 (A) (A) (A) (A) (A) (A) (A) (A) (A) (A) (A) (A)
                 (A) (A) (A) (A) (A) (A) (A) (A) (A) (A) (A) (A)
                 (A) (A) (A) (A) (A) (A) (A) (A) (A) (A) (A) (A)
                 (A) (A) (A) (A) (A) (A) (A) (A) (A) (A) (A) (A)
                 (A) (A) (A) (A) (A) (A) (A) (A) (A) (A) (A) (A)
                 (A) (A) (A) (A) (A) (A) (A) (A) (A) (A) (A) (A)
                 (A) (A) (A) (A) (A) (A) (A) (A) (A) (A) (A) (A)
                 (A) (A) (A) (A) (A) (A) (A) (A) (A) (A) (A) (A)
                 (A) (A) (A) (A) (A) (A) (A) (A) (A) (A) (A) (A)
                 (A) (A) (A) (A) (A) (A) (A) (A) (A) (A) (A) (A)
                 (A) (A) (A) (A) (A) (A) (A) (A) (A) (A) (A) (A)
                 (A) (A) (A) (A) (A) (A) (A) (A) (A) (A) (A) (A)
                 (A) (A) (A) (A) (A) (A) (A) (A) (A) (A) (A) (A)
                 (A) (A) (A) (A) (A) (A) (A) (A) (A) (A) (A)
 The electronic state of the initial guess is 1-A.
 Leave Link  401 at Sat May  9 19:14:27 2020, MaxMem= 1073741824 cpu:       4.0
 (Enter /home/matheus/.gaussian/g09/l502.exe)
 Closed shell SCF:
 Requested convergence on RMS density matrix=1.00D-08 within 128 cycles.
 Requested convergence on MAX density matrix=1.00D-06.
 Requested convergence on             energy=1.00D-06.
 No special actions if energy rises.
 Using DIIS extrapolation, IDIIS=  1040.
 Integral symmetry usage will be decided dynamically.
       126521 words used for storage of precomputed grid.
 IEnd=      305468 IEndB=      305468 NGot=  1073741824 MDV=  1073505667
 LenX=  1073505667 LenY=  1073452785
 Fock matrices will be formed incrementally for  20 cycles.

 Cycle   1  Pass 1  IDiag  1:
 FoFJK:  IHMeth= 1 ICntrl=     0 DoSepK=T KAlg= 1 I1Cent= 0 FoldK=F
 FoFCou: FMM=F IPFlag=           0 FMFlag=      100000 FMFlg1=           0
         NFxFlg=           0 DoJE=T BraDBF=F KetDBF=F FulRan=T
         Omega=  0.000000  0.000000  1.000000  0.000000  0.000000 ICntrl=     500 IOpCl=  0
         NMat0=    1 NMatS0=    1 NMatT0=    0 NMatD0=    1 NMtDS0=    0 NMtDT0=    0
         I1Cent=           0 NGrid=           0.
 Symmetry not used in FoFCou.
 E= -2753.46464488542    
 DIIS: error= 6.35D-02 at cycle   1 NSaved=   1.
 NSaved= 1 IEnMin= 1 EnMin= -2753.46464488542     IErMin= 1 ErrMin= 6.35D-02
 ErrMax= 6.35D-02 EMaxC= 1.00D-01 BMatC= 1.87D+00 BMatP= 1.87D+00
 IDIUse=3 WtCom= 3.65D-01 WtEn= 6.35D-01
 Coeff-Com:  0.100D+01
 Coeff-En:   0.100D+01
 Coeff:      0.100D+01
 Gap=     0.634 Goal=   None    Shift=    0.000
 GapD=    0.634 DampG=2.000 DampE=0.500 DampFc=1.0000 IDamp=-1.
 RMSDP=5.57D-03 MaxDP=3.66D-01              OVMax= 1.78D-01

 Cycle   2  Pass 1  IDiag  1:
 RMSU=  3.88D-03    CP:  1.04D+00
 FoFJK:  IHMeth= 1 ICntrl=     0 DoSepK=T KAlg= 1 I1Cent= 0 FoldK=F
 E= -2753.72412778957     Delta-E=       -0.259482904151 Rises=F Damp=F
 DIIS: error= 3.12D-02 at cycle   2 NSaved=   2.
 NSaved= 2 IEnMin= 2 EnMin= -2753.72412778957     IErMin= 2 ErrMin= 3.12D-02
 ErrMax= 3.12D-02 EMaxC= 1.00D-01 BMatC= 4.75D-01 BMatP= 1.87D+00
 IDIUse=3 WtCom= 6.88D-01 WtEn= 3.12D-01
 Coeff-Com:  0.330D+00 0.670D+00
 Coeff-En:   0.183D+00 0.817D+00
 Coeff:      0.284D+00 0.716D+00
 Gap=     0.474 Goal=   None    Shift=    0.000
 RMSDP=2.51D-03 MaxDP=1.59D-01 DE=-2.59D-01 OVMax= 7.89D-02

 Cycle   3  Pass 1  IDiag  1:
 RMSU=  3.66D-04    CP:  1.03D+00  5.58D-01
 FoFJK:  IHMeth= 1 ICntrl=     0 DoSepK=T KAlg= 1 I1Cent= 0 FoldK=F
 E= -2753.87121431605     Delta-E=       -0.147086526474 Rises=F Damp=F
 DIIS: error= 4.29D-03 at cycle   3 NSaved=   3.
 NSaved= 3 IEnMin= 3 EnMin= -2753.87121431605     IErMin= 3 ErrMin= 4.29D-03
 ErrMax= 4.29D-03 EMaxC= 1.00D-01 BMatC= 9.76D-03 BMatP= 4.75D-01
 IDIUse=3 WtCom= 9.57D-01 WtEn= 4.29D-02
 Coeff-Com: -0.519D-02 0.117D+00 0.888D+00
 Coeff-En:   0.000D+00 0.000D+00 0.100D+01
 Coeff:     -0.496D-02 0.112D+00 0.893D+00
 Gap=     0.502 Goal=   None    Shift=    0.000
 RMSDP=2.91D-04 MaxDP=1.66D-02 DE=-1.47D-01 OVMax= 1.24D-02

 Cycle   4  Pass 1  IDiag  1:
 RMSU=  4.33D-05    CP:  1.03D+00  6.08D-01  9.45D-01
 FoFJK:  IHMeth= 1 ICntrl=     0 DoSepK=T KAlg= 1 I1Cent= 0 FoldK=F
 E= -2753.87434485551     Delta-E=       -0.003130539466 Rises=F Damp=F
 DIIS: error= 2.03D-04 at cycle   4 NSaved=   4.
 NSaved= 4 IEnMin= 4 EnMin= -2753.87434485551     IErMin= 4 ErrMin= 2.03D-04
 ErrMax= 2.03D-04 EMaxC= 1.00D-01 BMatC= 1.76D-05 BMatP= 9.76D-03
 IDIUse=3 WtCom= 9.98D-01 WtEn= 2.03D-03
 Coeff-Com: -0.847D-03-0.148D-01-0.496D-01 0.107D+01
 Coeff-En:   0.000D+00 0.000D+00 0.000D+00 0.100D+01
 Coeff:     -0.846D-03-0.148D-01-0.495D-01 0.107D+01
 Gap=     0.499 Goal=   None    Shift=    0.000
 RMSDP=2.28D-05 MaxDP=8.97D-04 DE=-3.13D-03 OVMax= 7.95D-04

 Cycle   5  Pass 1  IDiag  1:
 RMSU=  1.09D-05    CP:  1.03D+00  6.06D-01  9.64D-01  1.12D+00
 FoFJK:  IHMeth= 1 ICntrl=     0 DoSepK=T KAlg= 1 I1Cent= 0 FoldK=F
 E= -2753.87435375613     Delta-E=       -0.000008900616 Rises=F Damp=F
 DIIS: error= 1.45D-05 at cycle   5 NSaved=   5.
 NSaved= 5 IEnMin= 5 EnMin= -2753.87435375613     IErMin= 5 ErrMin= 1.45D-05
 ErrMax= 1.45D-05 EMaxC= 1.00D-01 BMatC= 3.77D-08 BMatP= 1.76D-05
 IDIUse=1 WtCom= 1.00D+00 WtEn= 0.00D+00
 Coeff-Com:  0.116D-03-0.955D-03-0.969D-02-0.204D-01 0.103D+01
 Coeff:      0.116D-03-0.955D-03-0.969D-02-0.204D-01 0.103D+01
 Gap=     0.499 Goal=   None    Shift=    0.000
 RMSDP=2.44D-06 MaxDP=1.10D-04 DE=-8.90D-06 OVMax= 1.83D-04

 Cycle   6  Pass 1  IDiag  1:
 RMSU=  8.70D-07    CP:  1.03D+00  6.06D-01  9.65D-01  1.14D+00  1.08D+00
 FoFJK:  IHMeth= 1 ICntrl=     0 DoSepK=T KAlg= 1 I1Cent= 0 FoldK=F
 E= -2753.87435387342     Delta-E=       -0.000000117288 Rises=F Damp=F
 DIIS: error= 4.38D-06 at cycle   6 NSaved=   6.
 NSaved= 6 IEnMin= 6 EnMin= -2753.87435387342     IErMin= 6 ErrMin= 4.38D-06
 ErrMax= 4.38D-06 EMaxC= 1.00D-01 BMatC= 3.89D-09 BMatP= 3.77D-08
 IDIUse=1 WtCom= 1.00D+00 WtEn= 0.00D+00
 Coeff-Com:  0.624D-05 0.207D-03 0.364D-03-0.355D-01 0.408D-01 0.994D+00
 Coeff:      0.624D-05 0.207D-03 0.364D-03-0.355D-01 0.408D-01 0.994D+00
 Gap=     0.499 Goal=   None    Shift=    0.000
 RMSDP=6.03D-07 MaxDP=2.63D-05 DE=-1.17D-07 OVMax= 2.79D-05

 Cycle   7  Pass 1  IDiag  1:
 RMSU=  9.36D-08    CP:  1.03D+00  6.06D-01  9.66D-01  1.15D+00  1.11D+00
                    CP:  1.21D+00
 FoFJK:  IHMeth= 1 ICntrl=     0 DoSepK=T KAlg= 1 I1Cent= 0 FoldK=F
 E= -2753.87435387763     Delta-E=       -0.000000004218 Rises=F Damp=F
 DIIS: error= 2.41D-07 at cycle   7 NSaved=   7.
 NSaved= 7 IEnMin= 7 EnMin= -2753.87435387763     IErMin= 7 ErrMin= 2.41D-07
 ErrMax= 2.41D-07 EMaxC= 1.00D-01 BMatC= 3.15D-11 BMatP= 3.89D-09
 IDIUse=1 WtCom= 1.00D+00 WtEn= 0.00D+00
 Coeff-Com:  0.482D-06 0.646D-04 0.208D-03-0.830D-02 0.123D-02 0.224D+00
 Coeff-Com:  0.783D+00
 Coeff:      0.482D-06 0.646D-04 0.208D-03-0.830D-02 0.123D-02 0.224D+00
 Coeff:      0.783D+00
 Gap=     0.499 Goal=   None    Shift=    0.000
 RMSDP=4.23D-08 MaxDP=1.27D-06 DE=-4.22D-09 OVMax= 2.42D-06

 Cycle   8  Pass 1  IDiag  1:
 RMSU=  1.68D-08    CP:  1.03D+00  6.06D-01  9.66D-01  1.15D+00  1.11D+00
                    CP:  1.23D+00  1.05D+00
 FoFJK:  IHMeth= 1 ICntrl=     0 DoSepK=T KAlg= 1 I1Cent= 0 FoldK=F
 E= -2753.87435387767     Delta-E=       -0.000000000034 Rises=F Damp=F
 DIIS: error= 5.95D-08 at cycle   8 NSaved=   8.
 NSaved= 8 IEnMin= 8 EnMin= -2753.87435387767     IErMin= 8 ErrMin= 5.95D-08
 ErrMax= 5.95D-08 EMaxC= 1.00D-01 BMatC= 1.48D-12 BMatP= 3.15D-11
 IDIUse=1 WtCom= 1.00D+00 WtEn= 0.00D+00
 Coeff-Com: -0.140D-06-0.377D-05 0.119D-04 0.157D-02-0.218D-02-0.453D-01
 Coeff-Com:  0.538D-01 0.992D+00
 Coeff:     -0.140D-06-0.377D-05 0.119D-04 0.157D-02-0.218D-02-0.453D-01
 Coeff:      0.538D-01 0.992D+00
 Gap=     0.499 Goal=   None    Shift=    0.000
 RMSDP=1.95D-08 MaxDP=7.80D-07 DE=-3.41D-11 OVMax= 5.21D-07

 Cycle   9  Pass 1  IDiag  1:
 RMSU=  3.16D-09    CP:  1.03D+00  6.06D-01  9.66D-01  1.15D+00  1.11D+00
                    CP:  1.24D+00  1.11D+00  1.11D+00
 FoFJK:  IHMeth= 1 ICntrl=     0 DoSepK=T KAlg= 1 I1Cent= 0 FoldK=F
 E= -2753.87435387767     Delta-E=       -0.000000000003 Rises=F Damp=F
 DIIS: error= 7.31D-09 at cycle   9 NSaved=   9.
 NSaved= 9 IEnMin= 9 EnMin= -2753.87435387767     IErMin= 9 ErrMin= 7.31D-09
 ErrMax= 7.31D-09 EMaxC= 1.00D-01 BMatC= 6.16D-15 BMatP= 1.48D-12
 IDIUse=1 WtCom= 1.00D+00 WtEn= 0.00D+00
 Coeff-Com:  0.104D-07 0.138D-06-0.139D-05-0.132D-03 0.283D-04 0.473D-02
 Coeff-Com: -0.124D-01-0.138D+00 0.115D+01
 Coeff:      0.104D-07 0.138D-06-0.139D-05-0.132D-03 0.283D-04 0.473D-02
 Coeff:     -0.124D-01-0.138D+00 0.115D+01
 Gap=     0.499 Goal=   None    Shift=    0.000
 RMSDP=1.70D-09 MaxDP=6.92D-08 DE=-2.73D-12 OVMax= 9.19D-08

 SCF Done:  E(RwB97XD) =  -2753.87435388     A.U. after    9 cycles
             Convg  =    0.1702D-08             -V/T =  2.0013
 KE= 2.750261034587D+03 PE=-6.580199451107D+03 EE= 1.076064062642D+03
 Leave Link  502 at Sat May  9 19:14:58 2020, MaxMem= 1073741824 cpu:     243.9
 (Enter /home/matheus/.gaussian/g09/l601.exe)
 Copying SCF densities to generalized density rwf, IOpCl= 0 IROHF=0.

 **********************************************************************

            Population analysis using the SCF density.

 **********************************************************************

 Orbital symmetries:
       Occupied  (A) (A) (A) (A) (A) (A) (A) (A) (A) (A) (A) (A)
                 (A) (A) (A) (A) (A) (A)
       Virtual   (A) (A) (A) (A) (A) (A) (A) (A) (A) (A) (A) (A)
                 (A) (A) (A) (A) (A) (A) (A) (A) (A) (A) (A) (A)
                 (A) (A) (A) (A) (A) (A) (A) (A) (A) (A) (A) (A)
                 (A) (A) (A) (A) (A) (A) (A) (A) (A) (A) (A) (A)
                 (A) (A) (A) (A) (A) (A) (A) (A) (A) (A) (A) (A)
                 (A) (A) (A) (A) (A) (A) (A) (A) (A) (A) (A) (A)
                 (A) (A) (A) (A) (A) (A) (A) (A) (A) (A) (A) (A)
                 (A) (A) (A) (A) (A) (A) (A) (A) (A) (A) (A) (A)
                 (A) (A) (A) (A) (A) (A) (A) (A) (A) (A) (A) (A)
                 (A) (A) (A) (A) (A) (A) (A) (A) (A) (A) (A) (A)
                 (A) (A) (A) (A) (A) (A) (A) (A) (A) (A) (A) (A)
                 (A) (A) (A) (A) (A) (A) (A) (A) (A) (A) (A) (A)
                 (A) (A) (A) (A) (A) (A) (A) (A) (A) (A) (A) (A)
                 (A) (A) (A) (A) (A) (A) (A) (A) (A) (A) (A) (A)
                 (A) (A) (A) (A) (A) (A) (A) (A) (A) (A) (A)
 The electronic state is 1-A.
 Alpha  occ. eigenvalues -- -513.05921 -67.32596 -60.87472 -60.87470 -60.87470
 Alpha  occ. eigenvalues --   -9.77892  -7.47187  -7.47186  -7.47186  -3.33929
 Alpha  occ. eigenvalues --   -3.33929  -3.33928  -3.33928  -3.33928  -0.98489
 Alpha  occ. eigenvalues --   -0.46647  -0.46643  -0.46642
 Alpha virt. eigenvalues --    0.03271   0.05219   0.08783   0.09568   0.12212
 Alpha virt. eigenvalues --    0.12593   0.13575   0.14000   0.16426   0.17292
 Alpha virt. eigenvalues --    0.18071   0.19748   0.20721   0.25391   0.26281
 Alpha virt. eigenvalues --    0.26610   0.28518   0.30486   0.32416   0.34117
 Alpha virt. eigenvalues --    0.35682   0.37241   0.38145   0.39462   0.41252
 Alpha virt. eigenvalues --    0.42298   0.42568   0.52065   0.52522   0.56959
 Alpha virt. eigenvalues --    0.58779   0.66625   0.67993   0.69423   0.71749
 Alpha virt. eigenvalues --    0.73542   0.74134   0.75307   0.76888   0.77768
 Alpha virt. eigenvalues --    0.78949   0.80693   0.82287   0.85523   0.86996
 Alpha virt. eigenvalues --    0.87751   0.89186   0.90654   0.91033   0.95066
 Alpha virt. eigenvalues --    0.96531   0.97280   0.97625   0.98138   1.00396
 Alpha virt. eigenvalues --    1.04041   1.05625   1.07340   1.08472   1.11219
 Alpha virt. eigenvalues --    1.15777   1.19421   1.23354   1.27199   1.29451
 Alpha virt. eigenvalues --    1.32406   1.34466   1.39292   1.43639   1.44868
 Alpha virt. eigenvalues --    1.54087   1.56983   1.58112   1.74244   1.76073
 Alpha virt. eigenvalues --    1.80663   1.83154   1.85792   1.99101   2.14641
 Alpha virt. eigenvalues --    2.18019   2.24425   2.26857   2.28015   2.28767
 Alpha virt. eigenvalues --    2.30693   2.31893   2.35419   2.38415   2.40992
 Alpha virt. eigenvalues --    2.42142   2.44832   2.45862   2.46987   2.48147
 Alpha virt. eigenvalues --    2.50185   2.51763   2.54563   2.56535   2.57132
 Alpha virt. eigenvalues --    2.60175   2.62174   2.63605   2.68440   2.72211
 Alpha virt. eigenvalues --    2.73434   2.77531   2.84219   2.88701   2.89594
 Alpha virt. eigenvalues --    2.94228   2.99886   3.04272   3.10191   3.19540
 Alpha virt. eigenvalues --    3.23411   3.26655   3.31165   3.38776   3.47154
 Alpha virt. eigenvalues --    3.61260   3.64592   3.83285   3.86977   4.04527
 Alpha virt. eigenvalues --    4.34004   4.42486   4.53494   4.57652   4.64642
 Alpha virt. eigenvalues --    4.73182   4.88228   4.90795   4.96119   5.01785
 Alpha virt. eigenvalues --    5.12619   5.24834   5.61427   5.63525   5.78997
 Alpha virt. eigenvalues --    5.92665   6.06216   6.06904   6.76131   6.86652
 Alpha virt. eigenvalues --    7.38727   7.48732   7.56896   7.62298   7.77268
 Alpha virt. eigenvalues --    7.79959   7.93787   8.14972   8.17182   8.22447
 Alpha virt. eigenvalues --    8.40787   8.50209   8.56942   8.86620   9.66265
 Alpha virt. eigenvalues --    9.77375   9.84430   9.88674   9.92428  10.00094
 Alpha virt. eigenvalues --   10.15564  10.32301  10.39179  10.98281  11.53148
 Alpha virt. eigenvalues --   11.65971  11.81974  12.08336  12.09654  13.21992
 Alpha virt. eigenvalues --   13.66329  14.52299  62.83306  64.70627
          Condensed to atoms (all electrons):
              1          2          3          4          5
     1  O    0.001822  -0.001878  -0.000999   0.001265  -0.008099
     2  O   -0.001878   0.006261   0.000651  -0.004490  -0.002035
     3  H   -0.000999   0.000651   0.000772  -0.000371   0.000136
     4  H    0.001265  -0.004490  -0.000371   0.004453  -0.021300
     5  Kr  -0.008099  -0.002035   0.000136  -0.021300  36.060933
 Mulliken atomic charges:
              1
     1  O    0.007889
     2  O    0.001491
     3  H   -0.000188
     4  H    0.020444
     5  Kr  -0.029635
 Sum of Mulliken atomic charges =   0.00000
 Mulliken charges with hydrogens summed into heavy atoms:
              1
     1  O    0.007701
     2  O    0.021934
     5  Kr  -0.029635
 Sum of Mulliken charges with hydrogens summed into heavy atoms =   0.00000
          Condensed to fragments (all electrons):
     1       0.029635
     2      -0.029635
 Electronic spatial extent (au):  <R**2>=            163.5997
 Charge=              0.0000 electrons
 Dipole moment (field-independent basis, Debye):
    X=              0.0002    Y=              0.0004    Z=              0.0002  Tot=              0.0005
 Quadrupole moment (field-independent basis, Debye-Ang):
   XX=            -17.6257   YY=            -17.6410   ZZ=            -17.6488
   XY=              0.0040   XZ=              0.0013   YZ=             -0.0002
 Traceless Quadrupole moment (field-independent basis, Debye-Ang):
   XX=              0.0128   YY=             -0.0025   ZZ=             -0.0103
   XY=              0.0040   XZ=              0.0013   YZ=             -0.0002
 Octapole moment (field-independent basis, Debye-Ang**2):
  XXX=             51.9784  YYY=              0.5255  ZZZ=              0.0229  XYY=             17.3420
  XXY=              0.1673  XXZ=              0.0049  XZZ=             17.3467  YZZ=              0.1760
  YYZ=              0.0076  XYZ=              0.0001
 Hexadecapole moment (field-independent basis, Debye-Ang**3):
 XXXX=           -120.5961 YYYY=            -18.4461 ZZZZ=            -18.4584 XXXY=             -0.5015
 XXXZ=             -0.0170 YYYX=             -0.5047 YYYZ=             -0.0003 ZZZX=             -0.0190
 ZZZY=              0.0003 XXYY=            -23.1886 XXZZ=            -23.1919 YYZZ=             -6.1495
 XXYZ=             -0.0004 YYXZ=             -0.0068 ZZXY=             -0.1670
 N-N= 0.000000000000D+00 E-N=-6.580199451864D+03  KE= 2.750261034587D+03
 No NMR shielding tensors so no spin-rotation constants.
 Leave Link  601 at Sat May  9 19:14:58 2020, MaxMem= 1073741824 cpu:       0.7
 (Enter /home/matheus/.gaussian/g09/l122.exe)
 Counterpoise: doing MCBS calculation for fragment   1
 Leave Link  122 at Sat May  9 19:14:58 2020, MaxMem= 1073741824 cpu:       0.0
 (Enter /home/matheus/.gaussian/g09/l301.exe)
 Basis read from rwf:  (5D, 7F)
 No pseudopotential information found on rwf file.
 There are   138 symmetry adapted basis functions of A   symmetry.
 Integral buffers will be    131072 words long.
 Raffenetti 2 integral format.
 Two-electron integral symmetry is turned on.
   138 basis functions,   198 primitive gaussians,   160 cartesian basis functions
     9 alpha electrons        9 beta electrons
       nuclear repulsion energy        36.6265003879 Hartrees.
 IExCor= 4639 DFT=T Ex+Corr=wB97XD ExCW=0 ScaHFX=  1.000000
 ScaDFX=  1.000000  1.000000  1.000000  1.000000 ScalE2=  1.000000  1.000000
 IRadAn=      5 IRanWt=     -1 IRanGd=            0 ICorTp=0
  HFx wShort=  0.000000 wLong=  0.200000 cFull=  0.222036 cShort=  0.000000 cLong=  0.777964
  DFx wShort=  0.000000 wLong=  0.200000 cFull=  0.000000 cShort=  0.000000 cLong=  1.000000
 NAtoms=    5 NActive=    4 NUniq=    4 SFac= 1.00D+00 NAtFMM=   60 NAOKFM=F Big=F
 R6Disp: Dispersion energy =        -0.0002523317 Hartrees.
 Nuclear repulsion after empirical dispersion term =       36.6262480562 Hartrees.
 No density basis found on file   718.
 Leave Link  301 at Sat May  9 19:14:58 2020, MaxMem= 1073741824 cpu:       0.2
 (Enter /home/matheus/.gaussian/g09/l302.exe)
 NPDir=0 NMtPBC=     1 NCelOv=     1 NCel=       1 NClECP=     1 NCelD=      1
         NCelK=      1 NCelE2=     1 NClLst=     1 CellRange=     0.0.
 One-electron integrals computed using PRISM.
 NBasis=   138 RedAO= T  NBF=   138
 NBsUse=   138 1.00D-06 NBFU=   138
 Precomputing XC quadrature grid using
 IXCGrd= 2 IRadAn=           5 IRanWt=          -1 IRanGd=           0 AccXCQ= 0.00D+00.
 NRdTot=     344 NPtTot=       92556 NUsed=       95038 NTot=       95070
 NSgBfM=   160   160   160   160   160 NAtAll=     4     4.
 Leave Link  302 at Sat May  9 19:14:58 2020, MaxMem= 1073741824 cpu:       0.7
 (Enter /home/matheus/.gaussian/g09/l303.exe)
 DipDrv:  MaxL=1.
 Leave Link  303 at Sat May  9 19:14:58 2020, MaxMem= 1073741824 cpu:       0.1
 (Enter /home/matheus/.gaussian/g09/l401.exe)
 Harris functional with IExCor= 4639 diagonalized for initial guess.
 ExpMin= 2.53D-02 ExpMax= 1.53D+04 ExpMxC= 5.22D+02 IAcc=3 IRadAn=         5 AccDes= 0.00D+00
 HarFok:  IExCor= 4639 AccDes= 0.00D+00 IRadAn=         5 IDoV= 1
 ScaDFX=  1.000000  1.000000  1.000000  1.000000
 FoFCou: FMM=F IPFlag=           0 FMFlag=      100000 FMFlg1=           0
         NFxFlg=           0 DoJE=T BraDBF=F KetDBF=T FulRan=T
         Omega=  0.000000  0.000000  1.000000  0.000000  0.000000 ICntrl=     500 IOpCl=  0
         NMat0=    1 NMatS0=    1 NMatT0=    0 NMatD0=    1 NMtDS0=    0 NMtDT0=    0
         I1Cent=           4 NGrid=           0.
 Petite list used in FoFCou.
 Harris En= -146.295819864433    
 Initial guess orbital symmetries:
       Occupied  (A) (A) (A) (A) (A) (A) (A) (A) (A)
       Virtual   (A) (A) (A) (A) (A) (A) (A) (A) (A) (A) (A) (A)
                 (A) (A) (A) (A) (A) (A) (A) (A) (A) (A) (A) (A)
                 (A) (A) (A) (A) (A) (A) (A) (A) (A) (A) (A) (A)
                 (A) (A) (A) (A) (A) (A) (A) (A) (A) (A) (A) (A)
                 (A) (A) (A) (A) (A) (A) (A) (A) (A) (A) (A) (A)
                 (A) (A) (A) (A) (A) (A) (A) (A) (A) (A) (A) (A)
                 (A) (A) (A) (A) (A) (A) (A) (A) (A) (A) (A) (A)
                 (A) (A) (A) (A) (A) (A) (A) (A) (A) (A) (A) (A)
                 (A) (A) (A) (A) (A) (A) (A) (A) (A) (A) (A) (A)
                 (A) (A) (A) (A) (A) (A) (A) (A) (A) (A) (A) (A)
                 (A) (A) (A) (A) (A) (A) (A) (A) (A)
 The electronic state of the initial guess is 1-A.
 Leave Link  401 at Sat May  9 19:14:58 2020, MaxMem= 1073741824 cpu:       2.2
 (Enter /home/matheus/.gaussian/g09/l502.exe)
 Closed shell SCF:
 Requested convergence on RMS density matrix=1.00D-08 within 128 cycles.
 Requested convergence on MAX density matrix=1.00D-06.
 Requested convergence on             energy=1.00D-06.
 No special actions if energy rises.
 Using DIIS extrapolation, IDIIS=  1040.
 Integral symmetry usage will be decided dynamically.
        94980 words used for storage of precomputed grid.
 IEnd=      192360 IEndB=      192360 NGot=  1073741824 MDV=  1073591865
 LenX=  1073591865 LenY=  1073565824
 Fock matrices will be formed incrementally for  20 cycles.

 Cycle   1  Pass 1  IDiag  1:
 FoFJK:  IHMeth= 1 ICntrl=     0 DoSepK=T KAlg= 1 I1Cent= 0 FoldK=F
 FoFCou: FMM=F IPFlag=           0 FMFlag=      100000 FMFlg1=           0
         NFxFlg=           0 DoJE=T BraDBF=F KetDBF=F FulRan=T
         Omega=  0.000000  0.000000  1.000000  0.000000  0.000000 ICntrl=     500 IOpCl=  0
         NMat0=    1 NMatS0=    1 NMatT0=    0 NMatD0=    1 NMtDS0=    0 NMtDT0=    0
         I1Cent=           0 NGrid=           0.
 Symmetry not used in FoFCou.
 E= -151.478076751507    
 DIIS: error= 4.34D-02 at cycle   1 NSaved=   1.
 NSaved= 1 IEnMin= 1 EnMin= -151.478076751507     IErMin= 1 ErrMin= 4.34D-02
 ErrMax= 4.34D-02 EMaxC= 1.00D-01 BMatC= 3.01D-01 BMatP= 3.01D-01
 IDIUse=3 WtCom= 5.66D-01 WtEn= 4.34D-01
 Coeff-Com:  0.100D+01
 Coeff-En:   0.100D+01
 Coeff:      0.100D+01
 Gap=     0.535 Goal=   None    Shift=    0.000
 GapD=    0.535 DampG=2.000 DampE=0.500 DampFc=1.0000 IDamp=-1.
 RMSDP=3.44D-03 MaxDP=1.09D-01              OVMax= 1.07D-01

 Cycle   2  Pass 1  IDiag  1:
 RMSU=  2.38D-03    CP:  9.50D-01
 FoFJK:  IHMeth= 1 ICntrl=     0 DoSepK=T KAlg= 1 I1Cent= 0 FoldK=F
 E= -151.508621543651     Delta-E=       -0.030544792143 Rises=F Damp=F
 DIIS: error= 2.34D-02 at cycle   2 NSaved=   2.
 NSaved= 2 IEnMin= 2 EnMin= -151.508621543651     IErMin= 2 ErrMin= 2.34D-02
 ErrMax= 2.34D-02 EMaxC= 1.00D-01 BMatC= 9.08D-02 BMatP= 3.01D-01
 IDIUse=3 WtCom= 7.66D-01 WtEn= 2.34D-01
 Coeff-Com:  0.332D+00 0.668D+00
 Coeff-En:   0.362D+00 0.638D+00
 Coeff:      0.339D+00 0.661D+00
 Gap=     0.480 Goal=   None    Shift=    0.000
 RMSDP=1.43D-03 MaxDP=4.88D-02 DE=-3.05D-02 OVMax= 5.99D-02

 Cycle   3  Pass 1  IDiag  1:
 RMSU=  5.11D-04    CP:  9.71D-01  6.44D-01
 FoFJK:  IHMeth= 1 ICntrl=     0 DoSepK=T KAlg= 1 I1Cent= 0 FoldK=F
 E= -151.557383966073     Delta-E=       -0.048762422422 Rises=F Damp=F
 DIIS: error= 6.46D-03 at cycle   3 NSaved=   3.
 NSaved= 3 IEnMin= 3 EnMin= -151.557383966073     IErMin= 3 ErrMin= 6.46D-03
 ErrMax= 6.46D-03 EMaxC= 1.00D-01 BMatC= 6.65D-03 BMatP= 9.08D-02
 IDIUse=3 WtCom= 9.35D-01 WtEn= 6.46D-02
 Coeff-Com:  0.151D-01 0.222D+00 0.763D+00
 Coeff-En:   0.000D+00 0.000D+00 0.100D+01
 Coeff:      0.141D-01 0.208D+00 0.778D+00
[...]
 DIIS: error= 4.37D-06 at cycle   2 NSaved=   2.
 NSaved= 2 IEnMin= 2 EnMin= -2753.87423832137     IErMin= 2 ErrMin= 4.37D-06
 ErrMax= 4.37D-06 EMaxC= 1.00D-01 BMatC= 3.93D-09 BMatP= 3.52D-06
 IDIUse=1 WtCom= 1.00D+00 WtEn= 0.00D+00
 Coeff-Com: -0.104D-01 0.101D+01
 Coeff:     -0.104D-01 0.101D+01
 Gap=     0.497 Goal=   None    Shift=    0.000
 RMSDP=1.99D-06 MaxDP=8.48D-05 DE=-5.56D-07 OVMax= 5.07D-05

 Cycle   3  Pass 1  IDiag  1:
 RMSU=  5.33D-07    CP:  1.00D+00  1.09D+00
 FoFJK:  IHMeth= 1 ICntrl=     0 DoSepK=T KAlg= 1 I1Cent= 0 FoldK=F
 E= -2753.87423832867     Delta-E=       -0.000000007302 Rises=F Damp=F
 DIIS: error= 7.23D-07 at cycle   3 NSaved=   3.
 NSaved= 3 IEnMin= 3 EnMin= -2753.87423832867     IErMin= 3 ErrMin= 7.23D-07
 ErrMax= 7.23D-07 EMaxC= 1.00D-01 BMatC= 1.05D-10 BMatP= 3.93D-09
 IDIUse=1 WtCom= 1.00D+00 WtEn= 0.00D+00
 Coeff-Com:  0.513D-06-0.965D-01 0.110D+01
 Coeff:      0.513D-06-0.965D-01 0.110D+01
 Gap=     0.497 Goal=   None    Shift=    0.000
 RMSDP=2.32D-07 MaxDP=1.06D-05 DE=-7.30D-09 OVMax= 9.73D-06

 Cycle   4  Pass 1  IDiag  1:
 RMSU=  5.11D-08    CP:  1.00D+00  1.10D+00  1.21D+00
 FoFJK:  IHMeth= 1 ICntrl=     0 DoSepK=T KAlg= 1 I1Cent= 0 FoldK=F
 E= -2753.87423832886     Delta-E=       -0.000000000189 Rises=F Damp=F
 DIIS: error= 4.31D-07 at cycle   4 NSaved=   4.
 NSaved= 4 IEnMin= 4 EnMin= -2753.87423832886     IErMin= 4 ErrMin= 4.31D-07
 ErrMax= 4.31D-07 EMaxC= 1.00D-01 BMatC= 1.72D-11 BMatP= 1.05D-10
 IDIUse=1 WtCom= 1.00D+00 WtEn= 0.00D+00
 Coeff-Com:  0.213D-03-0.517D-01 0.339D+00 0.713D+00
 Coeff:      0.213D-03-0.517D-01 0.339D+00 0.713D+00
 Gap=     0.497 Goal=   None    Shift=    0.000
 RMSDP=2.17D-08 MaxDP=8.86D-07 DE=-1.89D-10 OVMax= 1.35D-06

 Cycle   5  Pass 1  IDiag  1:
 RMSU=  1.04D-08    CP:  1.00D+00  1.10D+00  1.23D+00  1.06D+00
 FoFJK:  IHMeth= 1 ICntrl=     0 DoSepK=T KAlg= 1 I1Cent= 0 FoldK=F
 E= -2753.87423832887     Delta-E=       -0.000000000017 Rises=F Damp=F
 DIIS: error= 2.87D-08 at cycle   5 NSaved=   5.
 NSaved= 5 IEnMin= 5 EnMin= -2753.87423832887     IErMin= 5 ErrMin= 2.87D-08
 ErrMax= 2.87D-08 EMaxC= 1.00D-01 BMatC= 1.39D-13 BMatP= 1.72D-11
 IDIUse=1 WtCom= 1.00D+00 WtEn= 0.00D+00
 Coeff-Com: -0.268D-05 0.372D-02-0.374D-01-0.203D-01 0.105D+01
 Coeff:     -0.268D-05 0.372D-02-0.374D-01-0.203D-01 0.105D+01
 Gap=     0.497 Goal=   None    Shift=    0.000
 RMSDP=9.13D-09 MaxDP=5.54D-07 DE=-1.68D-11 OVMax= 3.67D-07

 SCF Done:  E(RwB97XD) =  -2753.87423833     A.U. after    5 cycles
             Convg  =    0.9126D-08             -V/T =  2.0013
 KE= 2.750294928380D+03 PE=-6.580235622414D+03 EE= 1.076066455705D+03
 Leave Link  502 at Sat May  9 19:40:17 2020, MaxMem= 1073741824 cpu:     103.0
 (Enter /home/matheus/.gaussian/g09/l122.exe)
 Restoring MOs from calculation   4 to rwf.
 Counterpoise: doing MCBS calculation for fragment   1
 Leave Link  122 at Sat May  9 19:40:17 2020, MaxMem= 1073741824 cpu:       0.0
 (Enter /home/matheus/.gaussian/g09/l301.exe)
 Basis read from rwf:  (5D, 7F)
 No pseudopotential information found on rwf file.
 There are   138 symmetry adapted basis functions of A   symmetry.
 Integral buffers will be    131072 words long.
 Raffenetti 2 integral format.
 Two-electron integral symmetry is turned on.
   138 basis functions,   198 primitive gaussians,   160 cartesian basis functions
     9 alpha electrons        9 beta electrons
       nuclear repulsion energy        36.6265003879 Hartrees.
 IExCor= 4639 DFT=T Ex+Corr=wB97XD ExCW=0 ScaHFX=  1.000000
 ScaDFX=  1.000000  1.000000  1.000000  1.000000 ScalE2=  1.000000  1.000000
 IRadAn=      5 IRanWt=     -1 IRanGd=            0 ICorTp=0
  HFx wShort=  0.000000 wLong=  0.200000 cFull=  0.222036 cShort=  0.000000 cLong=  0.777964
  DFx wShort=  0.000000 wLong=  0.200000 cFull=  0.000000 cShort=  0.000000 cLong=  1.000000
 NAtoms=    5 NActive=    4 NUniq=    4 SFac= 1.00D+00 NAtFMM=   60 NAOKFM=F Big=F
 R6Disp: Dispersion energy =        -0.0002523317 Hartrees.
 Nuclear repulsion after empirical dispersion term =       36.6262480562 Hartrees.
 No density basis found on file   718.
 Leave Link  301 at Sat May  9 19:40:17 2020, MaxMem= 1073741824 cpu:       0.2
 (Enter /home/matheus/.gaussian/g09/l302.exe)
 NPDir=0 NMtPBC=     1 NCelOv=     1 NCel=       1 NClECP=     1 NCelD=      1
         NCelK=      1 NCelE2=     1 NClLst=     1 CellRange=     0.0.
 One-electron integrals computed using PRISM.
 NBasis=   138 RedAO= T  NBF=   138
 NBsUse=   138 1.00D-06 NBFU=   138
 Precomputing XC quadrature grid using
 IXCGrd= 2 IRadAn=           5 IRanWt=          -1 IRanGd=           0 AccXCQ= 0.00D+00.
 NRdTot=     344 NPtTot=       92556 NUsed=       95038 NTot=       95070
 NSgBfM=   160   160   160   160   160 NAtAll=     4     4.
 Leave Link  302 at Sat May  9 19:40:18 2020, MaxMem= 1073741824 cpu:       0.8
 (Enter /home/matheus/.gaussian/g09/l303.exe)
 DipDrv:  MaxL=1.
 Leave Link  303 at Sat May  9 19:40:18 2020, MaxMem= 1073741824 cpu:       0.1
 (Enter /home/matheus/.gaussian/g09/l401.exe)
 Initial guess read from the read-write file.
 Guess basis will be translated and rotated to current coordinates.
 Initial guess orbital symmetries:
       Occupied  (A) (A) (A) (A) (A) (A) (A) (A) (A)
       Virtual   (A) (A) (A) (A) (A) (A) (A) (A) (A) (A) (A) (A)
                 (A) (A) (A) (A) (A) (A) (A) (A) (A) (A) (A) (A)
                 (A) (A) (A) (A) (A) (A) (A) (A) (A) (A) (A) (A)
                 (A) (A) (A) (A) (A) (A) (A) (A) (A) (A) (A) (A)
                 (A) (A) (A) (A) (A) (A) (A) (A) (A) (A) (A) (A)
                 (A) (A) (A) (A) (A) (A) (A) (A) (A) (A) (A) (A)
                 (A) (A) (A) (A) (A) (A) (A) (A) (A) (A) (A) (A)
                 (A) (A) (A) (A) (A) (A) (A) (A) (A) (A) (A) (A)
                 (A) (A) (A) (A) (A) (A) (A) (A) (A) (A) (A) (A)
                 (A) (A) (A) (A) (A) (A) (A) (A) (A) (A) (A) (A)
                 (A) (A) (A) (A) (A) (A) (A) (A) (A)
 The electronic state of the initial guess is 1-A.
 Generating alternative initial guess.
 Harris functional with IExCor= 4639 diagonalized for initial guess.
 ExpMin= 2.53D-02 ExpMax= 1.53D+04 ExpMxC= 5.22D+02 IAcc=3 IRadAn=         5 AccDes= 0.00D+00
 HarFok:  IExCor= 4639 AccDes= 0.00D+00 IRadAn=         5 IDoV= 1
 ScaDFX=  1.000000  1.000000  1.000000  1.000000
 FoFCou: FMM=F IPFlag=           0 FMFlag=      100000 FMFlg1=           0
         NFxFlg=           0 DoJE=T BraDBF=F KetDBF=T FulRan=T
         Omega=  0.000000  0.000000  1.000000  0.000000  0.000000 ICntrl=     500 IOpCl=  0
         NMat0=    1 NMatS0=    1 NMatT0=    0 NMatD0=    1 NMtDS0=    0 NMtDT0=    0
         I1Cent=           4 NGrid=           0.
 Petite list used in FoFCou.
 Harris En= -146.295819819424    
 Leave Link  401 at Sat May  9 19:40:18 2020, MaxMem= 1073741824 cpu:       2.7
 (Enter /home/matheus/.gaussian/g09/l502.exe)
 Closed shell SCF:
 Requested convergence on RMS density matrix=1.00D-08 within 128 cycles.
 Requested convergence on MAX density matrix=1.00D-06.
 Requested convergence on             energy=1.00D-06.
 No special actions if energy rises.
 Using DIIS extrapolation, IDIIS=  1040.
 Integral symmetry usage will be decided dynamically.
        94980 words used for storage of precomputed grid.
 IEnd=      192360 IEndB=      192360 NGot=  1073741824 MDV=  1073591865
 LenX=  1073591865 LenY=  1073565824
 Fock matrices will be formed incrementally for  20 cycles.

 Cycle   1  Pass 1  IDiag  1:
 FoFJK:  IHMeth= 1 ICntrl=     0 DoSepK=T KAlg= 1 I1Cent= 0 FoldK=F
 FoFCou: FMM=F IPFlag=           0 FMFlag=      100000 FMFlg1=           0
         NFxFlg=           0 DoJE=T BraDBF=F KetDBF=F FulRan=T
         Omega=  0.000000  0.000000  1.000000  0.000000  0.000000 ICntrl=     500 IOpCl=  0
         NMat0=    1 NMatS0=    1 NMatT0=    0 NMatD0=    1 NMtDS0=    0 NMtDT0=    0
         I1Cent=           0 NGrid=           0.
 Symmetry not used in FoFCou.
 E= -151.561727271956    
 DIIS: error= 8.93D-06 at cycle   1 NSaved=   1.
 NSaved= 1 IEnMin= 1 EnMin= -151.561727271956     IErMin= 1 ErrMin= 8.93D-06
 ErrMax= 8.93D-06 EMaxC= 1.00D-01 BMatC= 2.46D-08 BMatP= 2.46D-08
 IDIUse=1 WtCom= 1.00D+00 WtEn= 0.00D+00
 Coeff-Com:  0.100D+01
 Coeff:      0.100D+01
 Gap=     0.426 Goal=   None    Shift=    0.000
 RMSDP=1.05D-06 MaxDP=2.51D-05              OVMax= 4.68D-05

 Cycle   2  Pass 1  IDiag  1:
 RMSU=  7.40D-07    CP:  1.00D+00
 FoFJK:  IHMeth= 1 ICntrl=     0 DoSepK=T KAlg= 1 I1Cent= 0 FoldK=F
 E= -151.561727298072     Delta-E=       -0.000000026115 Rises=F Damp=F
 DIIS: error= 2.13D-06 at cycle   2 NSaved=   2.
 NSaved= 2 IEnMin= 2 EnMin= -151.561727298072     IErMin= 2 ErrMin= 2.13D-06
 ErrMax= 2.13D-06 EMaxC= 1.00D-01 BMatC= 7.83D-10 BMatP= 2.46D-08
 IDIUse=1 WtCom= 1.00D+00 WtEn= 0.00D+00
 Coeff-Com: -0.101D+00 0.110D+01
 Coeff:     -0.101D+00 0.110D+01
 Gap=     0.426 Goal=   None    Shift=    0.000
 RMSDP=3.07D-07 MaxDP=8.73D-06 DE=-2.61D-08 OVMax= 1.60D-05

 Cycle   3  Pass 1  IDiag  1:
 RMSU=  1.25D-07    CP:  1.00D+00  1.24D+00
 FoFJK:  IHMeth= 1 ICntrl=     0 DoSepK=T KAlg= 1 I1Cent= 0 FoldK=F
 E= -151.561727299688     Delta-E=       -0.000000001616 Rises=F Damp=F
 DIIS: error= 1.01D-06 at cycle   3 NSaved=   3.
 NSaved= 3 IEnMin= 3 EnMin= -151.561727299688     IErMin= 3 ErrMin= 1.01D-06
 ErrMax= 1.01D-06 EMaxC= 1.00D-01 BMatC= 1.45D-10 BMatP= 7.83D-10
 IDIUse=1 WtCom= 1.00D+00 WtEn= 0.00D+00
 Coeff-Com: -0.374D-01 0.239D+00 0.798D+00
 Coeff:     -0.374D-01 0.239D+00 0.798D+00
 Gap=     0.426 Goal=   None    Shift=    0.000
 RMSDP=9.55D-08 MaxDP=2.92D-06 DE=-1.62D-09 OVMax= 6.26D-06

 Cycle   4  Pass 1  IDiag  1:
 RMSU=  5.68D-08    CP:  1.00D+00  1.28D+00  1.14D+00
 FoFJK:  IHMeth= 1 ICntrl=     0 DoSepK=T KAlg= 1 I1Cent= 0 FoldK=F
 E= -151.561727299803     Delta-E=       -0.000000000115 Rises=F Damp=F
 DIIS: error= 8.16D-07 at cycle   4 NSaved=   4.
 NSaved= 4 IEnMin= 4 EnMin= -151.561727299803     IErMin= 4 ErrMin= 8.16D-07
 ErrMax= 8.16D-07 EMaxC= 1.00D-01 BMatC= 1.05D-10 BMatP= 1.45D-10
 IDIUse=1 WtCom= 1.00D+00 WtEn= 0.00D+00
 Coeff-Com: -0.205D-02-0.782D-01 0.476D+00 0.605D+00
 Coeff:     -0.205D-02-0.782D-01 0.476D+00 0.605D+00
 Gap=     0.426 Goal=   None    Shift=    0.000
 RMSDP=4.75D-08 MaxDP=9.88D-07 DE=-1.15D-10 OVMax= 2.82D-06

 Cycle   5  Pass 1  IDiag  1:
 RMSU=  1.37D-08    CP:  1.00D+00  1.30D+00  1.32D+00  7.29D-01
 FoFJK:  IHMeth= 1 ICntrl=     0 DoSepK=T KAlg= 1 I1Cent= 0 FoldK=F
 E= -151.561727299888     Delta-E=       -0.000000000085 Rises=F Damp=F
 DIIS: error= 1.23D-07 at cycle   5 NSaved=   5.
 NSaved= 5 IEnMin= 5 EnMin= -151.561727299888     IErMin= 5 ErrMin= 1.23D-07
 ErrMax= 1.23D-07 EMaxC= 1.00D-01 BMatC= 2.71D-12 BMatP= 1.05D-10
 IDIUse=1 WtCom= 1.00D+00 WtEn= 0.00D+00
 Coeff-Com:  0.443D-02-0.478D-01-0.431D-01 0.878D-01 0.999D+00
 Coeff:      0.443D-02-0.478D-01-0.431D-01 0.878D-01 0.999D+00
 Gap=     0.426 Goal=   None    Shift=    0.000
 RMSDP=1.96D-08 MaxDP=4.13D-07 DE=-8.50D-11 OVMax= 1.60D-06

 Cycle   6  Pass 1  IDiag  1:
 RMSU=  4.86D-09    CP:  1.00D+00  1.31D+00  1.39D+00  8.41D-01  1.37D+00
 FoFJK:  IHMeth= 1 ICntrl=     0 DoSepK=T KAlg= 1 I1Cent= 0 FoldK=F
 E= -151.561727299895     Delta-E=       -0.000000000007 Rises=F Damp=F
 DIIS: error= 3.33D-08 at cycle   6 NSaved=   6.
 NSaved= 6 IEnMin= 6 EnMin= -151.561727299895     IErMin= 6 ErrMin= 3.33D-08
 ErrMax= 3.33D-08 EMaxC= 1.00D-01 BMatC= 1.46D-13 BMatP= 2.71D-12
 IDIUse=1 WtCom= 1.00D+00 WtEn= 0.00D+00
 Coeff-Com: -0.584D-05 0.614D-02-0.280D-01-0.346D-01 0.108D-01 0.105D+01
 Coeff:     -0.584D-05 0.614D-02-0.280D-01-0.346D-01 0.108D-01 0.105D+01
 Gap=     0.426 Goal=   None    Shift=    0.000
 RMSDP=5.77D-09 MaxDP=1.30D-07 DE=-7.02D-12 OVMax= 5.11D-07

 SCF Done:  E(RwB97XD) =  -151.561727300     A.U. after    6 cycles
             Convg  =    0.5770D-08             -V/T =  2.0059
 KE= 1.506764552378D+02 PE=-4.317388642992D+02 EE= 9.287443370530D+01
 Leave Link  502 at Sat May  9 19:40:24 2020, MaxMem= 1073741824 cpu:      51.4
 (Enter /home/matheus/.gaussian/g09/l122.exe)
 Restoring MOs from calculation   5 to rwf.
 Counterpoise: doing MCBS calculation for fragment   2
 Leave Link  122 at Sat May  9 19:40:24 2020, MaxMem= 1073741824 cpu:       0.0
 (Enter /home/matheus/.gaussian/g09/l301.exe)
 Basis read from rwf:  (5D, 7F)
 No pseudopotential information found on rwf file.
 There are    59 symmetry adapted basis functions of A   symmetry.
 Integral buffers will be    131072 words long.
 Raffenetti 2 integral format.
 Two-electron integral symmetry is turned on.
    59 basis functions,   217 primitive gaussians,    69 cartesian basis functions
    18 alpha electrons       18 beta electrons
       nuclear repulsion energy         0.0000000000 Hartrees.
 IExCor= 4639 DFT=T Ex+Corr=wB97XD ExCW=0 ScaHFX=  1.000000
 ScaDFX=  1.000000  1.000000  1.000000  1.000000 ScalE2=  1.000000  1.000000
 IRadAn=      5 IRanWt=     -1 IRanGd=            0 ICorTp=0
  HFx wShort=  0.000000 wLong=  0.200000 cFull=  0.222036 cShort=  0.000000 cLong=  0.777964
  DFx wShort=  0.000000 wLong=  0.200000 cFull=  0.000000 cShort=  0.000000 cLong=  1.000000
 NAtoms=    5 NActive=    1 NUniq=    1 SFac= 1.00D+00 NAtFMM=   60 NAOKFM=F Big=F
 R6Disp: Dispersion energy =         0.0000000000 Hartrees.
 Nuclear repulsion after empirical dispersion term =        0.0000000000 Hartrees.
 No density basis found on file   718.
 Leave Link  301 at Sat May  9 19:40:24 2020, MaxMem= 1073741824 cpu:       0.2
 (Enter /home/matheus/.gaussian/g09/l302.exe)
 NPDir=0 NMtPBC=     1 NCelOv=     1 NCel=       1 NClECP=     1 NCelD=      1
         NCelK=      1 NCelE2=     1 NClLst=     1 CellRange=     0.0.
 One-electron integrals computed using PRISM.
 NBasis=    59 RedAO= T  NBF=    59
 NBsUse=    59 1.00D-06 NBFU=    59
 Precomputing XC quadrature grid using
 IXCGrd= 2 IRadAn=           5 IRanWt=          -1 IRanGd=           0 AccXCQ= 0.00D+00.
 NRdTot=      81 NPtTot=       30352 NUsed=       30981 NTot=       31013
 NSgBfM=    69    69    69    69    69 NAtAll=     1     1.
 Leave Link  302 at Sat May  9 19:40:25 2020, MaxMem= 1073741824 cpu:       0.6
 (Enter /home/matheus/.gaussian/g09/l303.exe)
 DipDrv:  MaxL=1.
 Leave Link  303 at Sat May  9 19:40:25 2020, MaxMem= 1073741824 cpu:       0.1
 (Enter /home/matheus/.gaussian/g09/l401.exe)
 Initial guess read from the read-write file.
 Guess basis will be translated and rotated to current coordinates.
 Initial guess orbital symmetries:
       Occupied  (A) (A) (A) (A) (A) (A) (A) (A) (A) (A) (A) (A)
                 (A) (A) (A) (A) (A) (A)
       Virtual   (A) (A) (A) (A) (A) (A) (A) (A) (A) (A) (A) (A)
                 (A) (A) (A) (A) (A) (A) (A) (A) (A) (A) (A) (A)
                 (A) (A) (A) (A) (A) (A) (A) (A) (A) (A) (A) (A)
                 (A) (A) (A) (A) (A)
 The electronic state of the initial guess is 1-A.
 Generating alternative initial guess.
 Harris functional with IExCor= 4639 diagonalized for initial guess.
 ExpMin= 4.00D-02 ExpMax= 1.17D+07 ExpMxC= 1.33D+04 IAcc=3 IRadAn=         5 AccDes= 0.00D+00
 HarFok:  IExCor= 4639 AccDes= 0.00D+00 IRadAn=         5 IDoV= 1
 ScaDFX=  1.000000  1.000000  1.000000  1.000000
 FoFCou: FMM=F IPFlag=           0 FMFlag=      100000 FMFlg1=           0
         NFxFlg=           0 DoJE=T BraDBF=F KetDBF=T FulRan=T
         Omega=  0.000000  0.000000  1.000000  0.000000  0.000000 ICntrl=     500 IOpCl=  0
         NMat0=    1 NMatS0=    1 NMatT0=    0 NMatD0=    1 NMtDS0=    0 NMtDT0=    0
         I1Cent=           4 NGrid=           0.
 Petite list used in FoFCou.
 Harris En= -2730.20235208354    
 Leave Link  401 at Sat May  9 19:40:25 2020, MaxMem= 1073741824 cpu:       1.0
 (Enter /home/matheus/.gaussian/g09/l502.exe)
 Closed shell SCF:
 Requested convergence on RMS density matrix=1.00D-08 within 128 cycles.
 Requested convergence on MAX density matrix=1.00D-06.
 Requested convergence on             energy=1.00D-06.
 No special actions if energy rises.
 Using DIIS extrapolation, IDIIS=  1040.
 Integral symmetry usage will be decided dynamically.
        30923 words used for storage of precomputed grid.
 IEnd=       64406 IEndB=       64406 NGot=  1073741824 MDV=  1073698889
 LenX=  1073698889 LenY=  1073693687
 Fock matrices will be formed incrementally for  20 cycles.

 Cycle   1  Pass 1  IDiag  1:
 FoFJK:  IHMeth= 1 ICntrl=     0 DoSepK=T KAlg= 1 I1Cent= 0 FoldK=F
 FoFCou: FMM=F IPFlag=           0 FMFlag=      100000 FMFlg1=           0
         NFxFlg=           0 DoJE=T BraDBF=F KetDBF=F FulRan=T
         Omega=  0.000000  0.000000  1.000000  0.000000  0.000000 ICntrl=     500 IOpCl=  0
         NMat0=    1 NMatS0=    1 NMatT0=    0 NMatD0=    1 NMtDS0=    0 NMtDT0=    0
         I1Cent=           0 NGrid=           0.
 Symmetry not used in FoFCou.
 E= -2753.87421986326    
 DIIS: error= 1.09D-13 at cycle   1 NSaved=   1.
 NSaved= 1 IEnMin= 1 EnMin= -2753.87421986326     IErMin= 1 ErrMin= 1.09D-13
 ErrMax= 1.09D-13 EMaxC= 1.00D-01 BMatC= 1.25D-24 BMatP= 1.25D-24
 IDIUse=1 WtCom= 1.00D+00 WtEn= 0.00D+00
 Coeff-Com:  0.100D+01
 Coeff:      0.100D+01
 Gap=     0.562 Goal=   None    Shift=    0.000
 DSYEVD returned Info=          89 IAlg= 4 N=    59 NDim=    59 NE2=    18198197 trying DSYEV.
 RMSDP=1.71D-14 MaxDP=3.65D-13              OVMax= 1.73D-13

 SCF Done:  E(RwB97XD) =  -2753.87421986     A.U. after    1 cycles
             Convg  =    0.1709D-13             -V/T =  2.0013
 KE= 2.750300381543D+03 PE=-6.580241205809D+03 EE= 1.076066604402D+03
 Leave Link  502 at Sat May  9 19:40:26 2020, MaxMem= 1073741824 cpu:      13.0
 (Enter /home/matheus/.gaussian/g09/l122.exe)
 Restoring MOs from calculation   1 to rwf.
 Counterpoise: corrected energy =   -2905.436257305091
 Counterpoise: BSSE energy =       0.000022166391
 Leave Link  122 at Sat May  9 19:40:26 2020, MaxMem= 1073741824 cpu:       0.0
 (Enter /home/matheus/.gaussian/g09/l108.exe)
 Scan completed.

 Summary of the potential surface scan:
   N      R1          SCF    
 ----  ---------  -----------
    1     3.0000  -2753.87422
    2     3.1000  -2753.87422
    3     3.2000  -2753.87422
    4     3.3000  -2753.87422
    5     3.4000  -2753.87422
    6     3.5000  -2753.87422
    7     3.6000  -2753.87422
    8     3.7000  -2753.87422
    9     3.8000  -2753.87422
   10     3.9000  -2753.87422
   11     4.0000  -2753.87422
   12     4.1000  -2753.87422
   13     4.2000  -2753.87422
   14     4.3000  -2753.87422
   15     4.4000  -2753.87422
   16     4.5000  -2753.87422
   17     4.6000  -2753.87422
   18     4.7000  -2753.87422
   19     4.8000  -2753.87422
   20     4.9000  -2753.87422
   21     5.0000  -2753.87422
 ----  ---------  -----------
  
 Leave Link  108 at Sat May  9 19:40:26 2020, MaxMem= 1073741824 cpu:       0.0
 (Enter /home/matheus/.gaussian/g09/l9999.exe)
 1\1\GINC-REDGIANT\Scan\RwB97XD\Aug-CC-pVTZ\H2Kr1O2\MATHEUS\09-May-2020
 \1\\#p wb97xd/aug-cc-PVTz int=ultrafine counterpoise=2 Scan\\TCC\\0,1\
 O,0,0.,0.,0.725\O,0,0.,0.,-0.725\H,0,0.9187205947,0.,1.0235104166\H,0,
 0.,0.9187205947,-1.0235104166\Kr,0,0.,R1,0.\\R1=3.,s,20,0.1\\Version=E
 M64L-G09RevC.01\State=1-A\HF=-2753.8742199,-2753.8742199,-2753.8742199
 ,-2753.8742199,-2753.8742199,-2753.8742199,-2753.8742199,-2753.8742199
 ,-2753.8742199,-2753.8742199,-2753.8742199,-2753.8742199,-2753.8742199
 ,-2753.8742199,-2753.8742199,-2753.8742199,-2753.8742199,-2753.8742199
 ,-2753.8742199,-2753.8742199,-2753.8742199\RMSD=9.120e-09,1.920e-10,6.
 363e-11,4.203e-11,2.496e-11,1.570e-11,9.726e-12,6.063e-12,3.772e-12,2.
 344e-12,1.451e-12,8.988e-13,5.644e-13,3.593e-13,2.197e-13,1.324e-13,8.
 520e-14,5.427e-14,3.203e-14,2.589e-14,1.709e-14\PG=C01 [X(H2Kr1O2)]\\@


 THE ONLY DIFFERENCE BETWEEN ECCENTRICS AND JOGGERS
 IS THAT JOGGERS WEAR SWEATBANDS WHEN THEY RUN IN THE RAIN.
 Job cpu time:  0 days  3 hours 37 minutes 32.6 seconds.
 File lengths (MBytes):  RWF=     37 Int=      0 D2E=      0 Chk=      8 Scr=      1
 Normal termination of Gaussian 09 at Sat May  9 19:40:26 2020.
