 Entering Gaussian System, Link 0=g09
 Input=/home/matheus/.tcc/Inputs/Inputs-wb97xd-default/H2O2-Kr_23.com
 Output=/home/matheus/.tcc/Logs/Logs-wb97xd-default/H2O2-Kr_23.log
 Initial command:
 /home/matheus/.gaussian/g09/l1.exe /home/matheus/.gaussian/g09/scratch/Gau-10566.inp -scrdir=/home/matheus/.gaussian/g09/scratch/
 Entering Link 1 = /home/matheus/.gaussian/g09/l1.exe PID=     10570.
  
 Copyright (c) 1988,1990,1992,1993,1995,1998,2003,2009,2011,
            Gaussian, Inc.  All Rights Reserved.
  
 This is part of the Gaussian(R) 09 program.  It is based on
 the Gaussian(R) 03 system (copyright 2003, Gaussian, Inc.),
 the Gaussian(R) 98 system (copyright 1998, Gaussian, Inc.),
 the Gaussian(R) 94 system (copyright 1995, Gaussian, Inc.),
 the Gaussian 92(TM) system (copyright 1992, Gaussian, Inc.),
 the Gaussian 90(TM) system (copyright 1990, Gaussian, Inc.),
 the Gaussian 88(TM) system (copyright 1988, Gaussian, Inc.),
 the Gaussian 86(TM) system (copyright 1986, Carnegie Mellon
 University), and the Gaussian 82(TM) system (copyright 1983,
 Carnegie Mellon University). Gaussian is a federally registered
 trademark of Gaussian, Inc.
  
 This software contains proprietary and confidential information,
 including trade secrets, belonging to Gaussian, Inc.
  
 This software is provided under written license and may be
 used, copied, transmitted, or stored only in accord with that
 written license.
  
 The following legend is applicable only to US Government
 contracts under FAR:
  
                    RESTRICTED RIGHTS LEGEND
  
 Use, reproduction and disclosure by the US Government is
 subject to restrictions as set forth in subparagraphs (a)
 and (c) of the Commercial Computer Software - Restricted
 Rights clause in FAR 52.227-19.
  
 Gaussian, Inc.
 340 Quinnipiac St., Bldg. 40, Wallingford CT 06492
  
  
 ---------------------------------------------------------------
 Warning -- This program may not be used in any manner that
 competes with the business of Gaussian, Inc. or will provide
 assistance to any competitor of Gaussian, Inc.  The licensee
 of this program is prohibited from giving any competitor of
 Gaussian, Inc. access to this program.  By using this program,
 the user acknowledges that Gaussian, Inc. is engaged in the
 business of creating and licensing software in the field of
 computational chemistry and represents and warrants to the
 licensee that it is not a competitor of Gaussian, Inc. and that
 it will not use this program in any manner prohibited above.
 ---------------------------------------------------------------
  

 Cite this work as:
 Gaussian 09, Revision C.01,
 M. J. Frisch, G. W. Trucks, H. B. Schlegel, G. E. Scuseria, 
 M. A. Robb, J. R. Cheeseman, G. Scalmani, V. Barone, B. Mennucci, 
 G. A. Petersson, H. Nakatsuji, M. Caricato, X. Li, H. P. Hratchian, 
 A. F. Izmaylov, J. Bloino, G. Zheng, J. L. Sonnenberg, M. Hada, 
 M. Ehara, K. Toyota, R. Fukuda, J. Hasegawa, M. Ishida, T. Nakajima, 
 Y. Honda, O. Kitao, H. Nakai, T. Vreven, J. A. Montgomery, Jr., 
 J. E. Peralta, F. Ogliaro, M. Bearpark, J. J. Heyd, E. Brothers, 
 K. N. Kudin, V. N. Staroverov, T. Keith, R. Kobayashi, J. Normand, 
 K. Raghavachari, A. Rendell, J. C. Burant, S. S. Iyengar, J. Tomasi, 
 M. Cossi, N. Rega, J. M. Millam, M. Klene, J. E. Knox, J. B. Cross, 
 V. Bakken, C. Adamo, J. Jaramillo, R. Gomperts, R. E. Stratmann, 
 O. Yazyev, A. J. Austin, R. Cammi, C. Pomelli, J. W. Ochterski, 
 R. L. Martin, K. Morokuma, V. G. Zakrzewski, G. A. Voth, 
 P. Salvador, J. J. Dannenberg, S. Dapprich, A. D. Daniels, 
 O. Farkas, J. B. Foresman, J. V. Ortiz, J. Cioslowski, 
 and D. J. Fox, Gaussian, Inc., Wallingford CT, 2010.
 
 ******************************************
 Gaussian 09:  EM64L-G09RevC.01 23-Sep-2011
                10-May-2020 
 ******************************************
 %mem=8GB
 %nproc=8
 Will use up to    8 processors via shared memory.
 -------------------------------------------------------
 #p wb97xd/aug-cc-PVTz int=ultrafine counterpoise=2 Scan
 -------------------------------------------------------
 1/38=1,60=1,62=2/1,8;
 2/12=2,17=6,18=5,29=3,40=1/2;
 1/38=1,53=5172,62=2/22;
 3/5=16,6=1,7=10,11=2,16=1,25=1,30=1,74=-58,75=-5/1,2,3;
 4//1;
 5/5=2,38=5/2;
 6/7=2,8=2,9=2,10=2,18=1,28=1/1;
 1/53=4052,62=2,63=1/22;
 3/5=7,6=11,7=10,11=2,16=1,25=1,30=1,74=-58,75=-5,82=7/1,2,3;
 4//1;
 5/5=2,38=5/2;
 6/7=2,8=2,9=2,10=2,18=1,28=1/1;
 1/53=3042,62=2,63=2/22;
 3/5=7,6=11,7=10,11=2,16=1,25=1,30=1,74=-58,75=-5,82=7/1,2,3;
 4//1;
 5/5=2,38=5/2;
 6/7=2,8=2,9=2,10=2,18=1,28=1/1;
 1/53=2032,62=2,63=3/22;
 3/5=7,6=11,7=10,11=2,16=1,25=1,30=1,74=-58,75=-5,82=7/1,2,3;
 4//1;
 5/5=2,38=5/2;
 6/7=2,8=2,9=2,10=2,18=1,28=1/1;
 1/53=1022,62=2,63=4/22;
 3/5=7,6=11,7=10,11=2,16=1,25=1,30=1,74=-58,75=-5,82=7/1,2,3;
 4//1;
 5/5=2,38=5/2;
 6/7=2,8=2,9=2,10=2,18=1,28=1/1;
 1/53=5014,62=2,63=5/22;
 1/60=1,62=2/8(1);
 99/9=1/99;
 2/29=3/2;
 1/53=5173,62=2/22;
 3/5=7,6=11,7=10,11=2,16=1,25=1,30=1,74=-58,75=-5,82=7/1,2,3;
 4/5=5,16=3/1;
 5/5=2,38=5/2;
 1/53=4053,62=2,63=1/22;
 3/5=7,6=11,7=10,11=2,16=1,25=1,30=1,74=-58,75=-5,82=7/1,2,3;
 4/5=5,16=3/1;
 5/5=2,38=5/2;
 1/53=3043,62=2,63=2/22;
 3/5=7,6=11,7=10,11=2,16=1,25=1,30=1,74=-58,75=-5,82=7/1,2,3;
 4/5=5,16=3/1;
 5/5=2,38=5/2;
 1/53=2033,62=2,63=3/22;
 3/5=7,6=11,7=10,11=2,16=1,25=1,30=1,74=-58,75=-5,82=7/1,2,3;
 4/5=5,16=3/1;
 5/5=2,38=5/2;
 1/53=1024,62=2,63=4/22;
 3/5=7,6=11,7=10,11=2,16=1,25=1,30=1,74=-58,75=-5,82=7/1,2,3;
 4/5=5,16=3/1;
 5/5=2,38=5/2;
 1/53=5014,62=2,63=5/22;
 1/60=1,62=2/8(-22);
 99/9=1/99;
 Leave Link    1 at Sun May 10 11:07:30 2020, MaxMem= 1073741824 cpu:       0.2
 (Enter /home/matheus/.gaussian/g09/l101.exe)
 ---
 TCC
 ---
 Charge =  0 Multiplicity = 1 in supermolecule
 Charge =  0 Multiplicity = 1 in fragment  1.
 Charge =  0 Multiplicity = 1 in fragment  2.
 Symbolic Z-Matrix:
 O(Fragment=1)         0.        0.        0.725 
 O(Fragment=1)         0.        0.       -0.725 
 H(Fragment=1)        -0.70378  -0.59054   1.02351 
 H(Fragment=1)         0.        0.91872  -1.02351 
 Kr(Fragment=2)        0.       R1        0. 
       Variables:
  R1                    3.     Scan 20    0.1    
 
 NAtoms=      5 NQM=        0 NQMF=       0 NMMI=      5 NMMIF=      0
                NMic=       0 NMicF=      0.
                    Isotopes and Nuclear Properties:
 (Nuclear quadrupole moments (NQMom) in fm**2, nuclear magnetic moments (NMagM)
  in nuclear magnetons)

  Atom         1           2           3           4           5
 IAtWgt=          16          16           1           1          84
 AtmWgt=  15.9949146  15.9949146   1.0078250   1.0078250  83.9115064
 NucSpn=           0           0           1           1           0
 AtZEff=   0.0000000   0.0000000   0.0000000   0.0000000   0.0000000
 NQMom=    0.0000000   0.0000000   0.0000000   0.0000000   0.0000000
 NMagM=    0.0000000   0.0000000   2.7928460   2.7928460   0.0000000
 Leave Link  101 at Sun May 10 11:07:30 2020, MaxMem= 1073741824 cpu:       0.3
 (Enter /home/matheus/.gaussian/g09/l108.exe)
 Scan the potential surface.
 Variable   Value     No. Steps Step-Size
 -------- ----------- --------- ---------
     1       3.000000      20      0.1000
 A total of     21 points will be computed.
 Leave Link  108 at Sun May 10 11:07:30 2020, MaxMem= 1073741824 cpu:       0.0
 (Enter /home/matheus/.gaussian/g09/l202.exe)
 ---------------------------------------------------------------------------------------------------
                            Z-MATRIX (ANGSTROMS AND DEGREES)
   CD    Cent   Atom    N1       Length/X        N2       Alpha/Y        N3        Beta/Z          J
 ---------------------------------------------------------------------------------------------------
      1      1  O        0   0.000000          0.000000          0.725000
      2      2  O        0   0.000000          0.000000         -0.725000
      3      3  H        0  -0.703781         -0.590542          1.023510
      4      4  H        0   0.000000          0.918721         -1.023510
      5      5  Kr       0   0.000000          3.000000          0.000000
 ---------------------------------------------------------------------------------------------------
                         Z-Matrix orientation:                         
 ---------------------------------------------------------------------
 Center     Atomic      Atomic             Coordinates (Angstroms)
 Number     Number       Type             X           Y           Z
 ---------------------------------------------------------------------
      1          8           0        0.000000    0.000000    0.725000
      2          8           0        0.000000    0.000000   -0.725000
      3          1           0       -0.703781   -0.590542    1.023510
      4          1           0        0.000000    0.918721   -1.023510
      5         36           0        0.000000    3.000000    0.000000
 ---------------------------------------------------------------------
                    Distance matrix (angstroms):
                    1          2          3          4          5
     1  O    0.000000
     2  O    1.450000   0.000000
     3  H    0.966000   1.975180   0.000000
     4  H    1.975180   0.966000   2.638840   0.000000
     5  Kr   3.086361   3.086361   3.799326   2.319331   0.000000
 Stoichiometry    H2KrO2
 Framework group  C1[X(H2KrO2)]
 Deg. of freedom     9
 Full point group                 C1      NOp   1
 Largest Abelian subgroup         C1      NOp   1
 Largest concise Abelian subgroup C1      NOp   1
                         Standard orientation:                         
 ---------------------------------------------------------------------
 Center     Atomic      Atomic             Coordinates (Angstroms)
 Number     Number       Type             X           Y           Z
 ---------------------------------------------------------------------
      1          8           0       -2.016888   -0.687971   -0.094863
      2          8           0       -1.993721    0.758416    0.004771
      3          1           0       -2.624080   -1.023798    0.577220
      4          1           0       -1.070483    1.040460    0.039958
      5         36           0        0.993873   -0.016117    0.002877
 ---------------------------------------------------------------------
 Rotational constants (GHZ):     26.0617959      2.3176349      2.1364645
 Leave Link  202 at Sun May 10 11:07:30 2020, MaxMem= 1073741824 cpu:       0.0
 (Enter /home/matheus/.gaussian/g09/l122.exe)
 Leave Link  122 at Sun May 10 11:07:30 2020, MaxMem= 1073741824 cpu:       0.0
 (Enter /home/matheus/.gaussian/g09/l301.exe)
 Standard basis: Aug-CC-pVTZ (5D, 7F)
 Ernie: Thresh=  0.10000D-02 Tol=  0.10000D-05 Strict=F.
 Ernie:  38 primitive shells out of 205 were deleted.
 There are   197 symmetry adapted basis functions of A   symmetry.
 Integral buffers will be    131072 words long.
 Raffenetti 2 integral format.
 Two-electron integral symmetry is turned on.
   197 basis functions,   415 primitive gaussians,   229 cartesian basis functions
    27 alpha electrons       27 beta electrons
       nuclear repulsion energy       148.5957046553 Hartrees.
 IExCor= 4639 DFT=T Ex+Corr=wB97XD ExCW=0 ScaHFX=  1.000000
 ScaDFX=  1.000000  1.000000  1.000000  1.000000 ScalE2=  1.000000  1.000000
 IRadAn=      5 IRanWt=     -1 IRanGd=            0 ICorTp=0
  HFx wShort=  0.000000 wLong=  0.200000 cFull=  0.222036 cShort=  0.000000 cLong=  0.777964
  DFx wShort=  0.000000 wLong=  0.200000 cFull=  0.000000 cShort=  0.000000 cLong=  1.000000
 NAtoms=    5 NActive=    5 NUniq=    5 SFac= 1.00D+00 NAtFMM=   60 NAOKFM=F Big=F
 R6Disp: Dispersion energy =        -0.0008261946 Hartrees.
 Nuclear repulsion after empirical dispersion term =      148.5948784608 Hartrees.
 Leave Link  301 at Sun May 10 11:07:30 2020, MaxMem= 1073741824 cpu:       0.2
 (Enter /home/matheus/.gaussian/g09/l302.exe)
 NPDir=0 NMtPBC=     1 NCelOv=     1 NCel=       1 NClECP=     1 NCelD=      1
         NCelK=      1 NCelE2=     1 NClLst=     1 CellRange=     0.0.
 One-electron integrals computed using PRISM.
 NBasis=   197 RedAO= T  NBF=   197
 NBsUse=   197 1.00D-06 NBFU=   197
 Precomputing XC quadrature grid using
 IXCGrd= 2 IRadAn=           5 IRanWt=          -1 IRanGd=           0 AccXCQ= 0.00D+00.
 NRdTot=     427 NPtTot=      123512 NUsed=      126579 NTot=      126611
 NSgBfM=   229   229   229   229   229 NAtAll=     5     5.
 Leave Link  302 at Sun May 10 11:07:30 2020, MaxMem= 1073741824 cpu:       1.0
 (Enter /home/matheus/.gaussian/g09/l303.exe)
 DipDrv:  MaxL=1.
 Leave Link  303 at Sun May 10 11:07:30 2020, MaxMem= 1073741824 cpu:       0.2
 (Enter /home/matheus/.gaussian/g09/l401.exe)
 Harris functional with IExCor= 4639 diagonalized for initial guess.
 ExpMin= 2.53D-02 ExpMax= 1.17D+07 ExpMxC= 1.33D+04 IAcc=3 IRadAn=         5 AccDes= 0.00D+00
 HarFok:  IExCor= 4639 AccDes= 0.00D+00 IRadAn=         5 IDoV= 1
 ScaDFX=  1.000000  1.000000  1.000000  1.000000
 FoFCou: FMM=F IPFlag=           0 FMFlag=      100000 FMFlg1=           0
         NFxFlg=           0 DoJE=T BraDBF=F KetDBF=T FulRan=T
         Omega=  0.000000  0.000000  1.000000  0.000000  0.000000 ICntrl=     500 IOpCl=  0
         NMat0=    1 NMatS0=    1 NMatT0=    0 NMatD0=    1 NMtDS0=    0 NMtDT0=    0
         I1Cent=           4 NGrid=           0.
 Petite list used in FoFCou.
 Harris En= -2876.48896402831    
 Initial guess orbital symmetries:
       Occupied  (A) (A) (A) (A) (A) (A) (A) (A) (A) (A) (A) (A)
                 (A) (A) (A) (A) (A) (A) (A) (A) (A) (A) (A) (A)
                 (A) (A) (A)
       Virtual   (A) (A) (A) (A) (A) (A) (A) (A) (A) (A) (A) (A)
                 (A) (A) (A) (A) (A) (A) (A) (A) (A) (A) (A) (A)
                 (A) (A) (A) (A) (A) (A) (A) (A) (A) (A) (A) (A)
                 (A) (A) (A) (A) (A) (A) (A) (A) (A) (A) (A) (A)
                 (A) (A) (A) (A) (A) (A) (A) (A) (A) (A) (A) (A)
                 (A) (A) (A) (A) (A) (A) (A) (A) (A) (A) (A) (A)
                 (A) (A) (A) (A) (A) (A) (A) (A) (A) (A) (A) (A)
                 (A) (A) (A) (A) (A) (A) (A) (A) (A) (A) (A) (A)
                 (A) (A) (A) (A) (A) (A) (A) (A) (A) (A) (A) (A)
                 (A) (A) (A) (A) (A) (A) (A) (A) (A) (A) (A) (A)
                 (A) (A) (A) (A) (A) (A) (A) (A) (A) (A) (A) (A)
                 (A) (A) (A) (A) (A) (A) (A) (A) (A) (A) (A) (A)
                 (A) (A) (A) (A) (A) (A) (A) (A) (A) (A) (A) (A)
                 (A) (A) (A) (A) (A) (A) (A) (A) (A) (A) (A) (A)
                 (A) (A)
 The electronic state of the initial guess is 1-A.
 Leave Link  401 at Sun May 10 11:07:30 2020, MaxMem= 1073741824 cpu:       3.9
 (Enter /home/matheus/.gaussian/g09/l502.exe)
 Closed shell SCF:
 Requested convergence on RMS density matrix=1.00D-08 within 128 cycles.
 Requested convergence on MAX density matrix=1.00D-06.
 Requested convergence on             energy=1.00D-06.
 No special actions if energy rises.
 Using DIIS extrapolation, IDIIS=  1040.
 Integral symmetry usage will be decided dynamically.
       126521 words used for storage of precomputed grid.
 IEnd=      305468 IEndB=      305468 NGot=  1073741824 MDV=  1073505667
 LenX=  1073505667 LenY=  1073452785
 Fock matrices will be formed incrementally for  20 cycles.

 Cycle   1  Pass 1  IDiag  1:
 FoFJK:  IHMeth= 1 ICntrl=     0 DoSepK=T KAlg= 1 I1Cent= 0 FoldK=F
 FoFCou: FMM=F IPFlag=           0 FMFlag=      100000 FMFlg1=           0
         NFxFlg=           0 DoJE=T BraDBF=F KetDBF=F FulRan=T
         Omega=  0.000000  0.000000  1.000000  0.000000  0.000000 ICntrl=     500 IOpCl=  0
         NMat0=    1 NMatS0=    1 NMatT0=    0 NMatD0=    1 NMtDS0=    0 NMtDT0=    0
         I1Cent=           0 NGrid=           0.
 Symmetry not used in FoFCou.
 E= -2904.93625518313    
 DIIS: error= 7.34D-02 at cycle   1 NSaved=   1.
 NSaved= 1 IEnMin= 1 EnMin= -2904.93625518313     IErMin= 1 ErrMin= 7.34D-02
 ErrMax= 7.34D-02 EMaxC= 1.00D-01 BMatC= 2.17D+00 BMatP= 2.17D+00
 IDIUse=3 WtCom= 2.66D-01 WtEn= 7.34D-01
 Coeff-Com:  0.100D+01
 Coeff-En:   0.100D+01
 Coeff:      0.100D+01
 Gap=     0.512 Goal=   None    Shift=    0.000
 GapD=    0.512 DampG=2.000 DampE=0.500 DampFc=1.0000 IDamp=-1.
 RMSDP=6.12D-03 MaxDP=3.67D-01              OVMax= 1.77D-01

 Cycle   2  Pass 1  IDiag  1:
 RMSU=  4.30D-03    CP:  1.03D+00
 FoFJK:  IHMeth= 1 ICntrl=     0 DoSepK=T KAlg= 1 I1Cent= 0 FoldK=F
 E= -2905.22876753755     Delta-E=       -0.292512354421 Rises=F Damp=F
 DIIS: error= 3.57D-02 at cycle   2 NSaved=   2.
 NSaved= 2 IEnMin= 2 EnMin= -2905.22876753755     IErMin= 2 ErrMin= 3.57D-02
 ErrMax= 3.57D-02 EMaxC= 1.00D-01 BMatC= 5.64D-01 BMatP= 2.17D+00
 IDIUse=3 WtCom= 6.43D-01 WtEn= 3.57D-01
 Coeff-Com:  0.330D+00 0.670D+00
 Coeff-En:   0.218D+00 0.782D+00
 Coeff:      0.290D+00 0.710D+00
 Gap=     0.453 Goal=   None    Shift=    0.000
 RMSDP=2.72D-03 MaxDP=1.58D-01 DE=-2.93D-01 OVMax= 7.69D-02

 Cycle   3  Pass 1  IDiag  1:
 RMSU=  5.59D-04    CP:  1.02D+00  5.75D-01
 FoFJK:  IHMeth= 1 ICntrl=     0 DoSepK=T KAlg= 1 I1Cent= 0 FoldK=F
 E= -2905.42073005699     Delta-E=       -0.191962519442 Rises=F Damp=F
 DIIS: error= 6.49D-03 at cycle   3 NSaved=   3.
 NSaved= 3 IEnMin= 3 EnMin= -2905.42073005699     IErMin= 3 ErrMin= 6.49D-03
 ErrMax= 6.49D-03 EMaxC= 1.00D-01 BMatC= 1.98D-02 BMatP= 5.64D-01
 IDIUse=3 WtCom= 9.35D-01 WtEn= 6.49D-02
 Coeff-Com:  0.359D-01 0.195D+00 0.769D+00
 Coeff-En:   0.000D+00 0.000D+00 0.100D+01
 Coeff:      0.336D-01 0.183D+00 0.784D+00
 Gap=     0.417 Goal=   None    Shift=    0.000
 RMSDP=5.07D-04 MaxDP=2.19D-02 DE=-1.92D-01 OVMax= 2.65D-02

 Cycle   4  Pass 1  IDiag  1:
 RMSU=  2.41D-04    CP:  1.02D+00  6.35D-01  8.70D-01
 FoFJK:  IHMeth= 1 ICntrl=     0 DoSepK=T KAlg= 1 I1Cent= 0 FoldK=F
 E= -2905.42957463962     Delta-E=       -0.008844582625 Rises=F Damp=F
 DIIS: error= 2.75D-03 at cycle   4 NSaved=   4.
 NSaved= 4 IEnMin= 4 EnMin= -2905.42957463962     IErMin= 4 ErrMin= 2.75D-03
 ErrMax= 2.75D-03 EMaxC= 1.00D-01 BMatC= 2.06D-03 BMatP= 1.98D-02
 IDIUse=3 WtCom= 9.73D-01 WtEn= 2.75D-02
 Coeff-Com: -0.997D-03 0.550D-01 0.380D+00 0.566D+00
 Coeff-En:   0.000D+00 0.000D+00 0.000D+00 0.100D+01
 Coeff:     -0.969D-03 0.535D-01 0.370D+00 0.578D+00
 Gap=     0.402 Goal=   None    Shift=    0.000
 RMSDP=1.29D-04 MaxDP=7.69D-03 DE=-8.84D-03 OVMax= 7.69D-03

 Cycle   5  Pass 1  IDiag  1:
 RMSU=  4.02D-05    CP:  1.02D+00  6.33D-01  9.16D-01  6.83D-01
 FoFJK:  IHMeth= 1 ICntrl=     0 DoSepK=T KAlg= 1 I1Cent= 0 FoldK=F
 E= -2905.43081594845     Delta-E=       -0.001241308826 Rises=F Damp=F
 DIIS: error= 3.25D-04 at cycle   5 NSaved=   5.
 NSaved= 5 IEnMin= 5 EnMin= -2905.43081594845     IErMin= 5 ErrMin= 3.25D-04
 ErrMax= 3.25D-04 EMaxC= 1.00D-01 BMatC= 3.78D-05 BMatP= 2.06D-03
 IDIUse=3 WtCom= 9.97D-01 WtEn= 3.25D-03
 Coeff-Com: -0.113D-02 0.184D-01 0.143D+00 0.238D+00 0.602D+00
 Coeff-En:   0.000D+00 0.000D+00 0.000D+00 0.000D+00 0.100D+01
 Coeff:     -0.113D-02 0.183D-01 0.143D+00 0.237D+00 0.603D+00
 Gap=     0.400 Goal=   None    Shift=    0.000
 RMSDP=2.28D-05 MaxDP=1.04D-03 DE=-1.24D-03 OVMax= 1.77D-03

 Cycle   6  Pass 1  IDiag  1:
 RMSU=  1.55D-05    CP:  1.02D+00  6.32D-01  9.20D-01  6.97D-01  9.75D-01
 FoFJK:  IHMeth= 1 ICntrl=     0 DoSepK=T KAlg= 1 I1Cent= 0 FoldK=F
 E= -2905.43083619401     Delta-E=       -0.000020245561 Rises=F Damp=F
 DIIS: error= 1.67D-04 at cycle   6 NSaved=   6.
 NSaved= 6 IEnMin= 6 EnMin= -2905.43083619401     IErMin= 6 ErrMin= 1.67D-04
 ErrMax= 1.67D-04 EMaxC= 1.00D-01 BMatC= 8.44D-06 BMatP= 3.78D-05
 IDIUse=3 WtCom= 9.98D-01 WtEn= 1.67D-03
 Coeff-Com: -0.372D-03-0.540D-02-0.258D-01-0.313D-01 0.314D+00 0.749D+00
 Coeff-En:   0.000D+00 0.000D+00 0.000D+00 0.000D+00 0.137D+00 0.863D+00
 Coeff:     -0.371D-03-0.539D-02-0.257D-01-0.313D-01 0.313D+00 0.749D+00
 Gap=     0.400 Goal=   None    Shift=    0.000
 RMSDP=1.22D-05 MaxDP=4.40D-04 DE=-2.02D-05 OVMax= 6.37D-04

 Cycle   7  Pass 1  IDiag  1:
 RMSU=  4.12D-06    CP:  1.02D+00  6.32D-01  9.27D-01  7.05D-01  1.13D+00
                    CP:  9.25D-01
 FoFJK:  IHMeth= 1 ICntrl=     0 DoSepK=T KAlg= 1 I1Cent= 0 FoldK=F
 E= -2905.43084232781     Delta-E=       -0.000006133806 Rises=F Damp=F
 DIIS: error= 1.15D-05 at cycle   7 NSaved=   7.
 NSaved= 7 IEnMin= 7 EnMin= -2905.43084232781     IErMin= 7 ErrMin= 1.15D-05
 ErrMax= 1.15D-05 EMaxC= 1.00D-01 BMatC= 5.18D-08 BMatP= 8.44D-06
 IDIUse=1 WtCom= 1.00D+00 WtEn= 0.00D+00
 Coeff-Com:  0.155D-04-0.105D-02-0.717D-02-0.103D-01-0.381D-02 0.568D-01
 Coeff-Com:  0.965D+00
 Coeff:      0.155D-04-0.105D-02-0.717D-02-0.103D-01-0.381D-02 0.568D-01
 Coeff:      0.965D+00
 Gap=     0.400 Goal=   None    Shift=    0.000
 RMSDP=2.37D-06 MaxDP=5.90D-05 DE=-6.13D-06 OVMax= 1.69D-04

 Cycle   8  Pass 1  IDiag  1:
 RMSU=  9.13D-07    CP:  1.02D+00  6.32D-01  9.27D-01  7.06D-01  1.15D+00
                    CP:  9.71D-01  1.16D+00
 FoFJK:  IHMeth= 1 ICntrl=     0 DoSepK=T KAlg= 1 I1Cent= 0 FoldK=F
 E= -2905.43084243215     Delta-E=       -0.000000104340 Rises=F Damp=F
 DIIS: error= 2.51D-06 at cycle   8 NSaved=   8.
 NSaved= 8 IEnMin= 8 EnMin= -2905.43084243215     IErMin= 8 ErrMin= 2.51D-06
 ErrMax= 2.51D-06 EMaxC= 1.00D-01 BMatC= 3.12D-09 BMatP= 5.18D-08
 IDIUse=1 WtCom= 1.00D+00 WtEn= 0.00D+00
 Coeff-Com:  0.144D-04 0.103D-03 0.346D-03 0.157D-03-0.148D-01-0.279D-01
 Coeff-Com:  0.671D-01 0.975D+00
 Coeff:      0.144D-04 0.103D-03 0.346D-03 0.157D-03-0.148D-01-0.279D-01
 Coeff:      0.671D-01 0.975D+00
 Gap=     0.400 Goal=   None    Shift=    0.000
 RMSDP=6.28D-07 MaxDP=1.34D-05 DE=-1.04D-07 OVMax= 5.41D-05

 Cycle   9  Pass 1  IDiag  1:
 RMSU=  1.81D-07    CP:  1.02D+00  6.32D-01  9.27D-01  7.07D-01  1.15D+00
                    CP:  9.78D-01  1.23D+00  1.26D+00
 FoFJK:  IHMeth= 1 ICntrl=     0 DoSepK=T KAlg= 1 I1Cent= 0 FoldK=F
 E= -2905.43084243964     Delta-E=       -0.000000007487 Rises=F Damp=F
 DIIS: error= 9.15D-07 at cycle   9 NSaved=   9.
 NSaved= 9 IEnMin= 9 EnMin= -2905.43084243964     IErMin= 9 ErrMin= 9.15D-07
 ErrMax= 9.15D-07 EMaxC= 1.00D-01 BMatC= 2.80D-10 BMatP= 3.12D-09
 IDIUse=1 WtCom= 1.00D+00 WtEn= 0.00D+00
 Coeff-Com: -0.993D-06 0.645D-04 0.446D-03 0.479D-03-0.580D-03-0.382D-02
 Coeff-Com: -0.543D-01 0.472D-02 0.105D+01
 Coeff:     -0.993D-06 0.645D-04 0.446D-03 0.479D-03-0.580D-03-0.382D-02
 Coeff:     -0.543D-01 0.472D-02 0.105D+01
 Gap=     0.400 Goal=   None    Shift=    0.000
 RMSDP=1.90D-07 MaxDP=5.04D-06 DE=-7.49D-09 OVMax= 2.29D-05

 Cycle  10  Pass 1  IDiag  1:
 RMSU=  7.03D-08    CP:  1.02D+00  6.32D-01  9.27D-01  7.06D-01  1.15D+00
                    CP:  9.79D-01  1.24D+00  1.35D+00  1.30D+00
 FoFJK:  IHMeth= 1 ICntrl=     0 DoSepK=T KAlg= 1 I1Cent= 0 FoldK=F
 E= -2905.43084244053     Delta-E=       -0.000000000894 Rises=F Damp=F
 DIIS: error= 3.52D-07 at cycle  10 NSaved=  10.
 NSaved=10 IEnMin=10 EnMin= -2905.43084244053     IErMin=10 ErrMin= 3.52D-07
 ErrMax= 3.52D-07 EMaxC= 1.00D-01 BMatC= 3.21D-11 BMatP= 2.80D-10
 IDIUse=1 WtCom= 1.00D+00 WtEn= 0.00D+00
 Coeff-Com: -0.733D-06-0.343D-05-0.910D-05-0.383D-05 0.127D-02 0.257D-02
 Coeff-Com: -0.417D-02-0.105D+00 0.838D-01 0.102D+01
 Coeff:     -0.733D-06-0.343D-05-0.910D-05-0.383D-05 0.127D-02 0.257D-02
 Coeff:     -0.417D-02-0.105D+00 0.838D-01 0.102D+01
 Gap=     0.400 Goal=   None    Shift=    0.000
 RMSDP=6.49D-08 MaxDP=1.39D-06 DE=-8.94D-10 OVMax= 9.53D-06

 Cycle  11  Pass 1  IDiag  1:
 RMSU=  1.90D-08    CP:  1.02D+00  6.32D-01  9.27D-01  7.06D-01  1.15D+00
                    CP:  9.79D-01  1.24D+00  1.36D+00  1.46D+00  1.37D+00
 FoFJK:  IHMeth= 1 ICntrl=     0 DoSepK=T KAlg= 1 I1Cent= 0 FoldK=F
 E= -2905.43084244062     Delta-E=       -0.000000000092 Rises=F Damp=F
 DIIS: error= 1.30D-07 at cycle  11 NSaved=  11.
 NSaved=11 IEnMin=11 EnMin= -2905.43084244062     IErMin=11 ErrMin= 1.30D-07
 ErrMax= 1.30D-07 EMaxC= 1.00D-01 BMatC= 4.03D-12 BMatP= 3.21D-11
 IDIUse=1 WtCom= 1.00D+00 WtEn= 0.00D+00
 Coeff-Com:  0.351D-06-0.636D-05-0.503D-04-0.387D-04-0.373D-04 0.246D-03
 Coeff-Com:  0.758D-02-0.300D-02-0.106D+00-0.769D-01 0.118D+01
 Coeff:      0.351D-06-0.636D-05-0.503D-04-0.387D-04-0.373D-04 0.246D-03
 Coeff:      0.758D-02-0.300D-02-0.106D+00-0.769D-01 0.118D+01
 Gap=     0.400 Goal=   None    Shift=    0.000
 RMSDP=2.89D-08 MaxDP=6.69D-07 DE=-9.19D-11 OVMax= 4.30D-06

 Cycle  12  Pass 1  IDiag  1:
 RMSU=  5.79D-09    CP:  1.02D+00  6.32D-01  9.27D-01  7.06D-01  1.15D+00
                    CP:  9.79D-01  1.24D+00  1.36D+00  1.51D+00  1.59D+00
                    CP:  1.42D+00
 FoFJK:  IHMeth= 1 ICntrl=     0 DoSepK=T KAlg= 1 I1Cent= 0 FoldK=F
 E= -2905.43084244066     Delta-E=       -0.000000000033 Rises=F Damp=F
 DIIS: error= 3.78D-08 at cycle  12 NSaved=  12.
 NSaved=12 IEnMin=12 EnMin= -2905.43084244066     IErMin=12 ErrMin= 3.78D-08
 ErrMax= 3.78D-08 EMaxC= 1.00D-01 BMatC= 2.26D-13 BMatP= 4.03D-12
 IDIUse=1 WtCom= 1.00D+00 WtEn= 0.00D+00
 Coeff-Com:  0.523D-08-0.276D-06-0.110D-05-0.446D-05-0.114D-03-0.225D-03
 Coeff-Com:  0.531D-03 0.721D-02 0.689D-03-0.762D-01-0.862D-01 0.115D+01
 Coeff:      0.523D-08-0.276D-06-0.110D-05-0.446D-05-0.114D-03-0.225D-03
 Coeff:      0.531D-03 0.721D-02 0.689D-03-0.762D-01-0.862D-01 0.115D+01
 Gap=     0.400 Goal=   None    Shift=    0.000
 RMSDP=8.66D-09 MaxDP=1.84D-07 DE=-3.27D-11 OVMax= 1.17D-06

 SCF Done:  E(RwB97XD) =  -2905.43084244     A.U. after   12 cycles
             Convg  =    0.8663D-08             -V/T =  2.0015
 KE= 2.900976042208D+03 PE=-7.235600629138D+03 EE= 1.280598866028D+03
 Leave Link  502 at Sun May 10 11:08:09 2020, MaxMem= 1073741824 cpu:     311.7
 (Enter /home/matheus/.gaussian/g09/l601.exe)
 Copying SCF densities to generalized density rwf, IOpCl= 0 IROHF=0.

 **********************************************************************

            Population analysis using the SCF density.

 **********************************************************************

 Orbital symmetries:
       Occupied  (A) (A) (A) (A) (A) (A) (A) (A) (A) (A) (A) (A)
                 (A) (A) (A) (A) (A) (A) (A) (A) (A) (A) (A) (A)
                 (A) (A) (A)
       Virtual   (A) (A) (A) (A) (A) (A) (A) (A) (A) (A) (A) (A)
                 (A) (A) (A) (A) (A) (A) (A) (A) (A) (A) (A) (A)
                 (A) (A) (A) (A) (A) (A) (A) (A) (A) (A) (A) (A)
                 (A) (A) (A) (A) (A) (A) (A) (A) (A) (A) (A) (A)
                 (A) (A) (A) (A) (A) (A) (A) (A) (A) (A) (A) (A)
                 (A) (A) (A) (A) (A) (A) (A) (A) (A) (A) (A) (A)
                 (A) (A) (A) (A) (A) (A) (A) (A) (A) (A) (A) (A)
                 (A) (A) (A) (A) (A) (A) (A) (A) (A) (A) (A) (A)
                 (A) (A) (A) (A) (A) (A) (A) (A) (A) (A) (A) (A)
                 (A) (A) (A) (A) (A) (A) (A) (A) (A) (A) (A) (A)
                 (A) (A) (A) (A) (A) (A) (A) (A) (A) (A) (A) (A)
                 (A) (A) (A) (A) (A) (A) (A) (A) (A) (A) (A) (A)
                 (A) (A) (A) (A) (A) (A) (A) (A) (A) (A) (A) (A)
                 (A) (A) (A) (A) (A) (A) (A) (A) (A) (A) (A) (A)
                 (A) (A)
 The electronic state is 1-A.
 Alpha  occ. eigenvalues -- -513.06900 -67.33585 -60.88470 -60.88456 -60.88449
 Alpha  occ. eigenvalues --  -19.31694 -19.31295  -9.78894  -7.48228  -7.48181
 Alpha  occ. eigenvalues --   -7.48157  -3.34965  -3.34956  -3.34937  -3.34899
 Alpha  occ. eigenvalues --   -3.34897  -1.22000  -1.01059  -0.99517  -0.63916
 Alpha  occ. eigenvalues --   -0.58934  -0.50956  -0.48002  -0.47551  -0.46850
 Alpha  occ. eigenvalues --   -0.42029  -0.36485
 Alpha virt. eigenvalues --    0.03530   0.04213   0.07823   0.09711   0.10592
 Alpha virt. eigenvalues --    0.11725   0.13526   0.14001   0.16770   0.17786
 Alpha virt. eigenvalues --    0.17952   0.19027   0.20600   0.22223   0.23493
 Alpha virt. eigenvalues --    0.24125   0.25627   0.28025   0.30945   0.33061
 Alpha virt. eigenvalues --    0.33553   0.34608   0.35645   0.38376   0.39251
 Alpha virt. eigenvalues --    0.40712   0.41278   0.47291   0.51341   0.54570
 Alpha virt. eigenvalues --    0.55499   0.57722   0.60822   0.65400   0.66423
 Alpha virt. eigenvalues --    0.69280   0.70089   0.70786   0.72882   0.74223
 Alpha virt. eigenvalues --    0.74497   0.76543   0.76944   0.78978   0.80508
 Alpha virt. eigenvalues --    0.83621   0.84190   0.86351   0.88421   0.88471
 Alpha virt. eigenvalues --    0.91479   0.92680   0.94662   0.95889   0.98036
 Alpha virt. eigenvalues --    1.00086   1.00886   1.02745   1.05932   1.06987
 Alpha virt. eigenvalues --    1.08500   1.12501   1.13470   1.16411   1.21112
 Alpha virt. eigenvalues --    1.24284   1.29970   1.31433   1.35779   1.38853
 Alpha virt. eigenvalues --    1.39876   1.48101   1.51513   1.52980   1.58173
 Alpha virt. eigenvalues --    1.62441   1.72354   1.80988   1.82893   1.91471
 Alpha virt. eigenvalues --    1.95323   1.98214   2.06089   2.10451   2.12698
 Alpha virt. eigenvalues --    2.13337   2.16298   2.18496   2.19567   2.21794
 Alpha virt. eigenvalues --    2.23159   2.27863   2.28560   2.29300   2.33321
 Alpha virt. eigenvalues --    2.34284   2.36615   2.41480   2.43477   2.45896
 Alpha virt. eigenvalues --    2.45927   2.47921   2.50848   2.52655   2.55470
 Alpha virt. eigenvalues --    2.57653   2.59358   2.61886   2.63272   2.68468
 Alpha virt. eigenvalues --    2.70350   2.73282   2.78683   2.83459   2.84410
 Alpha virt. eigenvalues --    2.89435   3.02397   3.07963   3.11349   3.59871
 Alpha virt. eigenvalues --    3.64022   3.85249   3.95782   3.99797   4.02015
 Alpha virt. eigenvalues --    4.08061   4.12376   4.18341   4.22505   4.25216
 Alpha virt. eigenvalues --    4.42937   4.47224   4.49438   4.52054   4.68603
 Alpha virt. eigenvalues --    4.87174   4.95696   5.03836   5.07958   5.08294
 Alpha virt. eigenvalues --    5.21854   5.41351   5.81758   6.04064   6.06174
 Alpha virt. eigenvalues --    6.09426   6.29145   6.33312   6.38826   6.50923
 Alpha virt. eigenvalues --    6.60580   6.73475   6.75195   6.79946   6.82876
 Alpha virt. eigenvalues --    6.84188   6.87070   6.88246   6.94789   7.00696
 Alpha virt. eigenvalues --    7.01815   7.17657   7.23966   7.38776   7.74915
 Alpha virt. eigenvalues --    7.76101   8.04647   8.09829  13.95257  14.64120
          Condensed to atoms (all electrons):
              1          2          3          4          5
     1  O    8.155318  -0.173378   0.226466   0.003103  -0.022766
     2  O   -0.173378   8.274015   0.007252   0.183798  -0.017692
     3  H    0.226466   0.007252   0.554458   0.003505   0.002982
     4  H    0.003103   0.183798   0.003505   0.560458  -0.004508
     5  Kr  -0.022766  -0.017692   0.002982  -0.004508  36.038226
 Mulliken atomic charges:
              1
     1  O   -0.188743
     2  O   -0.273996
     3  H    0.205337
     4  H    0.253644
     5  Kr   0.003758
 Sum of Mulliken atomic charges =   0.00000
 Mulliken charges with hydrogens summed into heavy atoms:
              1
     1  O    0.016593
     2  O   -0.020351
     5  Kr   0.003758
 Sum of Mulliken charges with hydrogens summed into heavy atoms =   0.00000
          Condensed to fragments (all electrons):
     1      -0.003758
     2       0.003758
 Electronic spatial extent (au):  <R**2>=            489.4466
 Charge=              0.0000 electrons
 Dipole moment (field-independent basis, Debye):
    X=              0.7063    Y=             -0.3702    Z=              1.1662  Tot=              1.4127
 Quadrupole moment (field-independent basis, Debye-Ang):
   XX=            -29.5933   YY=            -28.0802   ZZ=            -29.6951
   XY=              3.4115   XZ=             -3.3590   YZ=             -1.3174
 Traceless Quadrupole moment (field-independent basis, Debye-Ang):
   XX=             -0.4705   YY=              1.0426   ZZ=             -0.5722
   XY=              3.4115   XZ=             -3.3590   YZ=             -1.3174
 Octapole moment (field-independent basis, Debye-Ang**2):
  XXX=             14.7098  YYY=             -0.9144  ZZZ=              0.7058  XYY=              4.1838
  XXY=            -13.1490  XXZ=              9.1239  XZZ=              6.3194  YZZ=             -1.2010
  YYZ=              1.5803  XYZ=              3.6948
 Hexadecapole moment (field-independent basis, Debye-Ang**3):
 XXXX=           -394.7993 YYYY=            -63.3468 ZZZZ=            -29.9055 XXXY=             37.1111
 XXXZ=            -25.5453 YYYX=              5.4538 YYYZ=             -1.7532 ZZZX=             -2.2688
 ZZZY=             -1.0793 XXYY=            -76.0703 XXZZ=            -73.6798 YYZZ=            -16.6567
 XXYZ=            -10.1910 YYXZ=             -4.2340 ZZXY=              2.6230
 N-N= 1.485948784608D+02 E-N=-7.235600626755D+03  KE= 2.900976042208D+03
 No NMR shielding tensors so no spin-rotation constants.
 Leave Link  601 at Sun May 10 11:08:09 2020, MaxMem= 1073741824 cpu:       0.7
 (Enter /home/matheus/.gaussian/g09/l122.exe)
 Counterpoise: doing DCBS calculation for fragment   1 NewBq=T
 Leave Link  122 at Sun May 10 11:08:09 2020, MaxMem= 1073741824 cpu:       0.0
 (Enter /home/matheus/.gaussian/g09/l301.exe)
 Basis read from rwf:  (5D, 7F)
 No pseudopotential information found on rwf file.
 There are   197 symmetry adapted basis functions of A   symmetry.
 Integral buffers will be    131072 words long.
 Raffenetti 2 integral format.
 Two-electron integral symmetry is turned on.
   197 basis functions,   415 primitive gaussians,   229 cartesian basis functions
     9 alpha electrons        9 beta electrons
       nuclear repulsion energy        36.6087755249 Hartrees.
 IExCor= 4639 DFT=T Ex+Corr=wB97XD ExCW=0 ScaHFX=  1.000000
 ScaDFX=  1.000000  1.000000  1.000000  1.000000 ScalE2=  1.000000  1.000000
 IRadAn=      5 IRanWt=     -1 IRanGd=            0 ICorTp=0
  HFx wShort=  0.000000 wLong=  0.200000 cFull=  0.222036 cShort=  0.000000 cLong=  0.777964
  DFx wShort=  0.000000 wLong=  0.200000 cFull=  0.000000 cShort=  0.000000 cLong=  1.000000
 NAtoms=    5 NActive=    5 NUniq=    5 SFac= 1.00D+00 NAtFMM=   60 NAOKFM=F Big=F
 R6Disp: Dispersion energy =        -0.0002181899 Hartrees.
 Nuclear repulsion after empirical dispersion term =       36.6085573350 Hartrees.
 No density basis found on file   718.
 Leave Link  301 at Sun May 10 11:08:09 2020, MaxMem= 1073741824 cpu:       0.2
 (Enter /home/matheus/.gaussian/g09/l302.exe)
 NPDir=0 NMtPBC=     1 NCelOv=     1 NCel=       1 NClECP=     1 NCelD=      1
         NCelK=      1 NCelE2=     1 NClLst=     1 CellRange=     0.0.
 One-electron integrals computed using PRISM.
 NBasis=   197 RedAO= T  NBF=   197
 NBsUse=   197 1.00D-06 NBFU=   197
 Precomputing XC quadrature grid using
 IXCGrd= 2 IRadAn=           5 IRanWt=          -1 IRanGd=           0 AccXCQ= 0.00D+00.
 NRdTot=     427 NPtTot=      123512 NUsed=      126579 NTot=      126611
 NSgBfM=   229   229   229   229   229 NAtAll=     5     5.
 Leave Link  302 at Sun May 10 11:08:10 2020, MaxMem= 1073741824 cpu:       1.0
 (Enter /home/matheus/.gaussian/g09/l303.exe)
 DipDrv:  MaxL=1.
 Leave Link  303 at Sun May 10 11:08:10 2020, MaxMem= 1073741824 cpu:       0.2
 (Enter /home/matheus/.gaussian/g09/l401.exe)
 Harris functional with IExCor= 4639 diagonalized for initial guess.
 ExpMin= 2.53D-02 ExpMax= 1.17D+07 ExpMxC= 1.33D+04 IAcc=3 IRadAn=         5 AccDes= 0.00D+00
 HarFok:  IExCor= 4639 AccDes= 0.00D+00 IRadAn=         5 IDoV= 1
 ScaDFX=  1.000000  1.000000  1.000000  1.000000
 FoFCou: FMM=F IPFlag=           0 FMFlag=      100000 FMFlg1=           0
         NFxFlg=           0 DoJE=T BraDBF=F KetDBF=T FulRan=T
         Omega=  0.000000  0.000000  1.000000  0.000000  0.000000 ICntrl=     500 IOpCl=  0
         NMat0=    1 NMatS0=    1 NMatT0=    0 NMatD0=    1 NMtDS0=    0 NMtDT0=    0
         I1Cent=           4 NGrid=           0.
 Petite list used in FoFCou.
 Harris En= -146.293968115024    
 Initial guess orbital symmetries:
       Occupied  (A) (A) (A) (A) (A) (A) (A) (A) (A)
       Virtual   (A) (A) (A) (A) (A) (A) (A) (A) (A) (A) (A) (A)
                 (A) (A) (A) (A) (A) (A) (A) (A) (A) (A) (A) (A)
                 (A) (A) (A) (A) (A) (A) (A) (A) (A) (A) (A) (A)
                 (A) (A) (A) (A) (A) (A) (A) (A) (A) (A) (A) (A)
                 (A) (A) (A) (A) (A) (A) (A) (A) (A) (A) (A) (A)
                 (A) (A) (A) (A) (A) (A) (A) (A) (A) (A) (A) (A)
                 (A) (A) (A) (A) (A) (A) (A) (A) (A) (A) (A) (A)
                 (A) (A) (A) (A) (A) (A) (A) (A) (A) (A) (A) (A)
                 (A) (A) (A) (A) (A) (A) (A) (A) (A) (A) (A) (A)
                 (A) (A) (A) (A) (A) (A) (A) (A) (A) (A) (A) (A)
                 (A) (A) (A) (A) (A) (A) (A) (A) (A) (A) (A) (A)
                 (A) (A) (A) (A) (A) (A) (A) (A) (A) (A) (A) (A)
                 (A) (A) (A) (A) (A) (A) (A) (A) (A) (A) (A) (A)
                 (A) (A) (A) (A) (A) (A) (A) (A) (A) (A) (A) (A)
                 (A) (A) (A) (A) (A) (A) (A) (A) (A) (A) (A) (A)
                 (A) (A) (A) (A) (A) (A) (A) (A)
 The electronic state of the initial guess is 1-A.
 Leave Link  401 at Sun May 10 11:08:10 2020, MaxMem= 1073741824 cpu:       3.7
 (Enter /home/matheus/.gaussian/g09/l502.exe)
 Closed shell SCF:
 Requested convergence on RMS density matrix=1.00D-08 within 128 cycles.
 Requested convergence on MAX density matrix=1.00D-06.
 Requested convergence on             energy=1.00D-06.
 No special actions if energy rises.
 Using DIIS extrapolation, IDIIS=  1040.
 Integral symmetry usage will be decided dynamically.
       126521 words used for storage of precomputed grid.
 IEnd=      305468 IEndB=      305468 NGot=  1073741824 MDV=  1073505667
 LenX=  1073505667 LenY=  1073452785
 Fock matrices will be formed incrementally for  20 cycles.

 Cycle   1  Pass 1  IDiag  1:
 FoFJK:  IHMeth= 1 ICntrl=     0 DoSepK=T KAlg= 1 I1Cent= 0 FoldK=F
 FoFCou: FMM=F IPFlag=           0 FMFlag=      100000 FMFlg1=           0
         NFxFlg=           0 DoJE=T BraDBF=F KetDBF=F FulRan=T
         Omega=  0.000000  0.000000  1.000000  0.000000  0.000000 ICntrl=     500 IOpCl=  0
         NMat0=    1 NMatS0=    1 NMatT0=    0 NMatD0=    1 NMtDS0=    0 NMtDT0=    0
         I1Cent=           0 NGrid=           0.
 Symmetry not used in FoFCou.
 E= -151.477939160507    
 DIIS: error= 2.76D-02 at cycle   1 NSaved=   1.
 NSaved= 1 IEnMin= 1 EnMin= -151.477939160507     IErMin= 1 ErrMin= 2.76D-02
 ErrMax= 2.76D-02 EMaxC= 1.00D-01 BMatC= 3.00D-01 BMatP= 3.00D-01
 IDIUse=3 WtCom= 7.24D-01 WtEn= 2.76D-01
 Coeff-Com:  0.100D+01
 Coeff-En:   0.100D+01
 Coeff:      0.100D+01
 Gap=     0.510 Goal=   None    Shift=    0.000
 GapD=    0.510 DampG=2.000 DampE=0.500 DampFc=1.0000 IDamp=-1.
 RMSDP=2.39D-03 MaxDP=1.09D-01              OVMax= 1.10D-01

 Cycle   2  Pass 1  IDiag  1:
 RMSU=  1.66D-03    CP:  9.52D-01
 FoFJK:  IHMeth= 1 ICntrl=     0 DoSepK=T KAlg= 1 I1Cent= 0 FoldK=F
 E= -151.507470847756     Delta-E=       -0.029531687249 Rises=F Damp=F
 DIIS: error= 1.62D-02 at cycle   2 NSaved=   2.
 NSaved= 2 IEnMin= 2 EnMin= -151.507470847756     IErMin= 2 ErrMin= 1.62D-02
 ErrMax= 1.62D-02 EMaxC= 1.00D-01 BMatC= 9.07D-02 BMatP= 3.00D-01
 IDIUse=3 WtCom= 8.38D-01 WtEn= 1.62D-01
 Coeff-Com:  0.332D+00 0.668D+00
 Coeff-En:   0.367D+00 0.633D+00
 Coeff:      0.338D+00 0.662D+00
 Gap=     0.451 Goal=   None    Shift=    0.000
 RMSDP=1.01D-03 MaxDP=5.00D-02 DE=-2.95D-02 OVMax= 5.91D-02

 Cycle   3  Pass 1  IDiag  1:
 RMSU=  3.66D-04    CP:  9.73D-01  6.42D-01
 FoFJK:  IHMeth= 1 ICntrl=     0 DoSepK=T KAlg= 1 I1Cent= 0 FoldK=F
 E= -151.556316959089     Delta-E=       -0.048846111333 Rises=F Damp=F
 DIIS: error= 4.63D-03 at cycle   3 NSaved=   3.
 NSaved= 3 IEnMin= 3 EnMin= -151.556316959089     IErMin= 3 ErrMin= 4.63D-03
 ErrMax= 4.63D-03 EMaxC= 1.00D-01 BMatC= 6.54D-03 BMatP= 9.07D-02
 IDIUse=3 WtCom= 9.54D-01 WtEn= 4.63D-02
 Coeff-Com:  0.126D-01 0.220D+00 0.768D+00
 Coeff-En:   0.000D+00 0.000D+00 0.100D+01
 Coeff:      0.120D-01 0.210D+00 0.778D+00
 Gap=     0.401 Goal=   None    Shift=    0.000
 RMSDP=2.80D-04 MaxDP=1.25D-02 DE=-4.88D-02 OVMax= 1.66D-02

 Cycle   4  Pass 1  IDiag  1:
 RMSU=  6.36D-05    CP:  9.67D-01  7.45D-01  8.16D-01
 FoFJK:  IHMeth= 1 ICntrl=     0 DoSepK=T KAlg= 1 I1Cent= 0 FoldK=F
 E= -151.560501685748     Delta-E=       -0.004184726659 Rises=F Damp=F
 DIIS: error= 4.11D-04 at cycle   4 NSaved=   4.
 NSaved= 4 IEnMin= 4 EnMin= -151.560501685748     IErMin= 4 ErrMin= 4.11D-04
 ErrMax= 4.11D-04 EMaxC= 1.00D-01 BMatC= 5.50D-05 BMatP= 6.54D-03
 IDIUse=3 WtCom= 9.96D-01 WtEn= 4.11D-03
 Coeff-Com: -0.394D-03 0.109D-01 0.115D+00 0.874D+00
 Coeff-En:   0.000D+00 0.000D+00 0.000D+00 0.100D+01
 Coeff:     -0.393D-03 0.108D-01 0.115D+00 0.875D+00
 Gap=     0.398 Goal=   None    Shift=    0.000
 RMSDP=3.54D-05 MaxDP=2.03D-03 DE=-4.18D-03 OVMax= 1.53D-03

 Cycle   5  Pass 1  IDiag  1:
 RMSU=  1.20D-05    CP:  9.68D-01  7.38D-01  8.60D-01  1.12D+00
 FoFJK:  IHMeth= 1 ICntrl=     0 DoSepK=T KAlg= 1 I1Cent= 0 FoldK=F
 E= -151.560541250601     Delta-E=       -0.000039564853 Rises=F Damp=F
 DIIS: error= 3.95D-05 at cycle   5 NSaved=   5.
 NSaved= 5 IEnMin= 5 EnMin= -151.560541250601     IErMin= 5 ErrMin= 3.95D-05
 ErrMax= 3.95D-05 EMaxC= 1.00D-01 BMatC= 5.15D-07 BMatP= 5.50D-05
 IDIUse=1 WtCom= 1.00D+00 WtEn= 0.00D+00
 Coeff-Com: -0.550D-03-0.101D-01-0.342D-01-0.278D-01 0.107D+01
 Coeff:     -0.550D-03-0.101D-01-0.342D-01-0.278D-01 0.107D+01
 Gap=     0.398 Goal=   None    Shift=    0.000
 RMSDP=9.33D-06 MaxDP=3.70D-04 DE=-3.96D-05 OVMax= 6.48D-04

 Cycle   6  Pass 1  IDiag  1:
 RMSU=  2.35D-06    CP:  9.68D-01  7.38D-01  8.68D-01  1.19D+00  1.26D+00
 FoFJK:  IHMeth= 1 ICntrl=     0 DoSepK=T KAlg= 1 I1Cent= 0 FoldK=F
 E= -151.560542449253     Delta-E=       -0.000001198653 Rises=F Damp=F
 DIIS: error= 7.93D-06 at cycle   6 NSaved=   6.
 NSaved= 6 IEnMin= 6 EnMin= -151.560542449253     IErMin= 6 ErrMin= 7.93D-06
 ErrMax= 7.93D-06 EMaxC= 1.00D-01 BMatC= 2.23D-08 BMatP= 5.15D-07
 IDIUse=1 WtCom= 1.00D+00 WtEn= 0.00D+00
 Coeff-Com:  0.553D-05-0.637D-03-0.512D-02-0.275D-01 0.528D-01 0.981D+00
 Coeff:      0.553D-05-0.637D-03-0.512D-02-0.275D-01 0.528D-01 0.981D+00
 Gap=     0.398 Goal=   None    Shift=    0.000
 RMSDP=1.56D-06 MaxDP=5.94D-05 DE=-1.20D-06 OVMax= 1.54D-04

 Cycle   7  Pass 1  IDiag  1:
 RMSU=  4.50D-07    CP:  9.68D-01  7.39D-01  8.69D-01  1.20D+00  1.30D+00
                    CP:  1.31D+00
 FoFJK:  IHMeth= 1 ICntrl=     0 DoSepK=T KAlg= 1 I1Cent= 0 FoldK=F
 E= -151.560542505706     Delta-E=       -0.000000056452 Rises=F Damp=F
 DIIS: error= 2.91D-06 at cycle   7 NSaved=   7.
 NSaved= 7 IEnMin= 7 EnMin= -151.560542505706     IErMin= 7 ErrMin= 2.91D-06
 ErrMax= 2.91D-06 EMaxC= 1.00D-01 BMatC= 2.35D-09 BMatP= 2.23D-08
 IDIUse=1 WtCom= 1.00D+00 WtEn= 0.00D+00
 Coeff-Com:  0.153D-04 0.317D-03 0.118D-02-0.325D-03-0.389D-01-0.366D-01
 Coeff-Com:  0.107D+01
 Coeff:      0.153D-04 0.317D-03 0.118D-02-0.325D-03-0.389D-01-0.366D-01
 Coeff:      0.107D+01
 Gap=     0.398 Goal=   None    Shift=    0.000
 RMSDP=5.20D-07 MaxDP=1.94D-05 DE=-5.65D-08 OVMax= 6.20D-05

 Cycle   8  Pass 1  IDiag  1:
 RMSU=  1.91D-07    CP:  9.68D-01  7.38D-01  8.69D-01  1.20D+00  1.31D+00
                    CP:  1.41D+00  1.32D+00
 FoFJK:  IHMeth= 1 ICntrl=     0 DoSepK=T KAlg= 1 I1Cent= 0 FoldK=F
 E= -151.560542511128     Delta-E=       -0.000000005422 Rises=F Damp=F
 DIIS: error= 2.83D-06 at cycle   8 NSaved=   8.
 NSaved= 8 IEnMin= 8 EnMin= -151.560542511128     IErMin= 8 ErrMin= 2.83D-06
 ErrMax= 2.83D-06 EMaxC= 1.00D-01 BMatC= 2.14D-09 BMatP= 2.35D-09
 IDIUse=1 WtCom= 1.00D+00 WtEn= 0.00D+00
 Coeff-Com:  0.714D-05 0.245D-03 0.127D-02 0.295D-02-0.257D-01-0.158D+00
 Coeff-Com:  0.640D+00 0.539D+00
 Coeff:      0.714D-05 0.245D-03 0.127D-02 0.295D-02-0.257D-01-0.158D+00
 Coeff:      0.640D+00 0.539D+00
 Gap=     0.398 Goal=   None    Shift=    0.000
 RMSDP=1.64D-07 MaxDP=7.60D-06 DE=-5.42D-09 OVMax= 1.94D-05

 Cycle   9  Pass 1  IDiag  1:
 RMSU=  8.96D-08    CP:  9.68D-01  7.38D-01  8.69D-01  1.20D+00  1.32D+00
                    CP:  1.42D+00  1.46D+00  9.15D-01
 FoFJK:  IHMeth= 1 ICntrl=     0 DoSepK=T KAlg= 1 I1Cent= 0 FoldK=F
 E= -151.560542512957     Delta-E=       -0.000000001829 Rises=F Damp=F
 DIIS: error= 5.10D-07 at cycle   9 NSaved=   9.
 NSaved= 9 IEnMin= 9 EnMin= -151.560542512957     IErMin= 9 ErrMin= 5.10D-07
 ErrMax= 5.10D-07 EMaxC= 1.00D-01 BMatC= 8.48D-11 BMatP= 2.14D-09
 IDIUse=1 WtCom= 1.00D+00 WtEn= 0.00D+00
 Coeff-Com: -0.114D-05-0.176D-04-0.347D-04 0.982D-04 0.593D-02-0.303D-01
 Coeff-Com: -0.634D-01 0.965D-01 0.991D+00
 Coeff:     -0.114D-05-0.176D-04-0.347D-04 0.982D-04 0.593D-02-0.303D-01
 Coeff:     -0.634D-01 0.965D-01 0.991D+00
 Gap=     0.398 Goal=   None    Shift=    0.000
 RMSDP=9.25D-08 MaxDP=2.04D-06 DE=-1.83D-09 OVMax= 1.38D-05

 Cycle  10  Pass 1  IDiag  1:
 RMSU=  1.95D-08    CP:  9.68D-01  7.38D-01  8.69D-01  1.20D+00  1.32D+00
                    CP:  1.42D+00  1.52D+00  1.15D+00  1.36D+00
 FoFJK:  IHMeth= 1 ICntrl=     0 DoSepK=T KAlg= 1 I1Cent= 0 FoldK=F
 E= -151.560542513188     Delta-E=       -0.000000000231 Rises=F Damp=F
 DIIS: error= 1.94D-07 at cycle  10 NSaved=  10.
 NSaved=10 IEnMin=10 EnMin= -151.560542513188     IErMin=10 ErrMin= 1.94D-07
 ErrMax= 1.94D-07 EMaxC= 1.00D-01 BMatC= 8.76D-12 BMatP= 8.48D-11
 IDIUse=1 WtCom= 1.00D+00 WtEn= 0.00D+00
 Coeff-Com: -0.283D-06-0.206D-04-0.146D-03-0.494D-03 0.309D-02 0.152D-01
 Coeff-Com: -0.579D-01-0.698D-01-0.161D+00 0.127D+01
 Coeff:     -0.283D-06-0.206D-04-0.146D-03-0.494D-03 0.309D-02 0.152D-01
 Coeff:     -0.579D-01-0.698D-01-0.161D+00 0.127D+01
 Gap=     0.398 Goal=   None    Shift=    0.000
 RMSDP=4.72D-08 MaxDP=1.06D-06 DE=-2.31D-10 OVMax= 7.08D-06

 Cycle  11  Pass 1  IDiag  1:
 RMSU=  7.66D-09    CP:  9.68D-01  7.38D-01  8.69D-01  1.20D+00  1.32D+00
                    CP:  1.42D+00  1.54D+00  1.25D+00  1.58D+00  1.58D+00
 FoFJK:  IHMeth= 1 ICntrl=     0 DoSepK=T KAlg= 1 I1Cent= 0 FoldK=F
 E= -151.560542513226     Delta-E=       -0.000000000038 Rises=F Damp=F
 DIIS: error= 4.36D-08 at cycle  11 NSaved=  11.
 NSaved=11 IEnMin=11 EnMin= -151.560542513226     IErMin=11 ErrMin= 4.36D-08
 ErrMax= 4.36D-08 EMaxC= 1.00D-01 BMatC= 3.39D-13 BMatP= 8.76D-12
 IDIUse=1 WtCom= 1.00D+00 WtEn= 0.00D+00
 Coeff-Com: -0.693D-07-0.125D-05-0.410D-05-0.292D-04-0.128D-03 0.119D-02
 Coeff-Com:  0.718D-02-0.420D-02-0.691D-01-0.135D-01 0.108D+01
 Coeff:     -0.693D-07-0.125D-05-0.410D-05-0.292D-04-0.128D-03 0.119D-02
 Coeff:      0.718D-02-0.420D-02-0.691D-01-0.135D-01 0.108D+01
 Gap=     0.398 Goal=   None    Shift=    0.000
 RMSDP=1.06D-08 MaxDP=2.75D-07 DE=-3.81D-11 OVMax= 1.29D-06

 Cycle  12  Pass 1  IDiag  1:
 RMSU=  2.06D-09    CP:  9.68D-01  7.38D-01  8.69D-01  1.20D+00  1.32D+00
                    CP:  1.42D+00  1.55D+00  1.27D+00  1.61D+00  1.76D+00
                    CP:  1.46D+00
 FoFJK:  IHMeth= 1 ICntrl=     0 DoSepK=T KAlg= 1 I1Cent= 0 FoldK=F
 E= -151.560542513227     Delta-E=       -0.000000000001 Rises=F Damp=F
 DIIS: error= 1.16D-08 at cycle  12 NSaved=  12.
 NSaved=12 IEnMin=12 EnMin= -151.560542513227     IErMin=12 ErrMin= 1.16D-08
 ErrMax= 1.16D-08 EMaxC= 1.00D-01 BMatC= 3.91D-14 BMatP= 3.39D-13
 IDIUse=1 WtCom= 1.00D+00 WtEn= 0.00D+00
 Coeff-Com: -0.492D-07 0.714D-06 0.928D-05 0.297D-04-0.174D-03-0.124D-02
 Coeff-Com:  0.410D-02 0.490D-02 0.983D-02-0.985D-01 0.911D-02 0.107D+01
 Coeff:     -0.492D-07 0.714D-06 0.928D-05 0.297D-04-0.174D-03-0.124D-02
 Coeff:      0.410D-02 0.490D-02 0.983D-02-0.985D-01 0.911D-02 0.107D+01
 Gap=     0.398 Goal=   None    Shift=    0.000
 RMSDP=3.84D-09 MaxDP=1.04D-07 DE=-7.11D-13 OVMax= 3.27D-07

 SCF Done:  E(RwB97XD) =  -151.560542513     A.U. after   12 cycles
             Convg  =    0.3841D-08             -V/T =  2.0059
 KE= 1.506687580984D+02 PE=-4.317252876404D+02 EE= 9.288742969376D+01
 Leave Link  502 at Sun May 10 11:08:46 2020, MaxMem= 1073741824 cpu:     287.4
 (Enter /home/matheus/.gaussian/g09/l601.exe)
 Copying SCF densities to generalized density rwf, IOpCl= 0 IROHF=0.

 **********************************************************************

            Population analysis using the SCF density.

 **********************************************************************

 Orbital symmetries:
       Occupied  (A) (A) (A) (A) (A) (A) (A) (A) (A)
       Virtual   (A) (A) (A) (A) (A) (A) (A) (A) (A) (A) (A) (A)
                 (A) (A) (A) (A) (A) (A) (A) (A) (A) (A) (A) (A)
                 (A) (A) (A) (A) (A) (A) (A) (A) (A) (A) (A) (A)
                 (A) (A) (A) (A) (A) (A) (A) (A) (A) (A) (A) (A)
                 (A) (A) (A) (A) (A) (A) (A) (A) (A) (A) (A) (A)
                 (A) (A) (A) (A) (A) (A) (A) (A) (A) (A) (A) (A)
                 (A) (A) (A) (A) (A) (A) (A) (A) (A) (A) (A) (A)
                 (A) (A) (A) (A) (A) (A) (A) (A) (A) (A) (A) (A)
                 (A) (A) (A) (A) (A) (A) (A) (A) (A) (A) (A) (A)
                 (A) (A) (A) (A) (A) (A) (A) (A) (A) (A) (A) (A)
                 (A) (A) (A) (A) (A) (A) (A) (A) (A) (A) (A) (A)
                 (A) (A) (A) (A) (A) (A) (A) (A) (A) (A) (A) (A)
                 (A) (A) (A) (A) (A) (A) (A) (A) (A) (A) (A) (A)
                 (A) (A) (A) (A) (A) (A) (A) (A) (A) (A) (A) (A)
                 (A) (A) (A) (A) (A) (A) (A) (A) (A) (A) (A) (A)
                 (A) (A) (A) (A) (A) (A) (A) (A)
 The electronic state is 1-A.
 Alpha  occ. eigenvalues --  -19.31813 -19.31808  -1.22187  -1.01156  -0.64028
 Alpha  occ. eigenvalues --   -0.58496  -0.50819  -0.42377  -0.36713
 Alpha virt. eigenvalues --    0.03108   0.03709   0.07050   0.08932   0.09454
 Alpha virt. eigenvalues --    0.10735   0.11127   0.13969   0.16749   0.17249
 Alpha virt. eigenvalues --    0.18344   0.19569   0.21246   0.23312   0.25079
 Alpha virt. eigenvalues --    0.27104   0.30671   0.31752   0.32919   0.33577
 Alpha virt. eigenvalues --    0.35017   0.38141   0.38712   0.39498   0.40604
 Alpha virt. eigenvalues --    0.42840   0.44526   0.46962   0.48875   0.49996
 Alpha virt. eigenvalues --    0.54392   0.57509   0.58956   0.61629   0.66962
 Alpha virt. eigenvalues --    0.69531   0.72177   0.72789   0.74940   0.76370
 Alpha virt. eigenvalues --    0.78643   0.80687   0.86726   0.88231   0.89439
 Alpha virt. eigenvalues --    0.90219   0.92717   0.94262   0.96295   0.98398
 Alpha virt. eigenvalues --    0.99259   1.03208   1.04870   1.07461   1.10705
 Alpha virt. eigenvalues --    1.12655   1.15505   1.18159   1.21749   1.23742
 Alpha virt. eigenvalues --    1.24955   1.30287   1.30853   1.32818   1.33800
 Alpha virt. eigenvalues --    1.34684   1.35976   1.36840   1.37415   1.38221
 Alpha virt. eigenvalues --    1.45143   1.49775   1.51018   1.52429   1.54965
 Alpha virt. eigenvalues --    1.57208   1.62988   1.66658   1.68144   1.78197
 Alpha virt. eigenvalues --    1.81056   1.83546   1.86149   1.93559   1.98745
 Alpha virt. eigenvalues --    2.05794   2.08764   2.12860   2.15286   2.19069
 Alpha virt. eigenvalues --    2.25931   2.27321   2.28430   2.33386   2.41018
 Alpha virt. eigenvalues --    2.43799   2.49574   2.50790   2.60790   2.62329
 Alpha virt. eigenvalues --    2.64431   2.71806   2.80799   2.82833   2.87171
 Alpha virt. eigenvalues --    3.01688   3.06311   3.08508   3.26941   3.31185
 Alpha virt. eigenvalues --    3.40648   3.55478   3.60017   3.66888   3.79194
 Alpha virt. eigenvalues --    3.79691   3.81602   3.83240   3.83504   3.83938
 Alpha virt. eigenvalues --    3.86744   3.88889   3.90989   3.94301   3.96286
 Alpha virt. eigenvalues --    3.99648   4.00899   4.02576   4.07656   4.10534
 Alpha virt. eigenvalues --    4.14655   4.20303   4.22421   4.28070   4.34025
 Alpha virt. eigenvalues --    4.45008   4.50140   4.52345   4.68752   4.87703
 Alpha virt. eigenvalues --    4.95584   5.03742   5.08102   5.08247   5.22182
 Alpha virt. eigenvalues --    5.41173   5.81546   6.04041   6.06070   6.09127
 Alpha virt. eigenvalues --    6.29160   6.33320   6.38734   6.50851   6.60432
 Alpha virt. eigenvalues --    6.73275   6.74939   6.79832   6.82454   6.83965
 Alpha virt. eigenvalues --    6.86908   6.88071   6.94639   7.00652   7.01615
 Alpha virt. eigenvalues --    7.17493   7.23627   7.38680   7.74726   7.75909
 Alpha virt. eigenvalues --    8.04487   8.09186  10.90894  13.95160  14.62360
 Alpha virt. eigenvalues --   14.84525  14.89625  15.11556  29.04305  29.04743
 Alpha virt. eigenvalues --   29.09213  29.14807  29.24260  49.11947 148.32559
 Alpha virt. eigenvalues --  148.39643 148.71941 752.52402
          Condensed to atoms (all electrons):
              1          2          3          4          5
     1  O    8.168926  -0.167401   0.211359  -0.000793   0.000539
     2  O   -0.167401   8.205617   0.007945   0.199040  -0.001789
     3  H    0.211359   0.007945   0.560349   0.004974  -0.000651
     4  H   -0.000793   0.199040   0.004974   0.566106  -0.004451
     5  Kr   0.000539  -0.001789  -0.000651  -0.004451   0.001456
 Mulliken atomic charges:
              1
     1  O   -0.212630
     2  O   -0.243413
     3  H    0.216023
     4  H    0.235123
     5  Kr   0.004897
 Sum of Mulliken atomic charges =   0.00000
 Mulliken charges with hydrogens summed into heavy atoms:
              1
     1  O    0.003393
     2  O   -0.008289
     5  Kr   0.004897
 Sum of Mulliken charges with hydrogens summed into heavy atoms =   0.00000
          Condensed to fragments (all electrons):
     1      -0.004897
     2       0.004897
 Electronic spatial extent (au):  <R**2>=            323.1663
 Charge=              0.0000 electrons
 Dipole moment (field-independent basis, Debye):
    X=              0.5420    Y=             -0.0919    Z=              1.2108  Tot=              1.3298
 Quadrupole moment (field-independent basis, Debye-Ang):
   XX=            -11.9643   YY=            -10.4636   ZZ=            -12.1373
   XY=              3.5748   XZ=             -3.3258   YZ=             -1.3178
 Traceless Quadrupole moment (field-independent basis, Debye-Ang):
   XX=             -0.4426   YY=              1.0581   ZZ=             -0.6156
   XY=              3.5748   XZ=             -3.3258   YZ=             -1.3178
 Octapole moment (field-independent basis, Debye-Ang**2):
  XXX=             66.2370  YYY=             -1.3754  ZZZ=              0.9376  XYY=             21.5391
  XXY=            -13.0598  XXZ=              9.2363  XZZ=             23.7175  YZZ=             -1.3529
  YYZ=              1.6564  XYZ=              3.6962
 Hexadecapole moment (field-independent basis, Debye-Ang**3):
 XXXX=           -271.0644 YYYY=            -45.0608 ZZZZ=            -11.7369 XXXY=             36.4766
 XXXZ=            -25.3382 YYYX=              4.9653 YYYZ=             -1.7562 ZZZX=             -2.0554
 ZZZY=             -1.0831 XXYY=            -52.4585 XXZZ=            -50.1940 YYZZ=            -10.5734
 XXYZ=            -10.2037 YYXZ=             -4.1579 ZZXY=              2.4185
 N-N= 3.660855733500D+01 E-N=-4.317252868456D+02  KE= 1.506687580984D+02
 No NMR shielding tensors so no spin-rotation constants.
 Leave Link  601 at Sun May 10 11:08:46 2020, MaxMem= 1073741824 cpu:       0.8
 (Enter /home/matheus/.gaussian/g09/l122.exe)
 Counterpoise: doing DCBS calculation for fragment   2 NewBq=T
 Leave Link  122 at Sun May 10 11:08:46 2020, MaxMem= 1073741824 cpu:       0.0
 (Enter /home/matheus/.gaussian/g09/l301.exe)
 Basis read from rwf:  (5D, 7F)
 No pseudopotential information found on rwf file.
 There are   197 symmetry adapted basis functions of A   symmetry.
 Integral buffers will be    131072 words long.
 Raffenetti 2 integral format.
 Two-electron integral symmetry is turned on.
   197 basis functions,   415 primitive gaussians,   229 cartesian basis functions
    18 alpha electrons       18 beta electrons
       nuclear repulsion energy         0.0000000000 Hartrees.
 IExCor= 4639 DFT=T Ex+Corr=wB97XD ExCW=0 ScaHFX=  1.000000
 ScaDFX=  1.000000  1.000000  1.000000  1.000000 ScalE2=  1.000000  1.000000
 IRadAn=      5 IRanWt=     -1 IRanGd=            0 ICorTp=0
  HFx wShort=  0.000000 wLong=  0.200000 cFull=  0.222036 cShort=  0.000000 cLong=  0.777964
  DFx wShort=  0.000000 wLong=  0.200000 cFull=  0.000000 cShort=  0.000000 cLong=  1.000000
 NAtoms=    5 NActive=    5 NUniq=    5 SFac= 1.00D+00 NAtFMM=   60 NAOKFM=F Big=F
 R6Disp: Dispersion energy =         0.0000000000 Hartrees.
 Nuclear repulsion after empirical dispersion term =        0.0000000000 Hartrees.
 No density basis found on file   718.
 Leave Link  301 at Sun May 10 11:08:46 2020, MaxMem= 1073741824 cpu:       0.2
 (Enter /home/matheus/.gaussian/g09/l302.exe)
 NPDir=0 NMtPBC=     1 NCelOv=     1 NCel=       1 NClECP=     1 NCelD=      1
         NCelK=      1 NCelE2=     1 NClLst=     1 CellRange=     0.0.
 One-electron integrals computed using PRISM.
 NBasis=   197 RedAO= T  NBF=   197
 NBsUse=   197 1.00D-06 NBFU=   197
 Precomputing XC quadrature grid using
 IXCGrd= 2 IRadAn=           5 IRanWt=          -1 IRanGd=           0 AccXCQ= 0.00D+00.
 NRdTot=     427 NPtTot=      123512 NUsed=      126579 NTot=      126611
 NSgBfM=   229   229   229   229   229 NAtAll=     5     5.
 Leave Link  302 at Sun May 10 11:08:46 2020, MaxMem= 1073741824 cpu:       0.9
 (Enter /home/matheus/.gaussian/g09/l303.exe)
 DipDrv:  MaxL=1.
 Leave Link  303 at Sun May 10 11:08:46 2020, MaxMem= 1073741824 cpu:       0.2
 (Enter /home/matheus/.gaussian/g09/l401.exe)
 Harris functional with IExCor= 4639 diagonalized for initial guess.
 ExpMin= 2.53D-02 ExpMax= 1.17D+07 ExpMxC= 1.33D+04 IAcc=3 IRadAn=         5 AccDes= 0.00D+00
 HarFok:  IExCor= 4639 AccDes= 0.00D+00 IRadAn=         5 IDoV= 1
 ScaDFX=  1.000000  1.000000  1.000000  1.000000
 FoFCou: FMM=F IPFlag=           0 FMFlag=      100000 FMFlg1=           0
         NFxFlg=           0 DoJE=T BraDBF=F KetDBF=T FulRan=T
         Omega=  0.000000  0.000000  1.000000  0.000000  0.000000 ICntrl=     500 IOpCl=  0
         NMat0=    1 NMatS0=    1 NMatT0=    0 NMatD0=    1 NMtDS0=    0 NMtDT0=    0
         I1Cent=           4 NGrid=           0.
 Petite list used in FoFCou.
 Harris En= -2730.20433849566    
 Initial guess orbital symmetries:
       Occupied  (A) (A) (A) (A) (A) (A) (A) (A) (A) (A) (A) (A)
                 (A) (A) (A) (A) (A) (A)
       Virtual   (A) (A) (A) (A) (A) (A) (A) (A) (A) (A) (A) (A)
                 (A) (A) (A) (A) (A) (A) (A) (A) (A) (A) (A) (A)
                 (A) (A) (A) (A) (A) (A) (A) (A) (A) (A) (A) (A)
                 (A) (A) (A) (A) (A) (A) (A) (A) (A) (A) (A) (A)
                 (A) (A) (A) (A) (A) (A) (A) (A) (A) (A) (A) (A)
                 (A) (A) (A) (A) (A) (A) (A) (A) (A) (A) (A) (A)
                 (A) (A) (A) (A) (A) (A) (A) (A) (A) (A) (A) (A)
                 (A) (A) (A) (A) (A) (A) (A) (A) (A) (A) (A) (A)
                 (A) (A) (A) (A) (A) (A) (A) (A) (A) (A) (A) (A)
                 (A) (A) (A) (A) (A) (A) (A) (A) (A) (A) (A) (A)
                 (A) (A) (A) (A) (A) (A) (A) (A) (A) (A) (A) (A)
                 (A) (A) (A) (A) (A) (A) (A) (A) (A) (A) (A) (A)
                 (A) (A) (A) (A) (A) (A) (A) (A) (A) (A) (A) (A)
                 (A) (A) (A) (A) (A) (A) (A) (A) (A) (A) (A) (A)
                 (A) (A) (A) (A) (A) (A) (A) (A) (A) (A) (A)
 The electronic state of the initial guess is 1-A.
 Leave Link  401 at Sun May 10 11:08:47 2020, MaxMem= 1073741824 cpu:       3.9
 (Enter /home/matheus/.gaussian/g09/l502.exe)
 Closed shell SCF:
 Requested convergence on RMS density matrix=1.00D-08 within 128 cycles.
 Requested convergence on MAX density matrix=1.00D-06.
 Requested convergence on             energy=1.00D-06.
 No special actions if energy rises.
 Using DIIS extrapolation, IDIIS=  1040.
 Integral symmetry usage will be decided dynamically.
       126521 words used for storage of precomputed grid.
 IEnd=      305468 IEndB=      305468 NGot=  1073741824 MDV=  1073505667
 LenX=  1073505667 LenY=  1073452785
 Fock matrices will be formed incrementally for  20 cycles.

 Cycle   1  Pass 1  IDiag  1:
 FoFJK:  IHMeth= 1 ICntrl=     0 DoSepK=T KAlg= 1 I1Cent= 0 FoldK=F
 FoFCou: FMM=F IPFlag=           0 FMFlag=      100000 FMFlg1=           0
         NFxFlg=           0 DoJE=T BraDBF=F KetDBF=F FulRan=T
         Omega=  0.000000  0.000000  1.000000  0.000000  0.000000 ICntrl=     500 IOpCl=  0
         NMat0=    1 NMatS0=    1 NMatT0=    0 NMatD0=    1 NMtDS0=    0 NMtDT0=    0
         I1Cent=           0 NGrid=           0.
 Symmetry not used in FoFCou.
 E= -2753.46463072438    
 DIIS: error= 7.36D-02 at cycle   1 NSaved=   1.
 NSaved= 1 IEnMin= 1 EnMin= -2753.46463072438     IErMin= 1 ErrMin= 7.36D-02
 ErrMax= 7.36D-02 EMaxC= 1.00D-01 BMatC= 1.87D+00 BMatP= 1.87D+00
 IDIUse=3 WtCom= 2.64D-01 WtEn= 7.36D-01
 Coeff-Com:  0.100D+01
 Coeff-En:   0.100D+01
 Coeff:      0.100D+01
 Gap=     0.634 Goal=   None    Shift=    0.000
 GapD=    0.634 DampG=2.000 DampE=0.500 DampFc=1.0000 IDamp=-1.
 RMSDP=5.62D-03 MaxDP=3.67D-01              OVMax= 1.78D-01

 Cycle   2  Pass 1  IDiag  1:
 RMSU=  3.92D-03    CP:  1.04D+00
 FoFJK:  IHMeth= 1 ICntrl=     0 DoSepK=T KAlg= 1 I1Cent= 0 FoldK=F
 E= -2753.72412356360     Delta-E=       -0.259492839218 Rises=F Damp=F
 DIIS: error= 3.59D-02 at cycle   2 NSaved=   2.
 NSaved= 2 IEnMin= 2 EnMin= -2753.72412356360     IErMin= 2 ErrMin= 3.59D-02
 ErrMax= 3.59D-02 EMaxC= 1.00D-01 BMatC= 4.75D-01 BMatP= 1.87D+00
 IDIUse=3 WtCom= 6.41D-01 WtEn= 3.59D-01
 Coeff-Com:  0.330D+00 0.670D+00
 Coeff-En:   0.183D+00 0.817D+00
 Coeff:      0.277D+00 0.723D+00
 Gap=     0.471 Goal=   None    Shift=    0.000
 RMSDP=2.55D-03 MaxDP=1.61D-01 DE=-2.59D-01 OVMax= 7.97D-02

 Cycle   3  Pass 1  IDiag  1:
 RMSU=  3.72D-04    CP:  1.03D+00  5.55D-01
 FoFJK:  IHMeth= 1 ICntrl=     0 DoSepK=T KAlg= 1 I1Cent= 0 FoldK=F
 E= -2753.87068637781     Delta-E=       -0.146562814216 Rises=F Damp=F
 DIIS: error= 5.36D-03 at cycle   3 NSaved=   3.
 NSaved= 3 IEnMin= 3 EnMin= -2753.87068637781     IErMin= 3 ErrMin= 5.36D-03
 ErrMax= 5.36D-03 EMaxC= 1.00D-01 BMatC= 1.15D-02 BMatP= 4.75D-01
 IDIUse=3 WtCom= 9.46D-01 WtEn= 5.36D-02
 Coeff-Com: -0.566D-02 0.126D+00 0.880D+00
 Coeff-En:   0.000D+00 0.000D+00 0.100D+01
 Coeff:     -0.536D-02 0.119D+00 0.886D+00
 Gap=     0.501 Goal=   None    Shift=    0.000
 RMSDP=3.20D-04 MaxDP=1.82D-02 DE=-1.47D-01 OVMax= 1.32D-02

 Cycle   4  Pass 1  IDiag  1:
 RMSU=  4.63D-05    CP:  1.03D+00  6.10D-01  9.37D-01
 FoFJK:  IHMeth= 1 ICntrl=     0 DoSepK=T KAlg= 1 I1Cent= 0 FoldK=F
 E= -2753.87434289036     Delta-E=       -0.003656512548 Rises=F Damp=F
 DIIS: error= 2.84D-04 at cycle   4 NSaved=   4.
 NSaved= 4 IEnMin= 4 EnMin= -2753.87434289036     IErMin= 4 ErrMin= 2.84D-04
 ErrMax= 2.84D-04 EMaxC= 1.00D-01 BMatC= 2.57D-05 BMatP= 1.15D-02
 IDIUse=3 WtCom= 9.97D-01 WtEn= 2.84D-03
 Coeff-Com: -0.807D-03-0.156D-01-0.424D-01 0.106D+01
 Coeff-En:   0.000D+00 0.000D+00 0.000D+00 0.100D+01
 Coeff:     -0.804D-03-0.156D-01-0.423D-01 0.106D+01
 Gap=     0.498 Goal=   None    Shift=    0.000
 RMSDP=2.47D-05 MaxDP=9.27D-04 DE=-3.66D-03 OVMax= 8.31D-04

 Cycle   5  Pass 1  IDiag  1:
 RMSU=  1.13D-05    CP:  1.03D+00  6.07D-01  9.58D-01  1.12D+00
 FoFJK:  IHMeth= 1 ICntrl=     0 DoSepK=T KAlg= 1 I1Cent= 0 FoldK=F
 E= -2753.87435445559     Delta-E=       -0.000011565230 Rises=F Damp=F
 DIIS: error= 1.36D-05 at cycle   5 NSaved=   5.
 NSaved= 5 IEnMin= 5 EnMin= -2753.87435445559     IErMin= 5 ErrMin= 1.36D-05
 ErrMax= 1.36D-05 EMaxC= 1.00D-01 BMatC= 3.72D-08 BMatP= 2.57D-05
 IDIUse=1 WtCom= 1.00D+00 WtEn= 0.00D+00
 Coeff-Com:  0.120D-03-0.795D-03-0.864D-02-0.338D-01 0.104D+01
 Coeff:      0.120D-03-0.795D-03-0.864D-02-0.338D-01 0.104D+01
 Gap=     0.498 Goal=   None    Shift=    0.000
 RMSDP=2.58D-06 MaxDP=1.14D-04 DE=-1.16D-05 OVMax= 1.87D-04

 Cycle   6  Pass 1  IDiag  1:
 RMSU=  9.65D-07    CP:  1.03D+00  6.07D-01  9.59D-01  1.14D+00  1.09D+00
 FoFJK:  IHMeth= 1 ICntrl=     0 DoSepK=T KAlg= 1 I1Cent= 0 FoldK=F
 E= -2753.87435457638     Delta-E=       -0.000000120787 Rises=F Damp=F
 DIIS: error= 4.31D-06 at cycle   6 NSaved=   6.
 NSaved= 6 IEnMin= 6 EnMin= -2753.87435457638     IErMin= 6 ErrMin= 4.31D-06
 ErrMax= 4.31D-06 EMaxC= 1.00D-01 BMatC= 4.07D-09 BMatP= 3.72D-08
 IDIUse=1 WtCom= 1.00D+00 WtEn= 0.00D+00
 Coeff-Com:  0.630D-05 0.229D-03 0.129D-03-0.365D-01 0.536D-01 0.983D+00
 Coeff:      0.630D-05 0.229D-03 0.129D-03-0.365D-01 0.536D-01 0.983D+00
 Gap=     0.498 Goal=   None    Shift=    0.000
 RMSDP=6.13D-07 MaxDP=2.65D-05 DE=-1.21D-07 OVMax= 2.76D-05

 Cycle   7  Pass 1  IDiag  1:
 RMSU=  9.83D-08    CP:  1.03D+00  6.07D-01  9.59D-01  1.14D+00  1.11D+00
                    CP:  1.19D+00
 FoFJK:  IHMeth= 1 ICntrl=     0 DoSepK=T KAlg= 1 I1Cent= 0 FoldK=F
 E= -2753.87435458068     Delta-E=       -0.000000004296 Rises=F Damp=F
 DIIS: error= 2.21D-07 at cycle   7 NSaved=   7.
 NSaved= 7 IEnMin= 7 EnMin= -2753.87435458068     IErMin= 7 ErrMin= 2.21D-07
 ErrMax= 2.21D-07 EMaxC= 1.00D-01 BMatC= 3.17D-11 BMatP= 4.07D-09
 IDIUse=1 WtCom= 1.00D+00 WtEn= 0.00D+00
 Coeff-Com:  0.393D-06 0.677D-04 0.144D-03-0.816D-02 0.363D-02 0.214D+00
 Coeff-Com:  0.791D+00
 Coeff:      0.393D-06 0.677D-04 0.144D-03-0.816D-02 0.363D-02 0.214D+00
 Coeff:      0.791D+00
 Gap=     0.498 Goal=   None    Shift=    0.000
 RMSDP=4.53D-08 MaxDP=1.50D-06 DE=-4.30D-09 OVMax= 2.45D-06

 Cycle   8  Pass 1  IDiag  1:
 RMSU=  1.78D-08    CP:  1.03D+00  6.07D-01  9.59D-01  1.14D+00  1.12D+00
                    CP:  1.22D+00  1.06D+00
 FoFJK:  IHMeth= 1 ICntrl=     0 DoSepK=T KAlg= 1 I1Cent= 0 FoldK=F
 E= -2753.87435458071     Delta-E=       -0.000000000039 Rises=F Damp=F
 DIIS: error= 4.94D-08 at cycle   8 NSaved=   8.
 NSaved= 8 IEnMin= 8 EnMin= -2753.87435458071     IErMin= 8 ErrMin= 4.94D-08
 ErrMax= 4.94D-08 EMaxC= 1.00D-01 BMatC= 1.64D-12 BMatP= 3.17D-11
 IDIUse=1 WtCom= 1.00D+00 WtEn= 0.00D+00
 Coeff-Com: -0.137D-06-0.401D-05 0.223D-04 0.155D-02-0.271D-02-0.434D-01
 Coeff-Com:  0.654D-01 0.979D+00
 Coeff:     -0.137D-06-0.401D-05 0.223D-04 0.155D-02-0.271D-02-0.434D-01
 Coeff:      0.654D-01 0.979D+00
 Gap=     0.498 Goal=   None    Shift=    0.000
 RMSDP=2.06D-08 MaxDP=8.75D-07 DE=-3.87D-11 OVMax= 5.33D-07

 Cycle   9  Pass 1  IDiag  1:
 RMSU=  3.58D-09    CP:  1.03D+00  6.07D-01  9.59D-01  1.14D+00  1.11D+00
                    CP:  1.23D+00  1.13D+00  1.12D+00
 FoFJK:  IHMeth= 1 ICntrl=     0 DoSepK=T KAlg= 1 I1Cent= 0 FoldK=F
 E= -2753.87435458073     Delta-E=       -0.000000000014 Rises=F Damp=F
 DIIS: error= 7.30D-09 at cycle   9 NSaved=   9.
 NSaved= 9 IEnMin= 9 EnMin= -2753.87435458073     IErMin= 9 ErrMin= 7.30D-09
 ErrMax= 7.30D-09 EMaxC= 1.00D-01 BMatC= 6.72D-15 BMatP= 1.64D-12
 IDIUse=1 WtCom= 1.00D+00 WtEn= 0.00D+00
 Coeff-Com:  0.106D-07 0.171D-06-0.218D-05-0.132D-03 0.753D-04 0.465D-02
 Coeff-Com: -0.142D-01-0.138D+00 0.115D+01
 Coeff:      0.106D-07 0.171D-06-0.218D-05-0.132D-03 0.753D-04 0.465D-02
 Coeff:     -0.142D-01-0.138D+00 0.115D+01
 Gap=     0.498 Goal=   None    Shift=    0.000
 RMSDP=1.86D-09 MaxDP=7.47D-08 DE=-1.36D-11 OVMax= 9.48D-08

 SCF Done:  E(RwB97XD) =  -2753.87435458     A.U. after    9 cycles
             Convg  =    0.1865D-08             -V/T =  2.0013
 KE= 2.750260366752D+03 PE=-6.580198756897D+03 EE= 1.076064035564D+03
 Leave Link  502 at Sun May 10 11:09:14 2020, MaxMem= 1073741824 cpu:     217.7
 (Enter /home/matheus/.gaussian/g09/l601.exe)
 Copying SCF densities to generalized density rwf, IOpCl= 0 IROHF=0.

 **********************************************************************

            Population analysis using the SCF density.

 **********************************************************************

 Orbital symmetries:
       Occupied  (A) (A) (A) (A) (A) (A) (A) (A) (A) (A) (A) (A)
                 (A) (A) (A) (A) (A) (A)
       Virtual   (A) (A) (A) (A) (A) (A) (A) (A) (A) (A) (A) (A)
                 (A) (A) (A) (A) (A) (A) (A) (A) (A) (A) (A) (A)
                 (A) (A) (A) (A) (A) (A) (A) (A) (A) (A) (A) (A)
                 (A) (A) (A) (A) (A) (A) (A) (A) (A) (A) (A) (A)
                 (A) (A) (A) (A) (A) (A) (A) (A) (A) (A) (A) (A)
                 (A) (A) (A) (A) (A) (A) (A) (A) (A) (A) (A) (A)
                 (A) (A) (A) (A) (A) (A) (A) (A) (A) (A) (A) (A)
                 (A) (A) (A) (A) (A) (A) (A) (A) (A) (A) (A) (A)
                 (A) (A) (A) (A) (A) (A) (A) (A) (A) (A) (A) (A)
                 (A) (A) (A) (A) (A) (A) (A) (A) (A) (A) (A) (A)
                 (A) (A) (A) (A) (A) (A) (A) (A) (A) (A) (A) (A)
                 (A) (A) (A) (A) (A) (A) (A) (A) (A) (A) (A) (A)
                 (A) (A) (A) (A) (A) (A) (A) (A) (A) (A) (A) (A)
                 (A) (A) (A) (A) (A) (A) (A) (A) (A) (A) (A) (A)
                 (A) (A) (A) (A) (A) (A) (A) (A) (A) (A) (A)
 The electronic state is 1-A.
 Alpha  occ. eigenvalues -- -513.05922 -67.32596 -60.87472 -60.87471 -60.87470
 Alpha  occ. eigenvalues --   -9.77892  -7.47187  -7.47186  -7.47186  -3.33929
 Alpha  occ. eigenvalues --   -3.33929  -3.33928  -3.33927  -3.33927  -0.98489
 Alpha  occ. eigenvalues --   -0.46647  -0.46643  -0.46642
 Alpha virt. eigenvalues --    0.03193   0.05147   0.08703   0.09874   0.11625
 Alpha virt. eigenvalues --    0.12549   0.13435   0.14405   0.16614   0.17348
 Alpha virt. eigenvalues --    0.17982   0.19773   0.20940   0.25213   0.26366
 Alpha virt. eigenvalues --    0.26707   0.28175   0.31113   0.32933   0.34537
 Alpha virt. eigenvalues --    0.35690   0.37016   0.37973   0.38925   0.41497
 Alpha virt. eigenvalues --    0.41744   0.42901   0.52018   0.53472   0.56874
 Alpha virt. eigenvalues --    0.58431   0.66259   0.67239   0.69977   0.71780
 Alpha virt. eigenvalues --    0.74049   0.74239   0.75427   0.75969   0.78683
 Alpha virt. eigenvalues --    0.79074   0.79194   0.83366   0.85256   0.85934
 Alpha virt. eigenvalues --    0.86910   0.88163   0.89017   0.91123   0.93952
 Alpha virt. eigenvalues --    0.96772   0.98085   0.99286   1.01009   1.01861
 Alpha virt. eigenvalues --    1.03797   1.05958   1.07334   1.10796   1.11779
 Alpha virt. eigenvalues --    1.13976   1.18168   1.21113   1.22731   1.28368
 Alpha virt. eigenvalues --    1.32104   1.35267   1.40386   1.43021   1.43424
 Alpha virt. eigenvalues --    1.55569   1.57593   1.59716   1.71927   1.79126
 Alpha virt. eigenvalues --    1.80531   1.84607   1.86982   1.94003   2.14365
 Alpha virt. eigenvalues --    2.18107   2.24728   2.26820   2.28710   2.29273
 Alpha virt. eigenvalues --    2.31232   2.31981   2.34766   2.36960   2.40426
 Alpha virt. eigenvalues --    2.44046   2.46170   2.46289   2.47246   2.48069
 Alpha virt. eigenvalues --    2.50612   2.52127   2.54588   2.54937   2.58572
 Alpha virt. eigenvalues --    2.61406   2.62318   2.63225   2.65743   2.68480
 Alpha virt. eigenvalues --    2.71953   2.75113   2.82372   2.85523   2.88000
 Alpha virt. eigenvalues --    2.93174   2.94955   3.04349   3.13128   3.19695
 Alpha virt. eigenvalues --    3.22658   3.27931   3.33741   3.34309   3.50979
 Alpha virt. eigenvalues --    3.61634   3.67083   3.83051   3.87746   4.04074
 Alpha virt. eigenvalues --    4.35417   4.49357   4.52713   4.57269   4.60336
 Alpha virt. eigenvalues --    4.72582   4.88257   4.89028   4.94711   5.02497
 Alpha virt. eigenvalues --    5.16362   5.18178   5.59478   5.64258   5.79026
 Alpha virt. eigenvalues --    5.98940   6.00908   6.17605   6.76454   6.88932
 Alpha virt. eigenvalues --    7.35911   7.40046   7.62873   7.66217   7.70914
 Alpha virt. eigenvalues --    7.87252   7.96913   8.11208   8.18211   8.22174
 Alpha virt. eigenvalues --    8.39319   8.43043   8.62800   8.88659   9.63405
 Alpha virt. eigenvalues --    9.72664   9.82238   9.89348   9.96377  10.02654
 Alpha virt. eigenvalues --   10.16200  10.28959  10.44438  10.95915  11.51874
 Alpha virt. eigenvalues --   11.63903  11.67685  12.05186  12.08766  13.27395
 Alpha virt. eigenvalues --   13.62182  14.54390  62.70437  64.61819
          Condensed to atoms (all electrons):
              1          2          3          4          5
     1  O    0.003761  -0.002530  -0.002272   0.001626  -0.013562
     2  O   -0.002530   0.006766   0.000785  -0.004384  -0.002029
     3  H   -0.002272   0.000785   0.001752  -0.000536   0.004263
     4  H    0.001626  -0.004384  -0.000536   0.004224  -0.021953
     5  Kr  -0.013562  -0.002029   0.004263  -0.021953  36.064684
 Mulliken atomic charges:
              1
     1  O    0.012977
     2  O    0.001392
     3  H   -0.003991
     4  H    0.021024
     5  Kr  -0.031403
 Sum of Mulliken atomic charges =   0.00000
 Mulliken charges with hydrogens summed into heavy atoms:
              1
     1  O    0.008986
     2  O    0.022417
     5  Kr  -0.031403
 Sum of Mulliken charges with hydrogens summed into heavy atoms =   0.00000
          Condensed to fragments (all electrons):
     1       0.031403
     2      -0.031403
 Electronic spatial extent (au):  <R**2>=            166.3639
 Charge=              0.0000 electrons
 Dipole moment (field-independent basis, Debye):
    X=             -0.0003    Y=              0.0004    Z=              0.0001  Tot=              0.0005
 Quadrupole moment (field-independent basis, Debye-Ang):
   XX=            -17.6272   YY=            -17.6406   ZZ=            -17.6479
   XY=             -0.0050   XZ=              0.0003   YZ=              0.0004
 Traceless Quadrupole moment (field-independent basis, Debye-Ang):
   XX=              0.0114   YY=             -0.0020   ZZ=             -0.0094
   XY=             -0.0050   XZ=              0.0003   YZ=              0.0004
 Octapole moment (field-independent basis, Debye-Ang**2):
  XXX=            -52.5535  YYY=              0.8528  ZZZ=             -0.1508  XYY=            -17.5323
  XXY=              0.2740  XXZ=             -0.0504  XZZ=            -17.5364  YZZ=              0.2853
  YYZ=             -0.0498  XYZ=              0.0004
 Hexadecapole moment (field-independent basis, Debye-Ang**3):
 XXXX=           -122.8719 YYYY=            -18.4594 ZZZZ=            -18.4535 XXXY=              0.8246
 XXXZ=             -0.1508 YYYX=              0.8326 YYYZ=              0.0013 ZZZX=             -0.1505
 ZZZY=              0.0036 XXYY=            -23.5689 XXZZ=            -23.5698 YYZZ=             -6.1501
 XXYZ=              0.0013 YYXZ=             -0.0501 ZZXY=              0.2756
 N-N= 0.000000000000D+00 E-N=-6.580198757652D+03  KE= 2.750260366752D+03
 No NMR shielding tensors so no spin-rotation constants.
 Leave Link  601 at Sun May 10 11:09:14 2020, MaxMem= 1073741824 cpu:       0.8
 (Enter /home/matheus/.gaussian/g09/l122.exe)
 Counterpoise: doing MCBS calculation for fragment   1
 Leave Link  122 at Sun May 10 11:09:14 2020, MaxMem= 1073741824 cpu:       0.0
 (Enter /home/matheus/.gaussian/g09/l301.exe)
 Basis read from rwf:  (5D, 7F)
 No pseudopotential information found on rwf file.
 There are   138 symmetry adapted basis functions of A   symmetry.
 Integral buffers will be    131072 words long.
 Raffenetti 2 integral format.
 Two-electron integral symmetry is turned on.
   138 basis functions,   198 primitive gaussians,   160 cartesian basis functions
     9 alpha electrons        9 beta electrons
       nuclear repulsion energy        36.6087755249 Hartrees.
 IExCor= 4639 DFT=T Ex+Corr=wB97XD ExCW=0 ScaHFX=  1.000000
 ScaDFX=  1.000000  1.000000  1.000000  1.000000 ScalE2=  1.000000  1.000000
 IRadAn=      5 IRanWt=     -1 IRanGd=            0 ICorTp=0
  HFx wShort=  0.000000 wLong=  0.200000 cFull=  0.222036 cShort=  0.000000 cLong=  0.777964
  DFx wShort=  0.000000 wLong=  0.200000 cFull=  0.000000 cShort=  0.000000 cLong=  1.000000
 NAtoms=    5 NActive=    4 NUniq=    4 SFac= 1.00D+00 NAtFMM=   60 NAOKFM=F Big=F
 R6Disp: Dispersion energy =        -0.0002181899 Hartrees.
 Nuclear repulsion after empirical dispersion term =       36.6085573350 Hartrees.
 No density basis found on file   718.
 Leave Link  301 at Sun May 10 11:09:14 2020, MaxMem= 1073741824 cpu:       0.2
 (Enter /home/matheus/.gaussian/g09/l302.exe)
 NPDir=0 NMtPBC=     1 NCelOv=     1 NCel=       1 NClECP=     1 NCelD=      1
         NCelK=      1 NCelE2=     1 NClLst=     1 CellRange=     0.0.
 One-electron integrals computed using PRISM.
 NBasis=   138 RedAO= T  NBF=   138
 NBsUse=   138 1.00D-06 NBFU=   138
 Precomputing XC quadrature grid using
 IXCGrd= 2 IRadAn=           5 IRanWt=          -1 IRanGd=           0 AccXCQ= 0.00D+00.
 NRdTot=     344 NPtTot=       92556 NUsed=       95038 NTot=       95070
 NSgBfM=   160   160   160   160   160 NAtAll=     4     4.
 Leave Link  302 at Sun May 10 11:09:14 2020, MaxMem= 1073741824 cpu:       0.7
 (Enter /home/matheus/.gaussian/g09/l303.exe)
 DipDrv:  MaxL=1.
 Leave Link  303 at Sun May 10 11:09:14 2020, MaxMem= 1073741824 cpu:       0.1
 (Enter /home/matheus/.gaussian/g09/l401.exe)
 Harris functional with IExCor= 4639 diagonalized for initial guess.
 ExpMin= 2.53D-02 ExpMax= 1.53D+04 ExpMxC= 5.22D+02 IAcc=3 IRadAn=         5 AccDes= 0.00D+00
 HarFok:  IExCor= 4639 AccDes= 0.00D+00 IRadAn=         5 IDoV= 1
 ScaDFX=  1.000000  1.000000  1.000000  1.000000
 FoFCou: FMM=F IPFlag=           0 FMFlag=      100000 FMFlg1=           0
         NFxFlg=           0 DoJE=T BraDBF=F KetDBF=T FulRan=T
         Omega=  0.000000  0.000000  1.000000  0.000000  0.000000 ICntrl=     500 IOpCl=  0
         NMat0=    1 NMatS0=    1 NMatT0=    0 NMatD0=    1 NMtDS0=    0 NMtDT0=    0
         I1Cent=           4 NGrid=           0.
 Petite list used in FoFCou.
 Harris En= -146.293873331142    
 Initial guess orbital symmetries:
       Occupied  (A) (A) (A) (A) (A) (A) (A) (A) (A)
       Virtual   (A) (A) (A) (A) (A) (A) (A) (A) (A) (A) (A) (A)
                 (A) (A) (A) (A) (A) (A) (A) (A) (A) (A) (A) (A)
                 (A) (A) (A) (A) (A) (A) (A) (A) (A) (A) (A) (A)
                 (A) (A) (A) (A) (A) (A) (A) (A) (A) (A) (A) (A)
                 (A) (A) (A) (A) (A) (A) (A) (A) (A) (A) (A) (A)
                 (A) (A) (A) (A) (A) (A) (A) (A) (A) (A) (A) (A)
                 (A) (A) (A) (A) (A) (A) (A) (A) (A) (A) (A) (A)
                 (A) (A) (A) (A) (A) (A) (A) (A) (A) (A) (A) (A)
                 (A) (A) (A) (A) (A) (A) (A) (A) (A) (A) (A) (A)
                 (A) (A) (A) (A) (A) (A) (A) (A) (A) (A) (A) (A)
                 (A) (A) (A) (A) (A) (A) (A) (A) (A)
 The electronic state of the initial guess is 1-A.
 Leave Link  401 at Sun May 10 11:09:15 2020, MaxMem= 1073741824 cpu:       2.0
 (Enter /home/matheus/.gaussian/g09/l502.exe)
 Closed shell SCF:
 Requested convergence on RMS density matrix=1.00D-08 within 128 cycles.
 Requested convergence on MAX density matrix=1.00D-06.
 Requested convergence on             energy=1.00D-06.
 No special actions if energy rises.
 Using DIIS extrapolation, IDIIS=  1040.
 Integral symmetry usage will be decided dynamically.
        94980 words used for storage of precomputed grid.
 IEnd=      192360 IEndB=      192360 NGot=  1073741824 MDV=  1073591865
 LenX=  1073591865 LenY=  1073565824
 Fock matrices will be formed incrementally for  20 cycles.

 Cycle   1  Pass 1  IDiag  1:
 FoFJK:  IHMeth= 1 ICntrl=     0 DoSepK=T KAlg= 1 I1Cent= 0 FoldK=F
 FoFCou: FMM=F IPFlag=           0 FMFlag=      100000 FMFlg1=           0
         NFxFlg=           0 DoJE=T BraDBF=F KetDBF=F FulRan=T
         Omega=  0.000000  0.000000  1.000000  0.000000  0.000000 ICntrl=     500 IOpCl=  0
         NMat0=    1 NMatS0=    1 NMatT0=    0 NMatD0=    1 NMtDS0=    0 NMtDT0=    0
         I1Cent=           0 NGrid=           0.
 Symmetry not used in FoFCou.
 E= -151.477978192036    
 DIIS: error= 4.15D-02 at cycle   1 NSaved=   1.
 NSaved= 1 IEnMin= 1 EnMin= -151.477978192036     IErMin= 1 ErrMin= 4.15D-02
 ErrMax= 4.15D-02 EMaxC= 1.00D-01 BMatC= 2.99D-01 BMatP= 2.99D-01
 IDIUse=3 WtCom= 5.85D-01 WtEn= 4.15D-01
 Coeff-Com:  0.100D+01
 Coeff-En:   0.100D+01
 Coeff:      0.100D+01
 Gap=     0.512 Goal=   None    Shift=    0.000
 GapD=    0.512 DampG=2.000 DampE=0.500 DampFc=1.0000 IDamp=-1.
 RMSDP=3.36D-03 MaxDP=1.06D-01              OVMax= 1.09D-01

 Cycle   2  Pass 1  IDiag  1:
 RMSU=  2.33D-03    CP:  9.53D-01
 FoFJK:  IHMeth= 1 ICntrl=     0 DoSepK=T KAlg= 1 I1Cent= 0 FoldK=F
 E= -151.507441381890     Delta-E=       -0.029463189853 Rises=F Damp=F
 DIIS: error= 2.63D-02 at cycle   2 NSaved=   2.
[...]
 ErrMax= 3.48D-06 EMaxC= 1.00D-01 BMatC= 3.98D-09 BMatP= 3.75D-06
 IDIUse=1 WtCom= 1.00D+00 WtEn= 0.00D+00
 Coeff-Com: -0.989D-02 0.101D+01
 Coeff:     -0.989D-02 0.101D+01
 Gap=     0.496 Goal=   None    Shift=    0.000
 RMSDP=1.94D-06 MaxDP=7.72D-05 DE=-5.62D-07 OVMax= 5.11D-05

 Cycle   3  Pass 1  IDiag  1:
 RMSU=  5.00D-07    CP:  1.00D+00  1.08D+00
 FoFJK:  IHMeth= 1 ICntrl=     0 DoSepK=T KAlg= 1 I1Cent= 0 FoldK=F
 E= -2753.87423849063     Delta-E=       -0.000000007390 Rises=F Damp=F
 DIIS: error= 6.13D-07 at cycle   3 NSaved=   3.
 NSaved= 3 IEnMin= 3 EnMin= -2753.87423849063     IErMin= 3 ErrMin= 6.13D-07
 ErrMax= 6.13D-07 EMaxC= 1.00D-01 BMatC= 1.10D-10 BMatP= 3.98D-09
 IDIUse=1 WtCom= 1.00D+00 WtEn= 0.00D+00
 Coeff-Com: -0.918D-05-0.951D-01 0.110D+01
 Coeff:     -0.918D-05-0.951D-01 0.110D+01
 Gap=     0.496 Goal=   None    Shift=    0.000
 RMSDP=2.16D-07 MaxDP=7.90D-06 DE=-7.39D-09 OVMax= 9.90D-06

 Cycle   4  Pass 1  IDiag  1:
 RMSU=  5.55D-08    CP:  1.00D+00  1.09D+00  1.21D+00
 FoFJK:  IHMeth= 1 ICntrl=     0 DoSepK=T KAlg= 1 I1Cent= 0 FoldK=F
 E= -2753.87423849082     Delta-E=       -0.000000000195 Rises=F Damp=F
 DIIS: error= 3.84D-07 at cycle   4 NSaved=   4.
 NSaved= 4 IEnMin= 4 EnMin= -2753.87423849082     IErMin= 4 ErrMin= 3.84D-07
 ErrMax= 3.84D-07 EMaxC= 1.00D-01 BMatC= 1.87D-11 BMatP= 1.10D-10
 IDIUse=1 WtCom= 1.00D+00 WtEn= 0.00D+00
 Coeff-Com:  0.210D-03-0.525D-01 0.341D+00 0.712D+00
 Coeff:      0.210D-03-0.525D-01 0.341D+00 0.712D+00
 Gap=     0.496 Goal=   None    Shift=    0.000
 RMSDP=2.27D-08 MaxDP=9.50D-07 DE=-1.95D-10 OVMax= 1.37D-06

 Cycle   5  Pass 1  IDiag  1:
 RMSU=  1.09D-08    CP:  1.00D+00  1.09D+00  1.23D+00  1.07D+00
 FoFJK:  IHMeth= 1 ICntrl=     0 DoSepK=T KAlg= 1 I1Cent= 0 FoldK=F
 E= -2753.87423849084     Delta-E=       -0.000000000020 Rises=F Damp=F
 DIIS: error= 2.04D-08 at cycle   5 NSaved=   5.
 NSaved= 5 IEnMin= 5 EnMin= -2753.87423849084     IErMin= 5 ErrMin= 2.04D-08
 ErrMax= 2.04D-08 EMaxC= 1.00D-01 BMatC= 1.47D-13 BMatP= 1.87D-11
 IDIUse=1 WtCom= 1.00D+00 WtEn= 0.00D+00
 Coeff-Com: -0.401D-06 0.318D-02-0.336D-01-0.146D-01 0.105D+01
 Coeff:     -0.401D-06 0.318D-02-0.336D-01-0.146D-01 0.105D+01
 Gap=     0.496 Goal=   None    Shift=    0.000
 RMSDP=9.64D-09 MaxDP=5.92D-07 DE=-1.96D-11 OVMax= 3.59D-07

 SCF Done:  E(RwB97XD) =  -2753.87423849     A.U. after    5 cycles
             Convg  =    0.9636D-08             -V/T =  2.0013
 KE= 2.750294666277D+03 PE=-6.580235326797D+03 EE= 1.076066422029D+03
 Leave Link  502 at Sun May 10 11:31:37 2020, MaxMem= 1073741824 cpu:      89.9
 (Enter /home/matheus/.gaussian/g09/l122.exe)
 Restoring MOs from calculation   4 to rwf.
 Counterpoise: doing MCBS calculation for fragment   1
 Leave Link  122 at Sun May 10 11:31:37 2020, MaxMem= 1073741824 cpu:       0.0
 (Enter /home/matheus/.gaussian/g09/l301.exe)
 Basis read from rwf:  (5D, 7F)
 No pseudopotential information found on rwf file.
 There are   138 symmetry adapted basis functions of A   symmetry.
 Integral buffers will be    131072 words long.
 Raffenetti 2 integral format.
 Two-electron integral symmetry is turned on.
   138 basis functions,   198 primitive gaussians,   160 cartesian basis functions
     9 alpha electrons        9 beta electrons
       nuclear repulsion energy        36.6087755249 Hartrees.
 IExCor= 4639 DFT=T Ex+Corr=wB97XD ExCW=0 ScaHFX=  1.000000
 ScaDFX=  1.000000  1.000000  1.000000  1.000000 ScalE2=  1.000000  1.000000
 IRadAn=      5 IRanWt=     -1 IRanGd=            0 ICorTp=0
  HFx wShort=  0.000000 wLong=  0.200000 cFull=  0.222036 cShort=  0.000000 cLong=  0.777964
  DFx wShort=  0.000000 wLong=  0.200000 cFull=  0.000000 cShort=  0.000000 cLong=  1.000000
 NAtoms=    5 NActive=    4 NUniq=    4 SFac= 1.00D+00 NAtFMM=   60 NAOKFM=F Big=F
 R6Disp: Dispersion energy =        -0.0002181899 Hartrees.
 Nuclear repulsion after empirical dispersion term =       36.6085573350 Hartrees.
 No density basis found on file   718.
 Leave Link  301 at Sun May 10 11:31:37 2020, MaxMem= 1073741824 cpu:       0.2
 (Enter /home/matheus/.gaussian/g09/l302.exe)
 NPDir=0 NMtPBC=     1 NCelOv=     1 NCel=       1 NClECP=     1 NCelD=      1
         NCelK=      1 NCelE2=     1 NClLst=     1 CellRange=     0.0.
 One-electron integrals computed using PRISM.
 NBasis=   138 RedAO= T  NBF=   138
 NBsUse=   138 1.00D-06 NBFU=   138
 Precomputing XC quadrature grid using
 IXCGrd= 2 IRadAn=           5 IRanWt=          -1 IRanGd=           0 AccXCQ= 0.00D+00.
 NRdTot=     344 NPtTot=       92556 NUsed=       95038 NTot=       95070
 NSgBfM=   160   160   160   160   160 NAtAll=     4     4.
 Leave Link  302 at Sun May 10 11:31:37 2020, MaxMem= 1073741824 cpu:       0.7
 (Enter /home/matheus/.gaussian/g09/l303.exe)
 DipDrv:  MaxL=1.
 Leave Link  303 at Sun May 10 11:31:37 2020, MaxMem= 1073741824 cpu:       0.1
 (Enter /home/matheus/.gaussian/g09/l401.exe)
 Initial guess read from the read-write file.
 Guess basis will be translated and rotated to current coordinates.
 Initial guess orbital symmetries:
       Occupied  (A) (A) (A) (A) (A) (A) (A) (A) (A)
       Virtual   (A) (A) (A) (A) (A) (A) (A) (A) (A) (A) (A) (A)
                 (A) (A) (A) (A) (A) (A) (A) (A) (A) (A) (A) (A)
                 (A) (A) (A) (A) (A) (A) (A) (A) (A) (A) (A) (A)
                 (A) (A) (A) (A) (A) (A) (A) (A) (A) (A) (A) (A)
                 (A) (A) (A) (A) (A) (A) (A) (A) (A) (A) (A) (A)
                 (A) (A) (A) (A) (A) (A) (A) (A) (A) (A) (A) (A)
                 (A) (A) (A) (A) (A) (A) (A) (A) (A) (A) (A) (A)
                 (A) (A) (A) (A) (A) (A) (A) (A) (A) (A) (A) (A)
                 (A) (A) (A) (A) (A) (A) (A) (A) (A) (A) (A) (A)
                 (A) (A) (A) (A) (A) (A) (A) (A) (A) (A) (A) (A)
                 (A) (A) (A) (A) (A) (A) (A) (A) (A)
 The electronic state of the initial guess is 1-A.
 Generating alternative initial guess.
 Harris functional with IExCor= 4639 diagonalized for initial guess.
 ExpMin= 2.53D-02 ExpMax= 1.53D+04 ExpMxC= 5.22D+02 IAcc=3 IRadAn=         5 AccDes= 0.00D+00
 HarFok:  IExCor= 4639 AccDes= 0.00D+00 IRadAn=         5 IDoV= 1
 ScaDFX=  1.000000  1.000000  1.000000  1.000000
 FoFCou: FMM=F IPFlag=           0 FMFlag=      100000 FMFlg1=           0
         NFxFlg=           0 DoJE=T BraDBF=F KetDBF=T FulRan=T
         Omega=  0.000000  0.000000  1.000000  0.000000  0.000000 ICntrl=     500 IOpCl=  0
         NMat0=    1 NMatS0=    1 NMatT0=    0 NMatD0=    1 NMtDS0=    0 NMtDT0=    0
         I1Cent=           4 NGrid=           0.
 Petite list used in FoFCou.
 Harris En= -146.293873357021    
 Leave Link  401 at Sun May 10 11:31:37 2020, MaxMem= 1073741824 cpu:       2.4
 (Enter /home/matheus/.gaussian/g09/l502.exe)
 Closed shell SCF:
 Requested convergence on RMS density matrix=1.00D-08 within 128 cycles.
 Requested convergence on MAX density matrix=1.00D-06.
 Requested convergence on             energy=1.00D-06.
 No special actions if energy rises.
 Using DIIS extrapolation, IDIIS=  1040.
 Integral symmetry usage will be decided dynamically.
        94980 words used for storage of precomputed grid.
 IEnd=      192360 IEndB=      192360 NGot=  1073741824 MDV=  1073591865
 LenX=  1073591865 LenY=  1073565824
 Fock matrices will be formed incrementally for  20 cycles.

 Cycle   1  Pass 1  IDiag  1:
 FoFJK:  IHMeth= 1 ICntrl=     0 DoSepK=T KAlg= 1 I1Cent= 0 FoldK=F
 FoFCou: FMM=F IPFlag=           0 FMFlag=      100000 FMFlg1=           0
         NFxFlg=           0 DoJE=T BraDBF=F KetDBF=F FulRan=T
         Omega=  0.000000  0.000000  1.000000  0.000000  0.000000 ICntrl=     500 IOpCl=  0
         NMat0=    1 NMatS0=    1 NMatT0=    0 NMatD0=    1 NMtDS0=    0 NMtDT0=    0
         I1Cent=           0 NGrid=           0.
 Symmetry not used in FoFCou.
 E= -151.560471225176    
 DIIS: error= 1.78D-05 at cycle   1 NSaved=   1.
 NSaved= 1 IEnMin= 1 EnMin= -151.560471225176     IErMin= 1 ErrMin= 1.78D-05
 ErrMax= 1.78D-05 EMaxC= 1.00D-01 BMatC= 4.23D-08 BMatP= 4.23D-08
 IDIUse=1 WtCom= 1.00D+00 WtEn= 0.00D+00
 Coeff-Com:  0.100D+01
 Coeff:      0.100D+01
 Gap=     0.402 Goal=   None    Shift=    0.000
 RMSDP=1.26D-06 MaxDP=2.24D-05              OVMax= 8.04D-05

 Cycle   2  Pass 1  IDiag  1:
 RMSU=  8.90D-07    CP:  1.00D+00
 FoFJK:  IHMeth= 1 ICntrl=     0 DoSepK=T KAlg= 1 I1Cent= 0 FoldK=F
 E= -151.560471269454     Delta-E=       -0.000000044278 Rises=F Damp=F
 DIIS: error= 2.85D-06 at cycle   2 NSaved=   2.
 NSaved= 2 IEnMin= 2 EnMin= -151.560471269454     IErMin= 2 ErrMin= 2.85D-06
 ErrMax= 2.85D-06 EMaxC= 1.00D-01 BMatC= 1.34D-09 BMatP= 4.23D-08
 IDIUse=1 WtCom= 1.00D+00 WtEn= 0.00D+00
 Coeff-Com: -0.104D+00 0.110D+01
 Coeff:     -0.104D+00 0.110D+01
 Gap=     0.402 Goal=   None    Shift=    0.000
 RMSDP=3.87D-07 MaxDP=7.25D-06 DE=-4.43D-08 OVMax= 2.77D-05

 Cycle   3  Pass 1  IDiag  1:
 RMSU=  1.71D-07    CP:  1.00D+00  1.24D+00
 FoFJK:  IHMeth= 1 ICntrl=     0 DoSepK=T KAlg= 1 I1Cent= 0 FoldK=F
 E= -151.560471272258     Delta-E=       -0.000000002804 Rises=F Damp=F
 DIIS: error= 1.33D-06 at cycle   3 NSaved=   3.
 NSaved= 3 IEnMin= 3 EnMin= -151.560471272258     IErMin= 3 ErrMin= 1.33D-06
 ErrMax= 1.33D-06 EMaxC= 1.00D-01 BMatC= 2.83D-10 BMatP= 1.34D-09
 IDIUse=1 WtCom= 1.00D+00 WtEn= 0.00D+00
 Coeff-Com: -0.414D-01 0.272D+00 0.770D+00
 Coeff:     -0.414D-01 0.272D+00 0.770D+00
 Gap=     0.402 Goal=   None    Shift=    0.000
 RMSDP=1.23D-07 MaxDP=3.96D-06 DE=-2.80D-09 OVMax= 6.60D-06

 Cycle   4  Pass 1  IDiag  1:
 RMSU=  7.70D-08    CP:  1.00D+00  1.28D+00  1.08D+00
 FoFJK:  IHMeth= 1 ICntrl=     0 DoSepK=T KAlg= 1 I1Cent= 0 FoldK=F
 E= -151.560471272466     Delta-E=       -0.000000000208 Rises=F Damp=F
 DIIS: error= 1.05D-06 at cycle   4 NSaved=   4.
 NSaved= 4 IEnMin= 4 EnMin= -151.560471272466     IErMin= 4 ErrMin= 1.05D-06
 ErrMax= 1.05D-06 EMaxC= 1.00D-01 BMatC= 1.86D-10 BMatP= 2.83D-10
 IDIUse=1 WtCom= 1.00D+00 WtEn= 0.00D+00
 Coeff-Com: -0.214D-03-0.978D-01 0.463D+00 0.635D+00
 Coeff:     -0.214D-03-0.978D-01 0.463D+00 0.635D+00
 Gap=     0.402 Goal=   None    Shift=    0.000
 RMSDP=6.71D-08 MaxDP=1.93D-06 DE=-2.08D-10 OVMax= 3.72D-06

 Cycle   5  Pass 1  IDiag  1:
 RMSU=  1.78D-08    CP:  1.00D+00  1.30D+00  1.29D+00  7.68D-01
 FoFJK:  IHMeth= 1 ICntrl=     0 DoSepK=T KAlg= 1 I1Cent= 0 FoldK=F
 E= -151.560471272618     Delta-E=       -0.000000000151 Rises=F Damp=F
 DIIS: error= 1.67D-07 at cycle   5 NSaved=   5.
 NSaved= 5 IEnMin= 5 EnMin= -151.560471272618     IErMin= 5 ErrMin= 1.67D-07
 ErrMax= 1.67D-07 EMaxC= 1.00D-01 BMatC= 4.37D-12 BMatP= 1.86D-10
 IDIUse=1 WtCom= 1.00D+00 WtEn= 0.00D+00
 Coeff-Com:  0.420D-02-0.515D-01 0.760D-03 0.112D+00 0.934D+00
 Coeff:      0.420D-02-0.515D-01 0.760D-03 0.112D+00 0.934D+00
 Gap=     0.402 Goal=   None    Shift=    0.000
 RMSDP=2.27D-08 MaxDP=3.53D-07 DE=-1.51D-10 OVMax= 1.93D-06

 Cycle   6  Pass 1  IDiag  1:
 RMSU=  7.10D-09    CP:  1.00D+00  1.31D+00  1.34D+00  8.66D-01  1.32D+00
 FoFJK:  IHMeth= 1 ICntrl=     0 DoSepK=T KAlg= 1 I1Cent= 0 FoldK=F
 E= -151.560471272627     Delta-E=       -0.000000000009 Rises=F Damp=F
 DIIS: error= 6.89D-08 at cycle   6 NSaved=   6.
 NSaved= 6 IEnMin= 6 EnMin= -151.560471272627     IErMin= 6 ErrMin= 6.89D-08
 ErrMax= 6.89D-08 EMaxC= 1.00D-01 BMatC= 5.31D-13 BMatP= 4.37D-12
 IDIUse=1 WtCom= 1.00D+00 WtEn= 0.00D+00
 Coeff-Com:  0.103D-02-0.551D-02-0.294D-01-0.139D-01 0.226D+00 0.821D+00
 Coeff:      0.103D-02-0.551D-02-0.294D-01-0.139D-01 0.226D+00 0.821D+00
 Gap=     0.402 Goal=   None    Shift=    0.000
 RMSDP=7.77D-09 MaxDP=1.94D-07 DE=-9.18D-12 OVMax= 7.01D-07

 SCF Done:  E(RwB97XD) =  -151.560471273     A.U. after    6 cycles
             Convg  =    0.7769D-08             -V/T =  2.0059
 KE= 1.506682118054D+02 PE=-4.317233814317D+02 EE= 9.288614101866D+01
 Leave Link  502 at Sun May 10 11:31:43 2020, MaxMem= 1073741824 cpu:      44.2
 (Enter /home/matheus/.gaussian/g09/l122.exe)
 Restoring MOs from calculation   5 to rwf.
 Counterpoise: doing MCBS calculation for fragment   2
 Leave Link  122 at Sun May 10 11:31:43 2020, MaxMem= 1073741824 cpu:       0.0
 (Enter /home/matheus/.gaussian/g09/l301.exe)
 Basis read from rwf:  (5D, 7F)
 No pseudopotential information found on rwf file.
 There are    59 symmetry adapted basis functions of A   symmetry.
 Integral buffers will be    131072 words long.
 Raffenetti 2 integral format.
 Two-electron integral symmetry is turned on.
    59 basis functions,   217 primitive gaussians,    69 cartesian basis functions
    18 alpha electrons       18 beta electrons
       nuclear repulsion energy         0.0000000000 Hartrees.
 IExCor= 4639 DFT=T Ex+Corr=wB97XD ExCW=0 ScaHFX=  1.000000
 ScaDFX=  1.000000  1.000000  1.000000  1.000000 ScalE2=  1.000000  1.000000
 IRadAn=      5 IRanWt=     -1 IRanGd=            0 ICorTp=0
  HFx wShort=  0.000000 wLong=  0.200000 cFull=  0.222036 cShort=  0.000000 cLong=  0.777964
  DFx wShort=  0.000000 wLong=  0.200000 cFull=  0.000000 cShort=  0.000000 cLong=  1.000000
 NAtoms=    5 NActive=    1 NUniq=    1 SFac= 1.00D+00 NAtFMM=   60 NAOKFM=F Big=F
 R6Disp: Dispersion energy =         0.0000000000 Hartrees.
 Nuclear repulsion after empirical dispersion term =        0.0000000000 Hartrees.
 No density basis found on file   718.
 Leave Link  301 at Sun May 10 11:31:43 2020, MaxMem= 1073741824 cpu:       0.2
 (Enter /home/matheus/.gaussian/g09/l302.exe)
 NPDir=0 NMtPBC=     1 NCelOv=     1 NCel=       1 NClECP=     1 NCelD=      1
         NCelK=      1 NCelE2=     1 NClLst=     1 CellRange=     0.0.
 One-electron integrals computed using PRISM.
 NBasis=    59 RedAO= T  NBF=    59
 NBsUse=    59 1.00D-06 NBFU=    59
 Precomputing XC quadrature grid using
 IXCGrd= 2 IRadAn=           5 IRanWt=          -1 IRanGd=           0 AccXCQ= 0.00D+00.
 NRdTot=      81 NPtTot=       30352 NUsed=       30981 NTot=       31013
 NSgBfM=    69    69    69    69    69 NAtAll=     1     1.
 Leave Link  302 at Sun May 10 11:31:43 2020, MaxMem= 1073741824 cpu:       0.6
 (Enter /home/matheus/.gaussian/g09/l303.exe)
 DipDrv:  MaxL=1.
 Leave Link  303 at Sun May 10 11:31:43 2020, MaxMem= 1073741824 cpu:       0.1
 (Enter /home/matheus/.gaussian/g09/l401.exe)
 Initial guess read from the read-write file.
 Guess basis will be translated and rotated to current coordinates.
 Initial guess orbital symmetries:
       Occupied  (A) (A) (A) (A) (A) (A) (A) (A) (A) (A) (A) (A)
                 (A) (A) (A) (A) (A) (A)
       Virtual   (A) (A) (A) (A) (A) (A) (A) (A) (A) (A) (A) (A)
                 (A) (A) (A) (A) (A) (A) (A) (A) (A) (A) (A) (A)
                 (A) (A) (A) (A) (A) (A) (A) (A) (A) (A) (A) (A)
                 (A) (A) (A) (A) (A)
 The electronic state of the initial guess is 1-A.
 Generating alternative initial guess.
 Harris functional with IExCor= 4639 diagonalized for initial guess.
 ExpMin= 4.00D-02 ExpMax= 1.17D+07 ExpMxC= 1.33D+04 IAcc=3 IRadAn=         5 AccDes= 0.00D+00
 HarFok:  IExCor= 4639 AccDes= 0.00D+00 IRadAn=         5 IDoV= 1
 ScaDFX=  1.000000  1.000000  1.000000  1.000000
 FoFCou: FMM=F IPFlag=           0 FMFlag=      100000 FMFlg1=           0
         NFxFlg=           0 DoJE=T BraDBF=F KetDBF=T FulRan=T
         Omega=  0.000000  0.000000  1.000000  0.000000  0.000000 ICntrl=     500 IOpCl=  0
         NMat0=    1 NMatS0=    1 NMatT0=    0 NMatD0=    1 NMtDS0=    0 NMtDT0=    0
         I1Cent=           4 NGrid=           0.
 Petite list used in FoFCou.
 DSYEVD returned Info=         119 IAlg= 4 N=    59 NDim=    59 NE2=    18198841 trying DSYEV.
 Harris En= -2730.20235208354    
 Leave Link  401 at Sun May 10 11:31:43 2020, MaxMem= 1073741824 cpu:       1.0
 (Enter /home/matheus/.gaussian/g09/l502.exe)
 Closed shell SCF:
 Requested convergence on RMS density matrix=1.00D-08 within 128 cycles.
 Requested convergence on MAX density matrix=1.00D-06.
 Requested convergence on             energy=1.00D-06.
 No special actions if energy rises.
 Using DIIS extrapolation, IDIIS=  1040.
 Integral symmetry usage will be decided dynamically.
        30923 words used for storage of precomputed grid.
 IEnd=       64406 IEndB=       64406 NGot=  1073741824 MDV=  1073698889
 LenX=  1073698889 LenY=  1073693687
 Fock matrices will be formed incrementally for  20 cycles.

 Cycle   1  Pass 1  IDiag  1:
 FoFJK:  IHMeth= 1 ICntrl=     0 DoSepK=T KAlg= 1 I1Cent= 0 FoldK=F
 FoFCou: FMM=F IPFlag=           0 FMFlag=      100000 FMFlg1=           0
         NFxFlg=           0 DoJE=T BraDBF=F KetDBF=F FulRan=T
         Omega=  0.000000  0.000000  1.000000  0.000000  0.000000 ICntrl=     500 IOpCl=  0
         NMat0=    1 NMatS0=    1 NMatT0=    0 NMatD0=    1 NMtDS0=    0 NMtDT0=    0
         I1Cent=           0 NGrid=           0.
 Symmetry not used in FoFCou.
 E= -2753.87421986326    
 DIIS: error= 2.13D-13 at cycle   1 NSaved=   1.
 NSaved= 1 IEnMin= 1 EnMin= -2753.87421986326     IErMin= 1 ErrMin= 2.13D-13
 ErrMax= 2.13D-13 EMaxC= 1.00D-01 BMatC= 1.32D-24 BMatP= 1.32D-24
 IDIUse=1 WtCom= 1.00D+00 WtEn= 0.00D+00
 Coeff-Com:  0.100D+01
 Coeff:      0.100D+01
 Gap=     0.562 Goal=   None    Shift=    0.000
 RMSDP=1.85D-14 MaxDP=4.08D-13              OVMax= 1.51D-13

 SCF Done:  E(RwB97XD) =  -2753.87421986     A.U. after    1 cycles
             Convg  =    0.1846D-13             -V/T =  2.0013
 KE= 2.750300381543D+03 PE=-6.580241205809D+03 EE= 1.076066604402D+03
 Leave Link  502 at Sun May 10 11:31:44 2020, MaxMem= 1073741824 cpu:      11.2
 (Enter /home/matheus/.gaussian/g09/l122.exe)
 Restoring MOs from calculation   1 to rwf.
 Counterpoise: corrected energy =   -2905.434978169134
 Counterpoise: BSSE energy =       0.000022203735
 Leave Link  122 at Sun May 10 11:31:44 2020, MaxMem= 1073741824 cpu:       0.0
 (Enter /home/matheus/.gaussian/g09/l108.exe)
 Scan completed.

 Summary of the potential surface scan:
   N      R1          SCF    
 ----  ---------  -----------
    1     3.0000  -2753.87422
    2     3.1000  -2753.87422
    3     3.2000  -2753.87422
    4     3.3000  -2753.87422
    5     3.4000  -2753.87422
    6     3.5000  -2753.87422
    7     3.6000  -2753.87422
    8     3.7000  -2753.87422
    9     3.8000  -2753.87422
   10     3.9000  -2753.87422
   11     4.0000  -2753.87422
   12     4.1000  -2753.87422
   13     4.2000  -2753.87422
   14     4.3000  -2753.87422
   15     4.4000  -2753.87422
   16     4.5000  -2753.87422
   17     4.6000  -2753.87422
   18     4.7000  -2753.87422
   19     4.8000  -2753.87422
   20     4.9000  -2753.87422
   21     5.0000  -2753.87422
 ----  ---------  -----------
  
 Leave Link  108 at Sun May 10 11:31:44 2020, MaxMem= 1073741824 cpu:       0.0
 (Enter /home/matheus/.gaussian/g09/l9999.exe)
 1\1\GINC-REDGIANT\Scan\RwB97XD\Aug-CC-pVTZ\H2Kr1O2\MATHEUS\10-May-2020
 \1\\#p wb97xd/aug-cc-PVTz int=ultrafine counterpoise=2 Scan\\TCC\\0,1\
 O,0,0.,0.,0.725\O,0,0.,0.,-0.725\H,0,-0.7037808064,-0.5905422151,1.023
 5104166\H,0,0.,0.9187205947,-1.0235104166\Kr,0,0.,R1,0.\\R1=3.,s,20,0.
 1\\Version=EM64L-G09RevC.01\State=1-A\HF=-2753.8742199,-2753.8742199,-
 2753.8742199,-2753.8742199,-2753.8742199,-2753.8742199,-2753.8742199,-
 2753.8742199,-2753.8742199,-2753.8742199,-2753.8742199,-2753.8742199,-
 2753.8742199,-2753.8742199,-2753.8742199,-2753.8742199,-2753.8742199,-
 2753.8742199,-2753.8742199,-2753.8742199,-2753.8742199\RMSD=9.120e-09,
 1.920e-10,6.364e-11,4.203e-11,2.496e-11,1.570e-11,9.719e-12,6.056e-12,
 3.769e-12,2.340e-12,1.449e-12,9.033e-13,5.675e-13,3.579e-13,2.162e-13,
 1.298e-13,8.119e-14,5.556e-14,3.477e-14,2.017e-14,1.846e-14\PG=C01 [X(
 H2Kr1O2)]\\@


 THE WORLD IS MADE UP OF THE WILLS, THE WON'TS, AND THE CANT'S:
 THE WILLS DO EVERYTHING,
 THE WON'TS DO NOTHING,
 THE CAN'TS CAN'T DO ANYTHING.

                               -- FROM WALT DISNEY'S "BLACK HOLE"
 Job cpu time:  0 days  3 hours 12 minutes 55.4 seconds.
 File lengths (MBytes):  RWF=     33 Int=      0 D2E=      0 Chk=      8 Scr=      1
 Normal termination of Gaussian 09 at Sun May 10 11:31:44 2020.
