 Entering Gaussian System, Link 0=g09
 Input=/home/matheus/.tcc/Inputs/Inputs-wb97xd-default/H2O2-Kr_26.com
 Output=/home/matheus/.tcc/Logs/Logs-wb97xd-default/H2O2-Kr_26.log
 Initial command:
 /home/matheus/.gaussian/g09/l1.exe /home/matheus/.gaussian/g09/scratch/Gau-27631.inp -scrdir=/home/matheus/.gaussian/g09/scratch/
 Entering Link 1 = /home/matheus/.gaussian/g09/l1.exe PID=     27635.
  
 Copyright (c) 1988,1990,1992,1993,1995,1998,2003,2009,2011,
            Gaussian, Inc.  All Rights Reserved.
  
 This is part of the Gaussian(R) 09 program.  It is based on
 the Gaussian(R) 03 system (copyright 2003, Gaussian, Inc.),
 the Gaussian(R) 98 system (copyright 1998, Gaussian, Inc.),
 the Gaussian(R) 94 system (copyright 1995, Gaussian, Inc.),
 the Gaussian 92(TM) system (copyright 1992, Gaussian, Inc.),
 the Gaussian 90(TM) system (copyright 1990, Gaussian, Inc.),
 the Gaussian 88(TM) system (copyright 1988, Gaussian, Inc.),
 the Gaussian 86(TM) system (copyright 1986, Carnegie Mellon
 University), and the Gaussian 82(TM) system (copyright 1983,
 Carnegie Mellon University). Gaussian is a federally registered
 trademark of Gaussian, Inc.
  
 This software contains proprietary and confidential information,
 including trade secrets, belonging to Gaussian, Inc.
  
 This software is provided under written license and may be
 used, copied, transmitted, or stored only in accord with that
 written license.
  
 The following legend is applicable only to US Government
 contracts under FAR:
  
                    RESTRICTED RIGHTS LEGEND
  
 Use, reproduction and disclosure by the US Government is
 subject to restrictions as set forth in subparagraphs (a)
 and (c) of the Commercial Computer Software - Restricted
 Rights clause in FAR 52.227-19.
  
 Gaussian, Inc.
 340 Quinnipiac St., Bldg. 40, Wallingford CT 06492
  
  
 ---------------------------------------------------------------
 Warning -- This program may not be used in any manner that
 competes with the business of Gaussian, Inc. or will provide
 assistance to any competitor of Gaussian, Inc.  The licensee
 of this program is prohibited from giving any competitor of
 Gaussian, Inc. access to this program.  By using this program,
 the user acknowledges that Gaussian, Inc. is engaged in the
 business of creating and licensing software in the field of
 computational chemistry and represents and warrants to the
 licensee that it is not a competitor of Gaussian, Inc. and that
 it will not use this program in any manner prohibited above.
 ---------------------------------------------------------------
  

 Cite this work as:
 Gaussian 09, Revision C.01,
 M. J. Frisch, G. W. Trucks, H. B. Schlegel, G. E. Scuseria, 
 M. A. Robb, J. R. Cheeseman, G. Scalmani, V. Barone, B. Mennucci, 
 G. A. Petersson, H. Nakatsuji, M. Caricato, X. Li, H. P. Hratchian, 
 A. F. Izmaylov, J. Bloino, G. Zheng, J. L. Sonnenberg, M. Hada, 
 M. Ehara, K. Toyota, R. Fukuda, J. Hasegawa, M. Ishida, T. Nakajima, 
 Y. Honda, O. Kitao, H. Nakai, T. Vreven, J. A. Montgomery, Jr., 
 J. E. Peralta, F. Ogliaro, M. Bearpark, J. J. Heyd, E. Brothers, 
 K. N. Kudin, V. N. Staroverov, T. Keith, R. Kobayashi, J. Normand, 
 K. Raghavachari, A. Rendell, J. C. Burant, S. S. Iyengar, J. Tomasi, 
 M. Cossi, N. Rega, J. M. Millam, M. Klene, J. E. Knox, J. B. Cross, 
 V. Bakken, C. Adamo, J. Jaramillo, R. Gomperts, R. E. Stratmann, 
 O. Yazyev, A. J. Austin, R. Cammi, C. Pomelli, J. W. Ochterski, 
 R. L. Martin, K. Morokuma, V. G. Zakrzewski, G. A. Voth, 
 P. Salvador, J. J. Dannenberg, S. Dapprich, A. D. Daniels, 
 O. Farkas, J. B. Foresman, J. V. Ortiz, J. Cioslowski, 
 and D. J. Fox, Gaussian, Inc., Wallingford CT, 2010.
 
 ******************************************
 Gaussian 09:  EM64L-G09RevC.01 23-Sep-2011
                10-May-2020 
 ******************************************
 %mem=8GB
 %nproc=8
 Will use up to    8 processors via shared memory.
 -------------------------------------------------------
 #p wb97xd/aug-cc-PVTz int=ultrafine counterpoise=2 Scan
 -------------------------------------------------------
 1/38=1,60=1,62=2/1,8;
 2/12=2,17=6,18=5,29=3,40=1/2;
 1/38=1,53=5172,62=2/22;
 3/5=16,6=1,7=10,11=2,16=1,25=1,30=1,74=-58,75=-5/1,2,3;
 4//1;
 5/5=2,38=5/2;
 6/7=2,8=2,9=2,10=2,18=1,28=1/1;
 1/53=4052,62=2,63=1/22;
 3/5=7,6=11,7=10,11=2,16=1,25=1,30=1,74=-58,75=-5,82=7/1,2,3;
 4//1;
 5/5=2,38=5/2;
 6/7=2,8=2,9=2,10=2,18=1,28=1/1;
 1/53=3042,62=2,63=2/22;
 3/5=7,6=11,7=10,11=2,16=1,25=1,30=1,74=-58,75=-5,82=7/1,2,3;
 4//1;
 5/5=2,38=5/2;
 6/7=2,8=2,9=2,10=2,18=1,28=1/1;
 1/53=2032,62=2,63=3/22;
 3/5=7,6=11,7=10,11=2,16=1,25=1,30=1,74=-58,75=-5,82=7/1,2,3;
 4//1;
 5/5=2,38=5/2;
 6/7=2,8=2,9=2,10=2,18=1,28=1/1;
 1/53=1022,62=2,63=4/22;
 3/5=7,6=11,7=10,11=2,16=1,25=1,30=1,74=-58,75=-5,82=7/1,2,3;
 4//1;
 5/5=2,38=5/2;
 6/7=2,8=2,9=2,10=2,18=1,28=1/1;
 1/53=5014,62=2,63=5/22;
 1/60=1,62=2/8(1);
 99/9=1/99;
 2/29=3/2;
 1/53=5173,62=2/22;
 3/5=7,6=11,7=10,11=2,16=1,25=1,30=1,74=-58,75=-5,82=7/1,2,3;
 4/5=5,16=3/1;
 5/5=2,38=5/2;
 1/53=4053,62=2,63=1/22;
 3/5=7,6=11,7=10,11=2,16=1,25=1,30=1,74=-58,75=-5,82=7/1,2,3;
 4/5=5,16=3/1;
 5/5=2,38=5/2;
 1/53=3043,62=2,63=2/22;
 3/5=7,6=11,7=10,11=2,16=1,25=1,30=1,74=-58,75=-5,82=7/1,2,3;
 4/5=5,16=3/1;
 5/5=2,38=5/2;
 1/53=2033,62=2,63=3/22;
 3/5=7,6=11,7=10,11=2,16=1,25=1,30=1,74=-58,75=-5,82=7/1,2,3;
 4/5=5,16=3/1;
 5/5=2,38=5/2;
 1/53=1024,62=2,63=4/22;
 3/5=7,6=11,7=10,11=2,16=1,25=1,30=1,74=-58,75=-5,82=7/1,2,3;
 4/5=5,16=3/1;
 5/5=2,38=5/2;
 1/53=5014,62=2,63=5/22;
 1/60=1,62=2/8(-22);
 99/9=1/99;
 Leave Link    1 at Sun May 10 12:21:29 2020, MaxMem= 1073741824 cpu:       0.3
 (Enter /home/matheus/.gaussian/g09/l101.exe)
 ---
 TCC
 ---
 Charge =  0 Multiplicity = 1 in supermolecule
 Charge =  0 Multiplicity = 1 in fragment  1.
 Charge =  0 Multiplicity = 1 in fragment  2.
 Symbolic Z-Matrix:
 O(Fragment=1)         0.        0.        0.725 
 O(Fragment=1)         0.        0.       -0.725 
 H(Fragment=1)        -0.90476  -0.15953   1.02351 
 H(Fragment=1)         0.        0.91872  -1.02351 
 Kr(Fragment=2)        0.       R1        0. 
       Variables:
  R1                    3.     Scan 20    0.1    
 
 NAtoms=      5 NQM=        0 NQMF=       0 NMMI=      5 NMMIF=      0
                NMic=       0 NMicF=      0.
                    Isotopes and Nuclear Properties:
 (Nuclear quadrupole moments (NQMom) in fm**2, nuclear magnetic moments (NMagM)
  in nuclear magnetons)

  Atom         1           2           3           4           5
 IAtWgt=          16          16           1           1          84
 AtmWgt=  15.9949146  15.9949146   1.0078250   1.0078250  83.9115064
 NucSpn=           0           0           1           1           0
 AtZEff=   0.0000000   0.0000000   0.0000000   0.0000000   0.0000000
 NQMom=    0.0000000   0.0000000   0.0000000   0.0000000   0.0000000
 NMagM=    0.0000000   0.0000000   2.7928460   2.7928460   0.0000000
 Leave Link  101 at Sun May 10 12:21:29 2020, MaxMem= 1073741824 cpu:       0.3
 (Enter /home/matheus/.gaussian/g09/l108.exe)
 Scan the potential surface.
 Variable   Value     No. Steps Step-Size
 -------- ----------- --------- ---------
     1       3.000000      20      0.1000
 A total of     21 points will be computed.
 Leave Link  108 at Sun May 10 12:21:29 2020, MaxMem= 1073741824 cpu:       0.0
 (Enter /home/matheus/.gaussian/g09/l202.exe)
 ---------------------------------------------------------------------------------------------------
                            Z-MATRIX (ANGSTROMS AND DEGREES)
   CD    Cent   Atom    N1       Length/X        N2       Alpha/Y        N3        Beta/Z          J
 ---------------------------------------------------------------------------------------------------
      1      1  O        0   0.000000          0.000000          0.725000
      2      2  O        0   0.000000          0.000000         -0.725000
      3      3  H        0  -0.904763         -0.159534          1.023510
      4      4  H        0   0.000000          0.918721         -1.023510
      5      5  Kr       0   0.000000          3.000000          0.000000
 ---------------------------------------------------------------------------------------------------
                         Z-Matrix orientation:                         
 ---------------------------------------------------------------------
 Center     Atomic      Atomic             Coordinates (Angstroms)
 Number     Number       Type             X           Y           Z
 ---------------------------------------------------------------------
      1          8           0        0.000000    0.000000    0.725000
      2          8           0        0.000000    0.000000   -0.725000
      3          1           0       -0.904763   -0.159534    1.023510
      4          1           0        0.000000    0.918721   -1.023510
      5         36           0        0.000000    3.000000    0.000000
 ---------------------------------------------------------------------
                    Distance matrix (angstroms):
                    1          2          3          4          5
     1  O    0.000000
     2  O    1.450000   0.000000
     3  H    0.966000   1.975180   0.000000
     4  H    1.975180   0.966000   2.484255   0.000000
     5  Kr   3.086361   3.086361   3.442212   2.319331   0.000000
 Stoichiometry    H2KrO2
 Framework group  C1[X(H2KrO2)]
 Deg. of freedom     9
 Full point group                 C1      NOp   1
 Largest Abelian subgroup         C1      NOp   1
 Largest concise Abelian subgroup C1      NOp   1
                         Standard orientation:                         
 ---------------------------------------------------------------------
 Center     Atomic      Atomic             Coordinates (Angstroms)
 Number     Number       Type             X           Y           Z
 ---------------------------------------------------------------------
      1          8           0       -2.021768   -0.693300   -0.118861
      2          8           0       -2.004728    0.750466    0.014370
      3          1           0       -2.201795   -1.071309    0.751687
      4          1           0       -1.082725    1.035355    0.058021
      5         36           0        0.986014   -0.011705    0.000728
 ---------------------------------------------------------------------
 Rotational constants (GHZ):     25.6313314      2.3378634      2.1561704
 Leave Link  202 at Sun May 10 12:21:29 2020, MaxMem= 1073741824 cpu:       0.0
 (Enter /home/matheus/.gaussian/g09/l122.exe)
 Leave Link  122 at Sun May 10 12:21:29 2020, MaxMem= 1073741824 cpu:       0.0
 (Enter /home/matheus/.gaussian/g09/l301.exe)
 Standard basis: Aug-CC-pVTZ (5D, 7F)
 Ernie: Thresh=  0.10000D-02 Tol=  0.10000D-05 Strict=F.
 Ernie:  38 primitive shells out of 205 were deleted.
 There are   197 symmetry adapted basis functions of A   symmetry.
 Integral buffers will be    131072 words long.
 Raffenetti 2 integral format.
 Two-electron integral symmetry is turned on.
   197 basis functions,   415 primitive gaussians,   229 cartesian basis functions
    27 alpha electrons       27 beta electrons
       nuclear repulsion energy       149.1283769891 Hartrees.
 IExCor= 4639 DFT=T Ex+Corr=wB97XD ExCW=0 ScaHFX=  1.000000
 ScaDFX=  1.000000  1.000000  1.000000  1.000000 ScalE2=  1.000000  1.000000
 IRadAn=      5 IRanWt=     -1 IRanGd=            0 ICorTp=0
  HFx wShort=  0.000000 wLong=  0.200000 cFull=  0.222036 cShort=  0.000000 cLong=  0.777964
  DFx wShort=  0.000000 wLong=  0.200000 cFull=  0.000000 cShort=  0.000000 cLong=  1.000000
 NAtoms=    5 NActive=    5 NUniq=    5 SFac= 1.00D+00 NAtFMM=   60 NAOKFM=F Big=F
 R6Disp: Dispersion energy =        -0.0009223841 Hartrees.
 Nuclear repulsion after empirical dispersion term =      149.1274546049 Hartrees.
 Leave Link  301 at Sun May 10 12:21:29 2020, MaxMem= 1073741824 cpu:       0.2
 (Enter /home/matheus/.gaussian/g09/l302.exe)
 NPDir=0 NMtPBC=     1 NCelOv=     1 NCel=       1 NClECP=     1 NCelD=      1
         NCelK=      1 NCelE2=     1 NClLst=     1 CellRange=     0.0.
 One-electron integrals computed using PRISM.
 NBasis=   197 RedAO= T  NBF=   197
 NBsUse=   197 1.00D-06 NBFU=   197
 Precomputing XC quadrature grid using
 IXCGrd= 2 IRadAn=           5 IRanWt=          -1 IRanGd=           0 AccXCQ= 0.00D+00.
 NRdTot=     427 NPtTot=      123512 NUsed=      126579 NTot=      126611
 NSgBfM=   229   229   229   229   229 NAtAll=     5     5.
 Leave Link  302 at Sun May 10 12:21:29 2020, MaxMem= 1073741824 cpu:       0.9
 (Enter /home/matheus/.gaussian/g09/l303.exe)
 DipDrv:  MaxL=1.
 Leave Link  303 at Sun May 10 12:21:29 2020, MaxMem= 1073741824 cpu:       0.2
 (Enter /home/matheus/.gaussian/g09/l401.exe)
 Harris functional with IExCor= 4639 diagonalized for initial guess.
 ExpMin= 2.53D-02 ExpMax= 1.17D+07 ExpMxC= 1.33D+04 IAcc=3 IRadAn=         5 AccDes= 0.00D+00
 HarFok:  IExCor= 4639 AccDes= 0.00D+00 IRadAn=         5 IDoV= 1
 ScaDFX=  1.000000  1.000000  1.000000  1.000000
 FoFCou: FMM=F IPFlag=           0 FMFlag=      100000 FMFlg1=           0
         NFxFlg=           0 DoJE=T BraDBF=F KetDBF=T FulRan=T
         Omega=  0.000000  0.000000  1.000000  0.000000  0.000000 ICntrl=     500 IOpCl=  0
         NMat0=    1 NMatS0=    1 NMatT0=    0 NMatD0=    1 NMtDS0=    0 NMtDT0=    0
         I1Cent=           4 NGrid=           0.
 Petite list used in FoFCou.
 Harris En= -2876.49077559634    
 Initial guess orbital symmetries:
       Occupied  (A) (A) (A) (A) (A) (A) (A) (A) (A) (A) (A) (A)
                 (A) (A) (A) (A) (A) (A) (A) (A) (A) (A) (A) (A)
                 (A) (A) (A)
       Virtual   (A) (A) (A) (A) (A) (A) (A) (A) (A) (A) (A) (A)
                 (A) (A) (A) (A) (A) (A) (A) (A) (A) (A) (A) (A)
                 (A) (A) (A) (A) (A) (A) (A) (A) (A) (A) (A) (A)
                 (A) (A) (A) (A) (A) (A) (A) (A) (A) (A) (A) (A)
                 (A) (A) (A) (A) (A) (A) (A) (A) (A) (A) (A) (A)
                 (A) (A) (A) (A) (A) (A) (A) (A) (A) (A) (A) (A)
                 (A) (A) (A) (A) (A) (A) (A) (A) (A) (A) (A) (A)
                 (A) (A) (A) (A) (A) (A) (A) (A) (A) (A) (A) (A)
                 (A) (A) (A) (A) (A) (A) (A) (A) (A) (A) (A) (A)
                 (A) (A) (A) (A) (A) (A) (A) (A) (A) (A) (A) (A)
                 (A) (A) (A) (A) (A) (A) (A) (A) (A) (A) (A) (A)
                 (A) (A) (A) (A) (A) (A) (A) (A) (A) (A) (A) (A)
                 (A) (A) (A) (A) (A) (A) (A) (A) (A) (A) (A) (A)
                 (A) (A) (A) (A) (A) (A) (A) (A) (A) (A) (A) (A)
                 (A) (A)
 The electronic state of the initial guess is 1-A.
 Leave Link  401 at Sun May 10 12:21:29 2020, MaxMem= 1073741824 cpu:       3.7
 (Enter /home/matheus/.gaussian/g09/l502.exe)
 Closed shell SCF:
 Requested convergence on RMS density matrix=1.00D-08 within 128 cycles.
 Requested convergence on MAX density matrix=1.00D-06.
 Requested convergence on             energy=1.00D-06.
 No special actions if energy rises.
 Using DIIS extrapolation, IDIIS=  1040.
 Integral symmetry usage will be decided dynamically.
       126521 words used for storage of precomputed grid.
 IEnd=      305468 IEndB=      305468 NGot=  1073741824 MDV=  1073505667
 LenX=  1073505667 LenY=  1073452785
 Fock matrices will be formed incrementally for  20 cycles.

 Cycle   1  Pass 1  IDiag  1:
 FoFJK:  IHMeth= 1 ICntrl=     0 DoSepK=T KAlg= 1 I1Cent= 0 FoldK=F
 FoFCou: FMM=F IPFlag=           0 FMFlag=      100000 FMFlg1=           0
         NFxFlg=           0 DoJE=T BraDBF=F KetDBF=F FulRan=T
         Omega=  0.000000  0.000000  1.000000  0.000000  0.000000 ICntrl=     500 IOpCl=  0
         NMat0=    1 NMatS0=    1 NMatT0=    0 NMatD0=    1 NMtDS0=    0 NMtDT0=    0
         I1Cent=           0 NGrid=           0.
 Symmetry not used in FoFCou.
 E= -2904.93668604735    
 DIIS: error= 6.02D-02 at cycle   1 NSaved=   1.
 NSaved= 1 IEnMin= 1 EnMin= -2904.93668604735     IErMin= 1 ErrMin= 6.02D-02
 ErrMax= 6.02D-02 EMaxC= 1.00D-01 BMatC= 2.17D+00 BMatP= 2.17D+00
 IDIUse=3 WtCom= 3.98D-01 WtEn= 6.02D-01
 Coeff-Com:  0.100D+01
 Coeff-En:   0.100D+01
 Coeff:      0.100D+01
 Gap=     0.531 Goal=   None    Shift=    0.000
 GapD=    0.531 DampG=2.000 DampE=0.500 DampFc=1.0000 IDamp=-1.
 RMSDP=6.12D-03 MaxDP=3.66D-01              OVMax= 1.78D-01

 Cycle   2  Pass 1  IDiag  1:
 RMSU=  4.30D-03    CP:  1.03D+00
 FoFJK:  IHMeth= 1 ICntrl=     0 DoSepK=T KAlg= 1 I1Cent= 0 FoldK=F
 E= -2905.22998458107     Delta-E=       -0.293298533727 Rises=F Damp=F
 DIIS: error= 2.92D-02 at cycle   2 NSaved=   2.
 NSaved= 2 IEnMin= 2 EnMin= -2905.22998458107     IErMin= 2 ErrMin= 2.92D-02
 ErrMax= 2.92D-02 EMaxC= 1.00D-01 BMatC= 5.64D-01 BMatP= 2.17D+00
 IDIUse=3 WtCom= 7.08D-01 WtEn= 2.92D-01
 Coeff-Com:  0.330D+00 0.670D+00
 Coeff-En:   0.217D+00 0.783D+00
 Coeff:      0.297D+00 0.703D+00
 Gap=     0.478 Goal=   None    Shift=    0.000
 RMSDP=2.69D-03 MaxDP=1.56D-01 DE=-2.93D-01 OVMax= 7.64D-02

 Cycle   3  Pass 1  IDiag  1:
 RMSU=  5.48D-04    CP:  1.02D+00  5.79D-01
 FoFJK:  IHMeth= 1 ICntrl=     0 DoSepK=T KAlg= 1 I1Cent= 0 FoldK=F
 E= -2905.42292099116     Delta-E=       -0.192936410090 Rises=F Damp=F
 DIIS: error= 6.35D-03 at cycle   3 NSaved=   3.
 NSaved= 3 IEnMin= 3 EnMin= -2905.42292099116     IErMin= 3 ErrMin= 6.35D-03
 ErrMax= 6.35D-03 EMaxC= 1.00D-01 BMatC= 1.77D-02 BMatP= 5.64D-01
 IDIUse=3 WtCom= 9.37D-01 WtEn= 6.35D-02
 Coeff-Com:  0.372D-01 0.189D+00 0.774D+00
 Coeff-En:   0.000D+00 0.000D+00 0.100D+01
 Coeff:      0.348D-01 0.177D+00 0.788D+00
 Gap=     0.439 Goal=   None    Shift=    0.000
 RMSDP=4.92D-04 MaxDP=2.17D-02 DE=-1.93D-01 OVMax= 2.63D-02

 Cycle   4  Pass 1  IDiag  1:
 RMSU=  2.41D-04    CP:  1.02D+00  6.35D-01  8.74D-01
 FoFJK:  IHMeth= 1 ICntrl=     0 DoSepK=T KAlg= 1 I1Cent= 0 FoldK=F
 E= -2905.43089295612     Delta-E=       -0.007971964957 Rises=F Damp=F
 DIIS: error= 2.66D-03 at cycle   4 NSaved=   4.
 NSaved= 4 IEnMin= 4 EnMin= -2905.43089295612     IErMin= 4 ErrMin= 2.66D-03
 ErrMax= 2.66D-03 EMaxC= 1.00D-01 BMatC= 2.09D-03 BMatP= 1.77D-02
 IDIUse=3 WtCom= 9.73D-01 WtEn= 2.66D-02
 Coeff-Com: -0.846D-03 0.513D-01 0.383D+00 0.567D+00
 Coeff-En:   0.000D+00 0.000D+00 0.000D+00 0.100D+01
 Coeff:     -0.824D-03 0.499D-01 0.373D+00 0.578D+00
 Gap=     0.423 Goal=   None    Shift=    0.000
 RMSDP=1.33D-04 MaxDP=7.96D-03 DE=-7.97D-03 OVMax= 7.58D-03

 Cycle   5  Pass 1  IDiag  1:
 RMSU=  3.94D-05    CP:  1.02D+00  6.32D-01  9.20D-01  6.69D-01
 FoFJK:  IHMeth= 1 ICntrl=     0 DoSepK=T KAlg= 1 I1Cent= 0 FoldK=F
 E= -2905.43216029205     Delta-E=       -0.001267335933 Rises=F Damp=F
 DIIS: error= 2.90D-04 at cycle   5 NSaved=   5.
 NSaved= 5 IEnMin= 5 EnMin= -2905.43216029205     IErMin= 5 ErrMin= 2.90D-04
 ErrMax= 2.90D-04 EMaxC= 1.00D-01 BMatC= 3.45D-05 BMatP= 2.09D-03
 IDIUse=3 WtCom= 9.97D-01 WtEn= 2.90D-03
 Coeff-Com: -0.105D-02 0.166D-01 0.141D+00 0.232D+00 0.612D+00
 Coeff-En:   0.000D+00 0.000D+00 0.000D+00 0.000D+00 0.100D+01
 Coeff:     -0.104D-02 0.166D-01 0.140D+00 0.231D+00 0.613D+00
 Gap=     0.422 Goal=   None    Shift=    0.000
 RMSDP=2.20D-05 MaxDP=1.02D-03 DE=-1.27D-03 OVMax= 1.60D-03

 Cycle   6  Pass 1  IDiag  1:
 RMSU=  1.50D-05    CP:  1.02D+00  6.32D-01  9.24D-01  6.81D-01  9.85D-01
 FoFJK:  IHMeth= 1 ICntrl=     0 DoSepK=T KAlg= 1 I1Cent= 0 FoldK=F
 E= -2905.43217849893     Delta-E=       -0.000018206878 Rises=F Damp=F
 DIIS: error= 1.40D-04 at cycle   6 NSaved=   6.
 NSaved= 6 IEnMin= 6 EnMin= -2905.43217849893     IErMin= 6 ErrMin= 1.40D-04
 ErrMax= 1.40D-04 EMaxC= 1.00D-01 BMatC= 8.45D-06 BMatP= 3.45D-05
 IDIUse=3 WtCom= 9.99D-01 WtEn= 1.40D-03
 Coeff-Com: -0.386D-03-0.506D-02-0.253D-01-0.308D-01 0.325D+00 0.736D+00
 Coeff-En:   0.000D+00 0.000D+00 0.000D+00 0.000D+00 0.149D+00 0.851D+00
 Coeff:     -0.385D-03-0.505D-02-0.252D-01-0.308D-01 0.325D+00 0.737D+00
 Gap=     0.422 Goal=   None    Shift=    0.000
 RMSDP=1.16D-05 MaxDP=4.47D-04 DE=-1.82D-05 OVMax= 6.26D-04

 Cycle   7  Pass 1  IDiag  1:
 RMSU=  3.99D-06    CP:  1.02D+00  6.32D-01  9.31D-01  6.86D-01  1.13D+00
                    CP:  8.95D-01
 FoFJK:  IHMeth= 1 ICntrl=     0 DoSepK=T KAlg= 1 I1Cent= 0 FoldK=F
 E= -2905.43218466280     Delta-E=       -0.000006163873 Rises=F Damp=F
 DIIS: error= 1.23D-05 at cycle   7 NSaved=   7.
 NSaved= 7 IEnMin= 7 EnMin= -2905.43218466280     IErMin= 7 ErrMin= 1.23D-05
 ErrMax= 1.23D-05 EMaxC= 1.00D-01 BMatC= 6.65D-08 BMatP= 8.45D-06
 IDIUse=1 WtCom= 1.00D+00 WtEn= 0.00D+00
 Coeff-Com:  0.438D-05-0.121D-02-0.862D-02-0.124D-01 0.327D-02 0.805D-01
 Coeff-Com:  0.938D+00
 Coeff:      0.438D-05-0.121D-02-0.862D-02-0.124D-01 0.327D-02 0.805D-01
 Coeff:      0.938D+00
 Gap=     0.422 Goal=   None    Shift=    0.000
 RMSDP=2.16D-06 MaxDP=6.31D-05 DE=-6.16D-06 OVMax= 1.76D-04

 Cycle   8  Pass 1  IDiag  1:
 RMSU=  8.84D-07    CP:  1.02D+00  6.32D-01  9.31D-01  6.87D-01  1.15D+00
                    CP:  9.39D-01  1.15D+00
 FoFJK:  IHMeth= 1 ICntrl=     0 DoSepK=T KAlg= 1 I1Cent= 0 FoldK=F
 E= -2905.43218478667     Delta-E=       -0.000000123870 Rises=F Damp=F
 DIIS: error= 3.19D-06 at cycle   8 NSaved=   8.
 NSaved= 8 IEnMin= 8 EnMin= -2905.43218478667     IErMin= 8 ErrMin= 3.19D-06
 ErrMax= 3.19D-06 EMaxC= 1.00D-01 BMatC= 3.95D-09 BMatP= 6.65D-08
 IDIUse=1 WtCom= 1.00D+00 WtEn= 0.00D+00
 Coeff-Com:  0.177D-04 0.128D-03 0.462D-03 0.337D-03-0.169D-01-0.305D-01
 Coeff-Com:  0.537D-01 0.993D+00
 Coeff:      0.177D-04 0.128D-03 0.462D-03 0.337D-03-0.169D-01-0.305D-01
 Coeff:      0.537D-01 0.993D+00
 Gap=     0.422 Goal=   None    Shift=    0.000
 RMSDP=6.43D-07 MaxDP=1.47D-05 DE=-1.24D-07 OVMax= 6.57D-05

 Cycle   9  Pass 1  IDiag  1:
 RMSU=  2.10D-07    CP:  1.02D+00  6.32D-01  9.32D-01  6.87D-01  1.16D+00
                    CP:  9.46D-01  1.21D+00  1.29D+00
 FoFJK:  IHMeth= 1 ICntrl=     0 DoSepK=T KAlg= 1 I1Cent= 0 FoldK=F
 E= -2905.43218479701     Delta-E=       -0.000000010333 Rises=F Damp=F
 DIIS: error= 1.16D-06 at cycle   9 NSaved=   9.
 NSaved= 9 IEnMin= 9 EnMin= -2905.43218479701     IErMin= 9 ErrMin= 1.16D-06
 ErrMax= 1.16D-06 EMaxC= 1.00D-01 BMatC= 3.52D-10 BMatP= 3.95D-09
 IDIUse=1 WtCom= 1.00D+00 WtEn= 0.00D+00
 Coeff-Com: -0.900D-06 0.707D-04 0.527D-03 0.595D-03-0.630D-03-0.422D-02
 Coeff-Com: -0.528D-01-0.430D-01 0.110D+01
 Coeff:     -0.900D-06 0.707D-04 0.527D-03 0.595D-03-0.630D-03-0.422D-02
 Coeff:     -0.528D-01-0.430D-01 0.110D+01
 Gap=     0.422 Goal=   None    Shift=    0.000
 RMSDP=2.24D-07 MaxDP=6.40D-06 DE=-1.03D-08 OVMax= 2.93D-05

 Cycle  10  Pass 1  IDiag  1:
 RMSU=  8.20D-08    CP:  1.02D+00  6.32D-01  9.32D-01  6.86D-01  1.16D+00
                    CP:  9.47D-01  1.22D+00  1.39D+00  1.37D+00
 FoFJK:  IHMeth= 1 ICntrl=     0 DoSepK=T KAlg= 1 I1Cent= 0 FoldK=F
 E= -2905.43218479825     Delta-E=       -0.000000001242 Rises=F Damp=F
 DIIS: error= 3.71D-07 at cycle  10 NSaved=  10.
 NSaved=10 IEnMin=10 EnMin= -2905.43218479825     IErMin=10 ErrMin= 3.71D-07
 ErrMax= 3.71D-07 EMaxC= 1.00D-01 BMatC= 4.38D-11 BMatP= 3.52D-10
 IDIUse=1 WtCom= 1.00D+00 WtEn= 0.00D+00
 Coeff-Com: -0.104D-05-0.403D-05-0.472D-05-0.494D-05 0.148D-02 0.283D-02
 Coeff-Com: -0.413D-02-0.116D+00 0.131D+00 0.985D+00
 Coeff:     -0.104D-05-0.403D-05-0.472D-05-0.494D-05 0.148D-02 0.283D-02
 Coeff:     -0.413D-02-0.116D+00 0.131D+00 0.985D+00
 Gap=     0.422 Goal=   None    Shift=    0.000
 RMSDP=7.38D-08 MaxDP=1.62D-06 DE=-1.24D-09 OVMax= 1.04D-05

 Cycle  11  Pass 1  IDiag  1:
 RMSU=  1.98D-08    CP:  1.02D+00  6.32D-01  9.32D-01  6.86D-01  1.16D+00
                    CP:  9.47D-01  1.22D+00  1.40D+00  1.54D+00  1.32D+00
 FoFJK:  IHMeth= 1 ICntrl=     0 DoSepK=T KAlg= 1 I1Cent= 0 FoldK=F
 E= -2905.43218479837     Delta-E=       -0.000000000117 Rises=F Damp=F
 DIIS: error= 1.10D-07 at cycle  11 NSaved=  11.
 NSaved=11 IEnMin=11 EnMin= -2905.43218479837     IErMin=11 ErrMin= 1.10D-07
 ErrMax= 1.10D-07 EMaxC= 1.00D-01 BMatC= 4.39D-12 BMatP= 4.38D-11
 IDIUse=1 WtCom= 1.00D+00 WtEn= 0.00D+00
 Coeff-Com:  0.371D-06-0.632D-05-0.557D-04-0.469D-04-0.100D-04 0.334D-03
 Coeff-Com:  0.699D-02-0.248D-03-0.108D+00-0.509D-01 0.115D+01
 Coeff:      0.371D-06-0.632D-05-0.557D-04-0.469D-04-0.100D-04 0.334D-03
 Coeff:      0.699D-02-0.248D-03-0.108D+00-0.509D-01 0.115D+01
 Gap=     0.422 Goal=   None    Shift=    0.000
 RMSDP=2.94D-08 MaxDP=6.42D-07 DE=-1.17D-10 OVMax= 4.15D-06

 Cycle  12  Pass 1  IDiag  1:
 RMSU=  5.64D-09    CP:  1.02D+00  6.32D-01  9.32D-01  6.86D-01  1.16D+00
                    CP:  9.47D-01  1.22D+00  1.41D+00  1.60D+00  1.50D+00
                    CP:  1.33D+00
 FoFJK:  IHMeth= 1 ICntrl=     0 DoSepK=T KAlg= 1 I1Cent= 0 FoldK=F
 E= -2905.43218479837     Delta-E=        0.000000000000 Rises=F Damp=F
 DIIS: error= 2.41D-08 at cycle  12 NSaved=  12.
 NSaved=12 IEnMin=12 EnMin= -2905.43218479837     IErMin=12 ErrMin= 2.41D-08
 ErrMax= 2.41D-08 EMaxC= 1.00D-01 BMatC= 1.87D-13 BMatP= 4.39D-12
 IDIUse=1 WtCom= 1.00D+00 WtEn= 0.00D+00
 Coeff-Com:  0.669D-08-0.348D-06-0.174D-05-0.438D-05-0.107D-03-0.199D-03
 Coeff-Com:  0.473D-03 0.643D-02-0.182D-02-0.570D-01-0.695D-01 0.112D+01
 Coeff:      0.669D-08-0.348D-06-0.174D-05-0.438D-05-0.107D-03-0.199D-03
 Coeff:      0.473D-03 0.643D-02-0.182D-02-0.570D-01-0.695D-01 0.112D+01
 Gap=     0.422 Goal=   None    Shift=    0.000
 RMSDP=6.87D-09 MaxDP=1.86D-07 DE=-4.55D-13 OVMax= 8.31D-07

 SCF Done:  E(RwB97XD) =  -2905.43218480     A.U. after   12 cycles
             Convg  =    0.6873D-08             -V/T =  2.0015
 KE= 2.900984481586D+03 PE=-7.236534653739D+03 EE= 1.280990532749D+03
 Leave Link  502 at Sun May 10 12:22:07 2020, MaxMem= 1073741824 cpu:     302.2
 (Enter /home/matheus/.gaussian/g09/l601.exe)
 Copying SCF densities to generalized density rwf, IOpCl= 0 IROHF=0.

 **********************************************************************

            Population analysis using the SCF density.

 **********************************************************************

 Orbital symmetries:
       Occupied  (A) (A) (A) (A) (A) (A) (A) (A) (A) (A) (A) (A)
                 (A) (A) (A) (A) (A) (A) (A) (A) (A) (A) (A) (A)
                 (A) (A) (A)
       Virtual   (A) (A) (A) (A) (A) (A) (A) (A) (A) (A) (A) (A)
                 (A) (A) (A) (A) (A) (A) (A) (A) (A) (A) (A) (A)
                 (A) (A) (A) (A) (A) (A) (A) (A) (A) (A) (A) (A)
                 (A) (A) (A) (A) (A) (A) (A) (A) (A) (A) (A) (A)
                 (A) (A) (A) (A) (A) (A) (A) (A) (A) (A) (A) (A)
                 (A) (A) (A) (A) (A) (A) (A) (A) (A) (A) (A) (A)
                 (A) (A) (A) (A) (A) (A) (A) (A) (A) (A) (A) (A)
                 (A) (A) (A) (A) (A) (A) (A) (A) (A) (A) (A) (A)
                 (A) (A) (A) (A) (A) (A) (A) (A) (A) (A) (A) (A)
                 (A) (A) (A) (A) (A) (A) (A) (A) (A) (A) (A) (A)
                 (A) (A) (A) (A) (A) (A) (A) (A) (A) (A) (A) (A)
                 (A) (A) (A) (A) (A) (A) (A) (A) (A) (A) (A) (A)
                 (A) (A) (A) (A) (A) (A) (A) (A) (A) (A) (A) (A)
                 (A) (A) (A) (A) (A) (A) (A) (A) (A) (A) (A) (A)
                 (A) (A)
 The electronic state is 1-A.
 Alpha  occ. eigenvalues -- -513.07232 -67.33919 -60.88803 -60.88790 -60.88782
 Alpha  occ. eigenvalues --  -19.31867 -19.31485  -9.79228  -7.48560  -7.48518
 Alpha  occ. eigenvalues --   -7.48491  -3.35299  -3.35291  -3.35270  -3.35236
 Alpha  occ. eigenvalues --   -3.35233  -1.22164  -1.01080  -0.99851  -0.64951
 Alpha  occ. eigenvalues --   -0.57649  -0.51768  -0.48266  -0.47918  -0.47078
 Alpha  occ. eigenvalues --   -0.39911  -0.38729
 Alpha virt. eigenvalues --    0.03425   0.04218   0.07929   0.09495   0.10336
 Alpha virt. eigenvalues --    0.11824   0.13315   0.13878   0.17013   0.17749
 Alpha virt. eigenvalues --    0.17900   0.18854   0.20326   0.22081   0.23127
 Alpha virt. eigenvalues --    0.24149   0.25299   0.27493   0.30392   0.32453
 Alpha virt. eigenvalues --    0.33884   0.34966   0.35883   0.37805   0.38789
 Alpha virt. eigenvalues --    0.40111   0.42063   0.46961   0.51206   0.54082
 Alpha virt. eigenvalues --    0.54661   0.58440   0.60061   0.63734   0.67138
 Alpha virt. eigenvalues --    0.69047   0.69935   0.71489   0.74009   0.74215
 Alpha virt. eigenvalues --    0.75054   0.75716   0.76688   0.78249   0.81088
 Alpha virt. eigenvalues --    0.83392   0.85242   0.87067   0.87981   0.88803
 Alpha virt. eigenvalues --    0.90553   0.91670   0.92914   0.94644   0.97790
 Alpha virt. eigenvalues --    0.99343   1.00923   1.03131   1.03290   1.05897
 Alpha virt. eigenvalues --    1.07873   1.14214   1.15880   1.18564   1.20848
 Alpha virt. eigenvalues --    1.23494   1.27094   1.32427   1.35135   1.38279
 Alpha virt. eigenvalues --    1.42624   1.47645   1.48780   1.51198   1.57164
 Alpha virt. eigenvalues --    1.66004   1.69292   1.80153   1.88026   1.92394
 Alpha virt. eigenvalues --    1.95808   2.00223   2.04319   2.09427   2.12754
 Alpha virt. eigenvalues --    2.14514   2.14789   2.16177   2.19939   2.23704
 Alpha virt. eigenvalues --    2.25191   2.26559   2.28581   2.29072   2.30915
 Alpha virt. eigenvalues --    2.36050   2.37295   2.41036   2.43017   2.44480
 Alpha virt. eigenvalues --    2.45969   2.46317   2.50242   2.53164   2.54231
 Alpha virt. eigenvalues --    2.56731   2.59243   2.61607   2.67090   2.67502
 Alpha virt. eigenvalues --    2.70594   2.72985   2.75381   2.82879   2.84655
 Alpha virt. eigenvalues --    2.90887   3.02539   3.08814   3.11466   3.58185
 Alpha virt. eigenvalues --    3.62609   3.86959   3.90558   3.99083   4.08231
 Alpha virt. eigenvalues --    4.11540   4.17142   4.20097   4.22860   4.24480
 Alpha virt. eigenvalues --    4.31873   4.47215   4.50130   4.53687   4.65660
 Alpha virt. eigenvalues --    4.86887   4.93664   4.97371   5.12764   5.13519
 Alpha virt. eigenvalues --    5.18965   5.42044   5.82304   6.03007   6.10734
 Alpha virt. eigenvalues --    6.15027   6.27349   6.29361   6.43592   6.48837
 Alpha virt. eigenvalues --    6.55269   6.76084   6.77778   6.78580   6.81649
 Alpha virt. eigenvalues --    6.85361   6.86860   6.88243   6.96025   6.98824
 Alpha virt. eigenvalues --    7.05370   7.12528   7.22041   7.42939   7.62367
 Alpha virt. eigenvalues --    7.78746   8.07606   8.10714  14.01374  14.66239
          Condensed to atoms (all electrons):
              1          2          3          4          5
     1  O    8.185185  -0.179494   0.214359   0.004830  -0.018853
     2  O   -0.179494   8.288134   0.009522   0.169257  -0.018712
     3  H    0.214359   0.009522   0.557589   0.002082  -0.000571
     4  H    0.004830   0.169257   0.002082   0.576351  -0.004409
     5  Kr  -0.018853  -0.018712  -0.000571  -0.004409  36.036722
 Mulliken atomic charges:
              1
     1  O   -0.206026
     2  O   -0.268706
     3  H    0.217019
     4  H    0.251889
     5  Kr   0.005823
 Sum of Mulliken atomic charges =   0.00000
 Mulliken charges with hydrogens summed into heavy atoms:
              1
     1  O    0.010993
     2  O   -0.016816
     5  Kr   0.005823
 Sum of Mulliken charges with hydrogens summed into heavy atoms =   0.00000
          Condensed to fragments (all electrons):
     1      -0.005823
     2       0.005823
 Electronic spatial extent (au):  <R**2>=            485.4355
 Charge=              0.0000 electrons
 Dipole moment (field-independent basis, Debye):
    X=              1.4448    Y=             -0.4077    Z=              1.4562  Tot=              2.0914
 Quadrupole moment (field-independent basis, Debye-Ang):
   XX=            -33.4123   YY=            -27.8749   ZZ=            -29.0376
   XY=              2.6116   XZ=             -3.4579   YZ=             -1.7753
 Traceless Quadrupole moment (field-independent basis, Debye-Ang):
   XX=             -3.3041   YY=              2.2334   ZZ=              1.0707
   XY=              2.6116   XZ=             -3.4579   YZ=             -1.7753
 Octapole moment (field-independent basis, Debye-Ang**2):
  XXX=             29.7726  YYY=             -1.0980  ZZZ=              1.1401  XYY=              4.6482
  XXY=             -8.6950  XXZ=              7.5763  XZZ=              5.2179  YZZ=             -1.8362
  YYZ=              2.1942  XYZ=              4.1071
 Hexadecapole moment (field-independent basis, Debye-Ang**3):
 XXXX=           -439.7598 YYYY=            -62.8686 ZZZZ=            -29.7274 XXXY=             20.3119
 XXXZ=            -18.0792 YYYX=              4.6614 YYYZ=             -2.5558 ZZZX=             -3.0989
 ZZZY=             -1.8664 XXYY=            -78.8274 XXZZ=            -71.2589 YYZZ=            -15.9229
 XXYZ=             -9.5479 YYXZ=             -4.8924 ZZXY=              3.7302
 N-N= 1.491274546049D+02 E-N=-7.236534650667D+03  KE= 2.900984481586D+03
 No NMR shielding tensors so no spin-rotation constants.
 Leave Link  601 at Sun May 10 12:22:07 2020, MaxMem= 1073741824 cpu:       0.7
 (Enter /home/matheus/.gaussian/g09/l122.exe)
 Counterpoise: doing DCBS calculation for fragment   1 NewBq=T
 Leave Link  122 at Sun May 10 12:22:07 2020, MaxMem= 1073741824 cpu:       0.0
 (Enter /home/matheus/.gaussian/g09/l301.exe)
 Basis read from rwf:  (5D, 7F)
 No pseudopotential information found on rwf file.
 There are   197 symmetry adapted basis functions of A   symmetry.
 Integral buffers will be    131072 words long.
 Raffenetti 2 integral format.
 Two-electron integral symmetry is turned on.
   197 basis functions,   415 primitive gaussians,   229 cartesian basis functions
     9 alpha electrons        9 beta electrons
       nuclear repulsion energy        36.6212539076 Hartrees.
 IExCor= 4639 DFT=T Ex+Corr=wB97XD ExCW=0 ScaHFX=  1.000000
 ScaDFX=  1.000000  1.000000  1.000000  1.000000 ScalE2=  1.000000  1.000000
 IRadAn=      5 IRanWt=     -1 IRanGd=            0 ICorTp=0
  HFx wShort=  0.000000 wLong=  0.200000 cFull=  0.222036 cShort=  0.000000 cLong=  0.777964
  DFx wShort=  0.000000 wLong=  0.200000 cFull=  0.000000 cShort=  0.000000 cLong=  1.000000
 NAtoms=    5 NActive=    5 NUniq=    5 SFac= 1.00D+00 NAtFMM=   60 NAOKFM=F Big=F
 R6Disp: Dispersion energy =        -0.0002449821 Hartrees.
 Nuclear repulsion after empirical dispersion term =       36.6210089255 Hartrees.
 No density basis found on file   718.
 Leave Link  301 at Sun May 10 12:22:08 2020, MaxMem= 1073741824 cpu:       0.2
 (Enter /home/matheus/.gaussian/g09/l302.exe)
 NPDir=0 NMtPBC=     1 NCelOv=     1 NCel=       1 NClECP=     1 NCelD=      1
         NCelK=      1 NCelE2=     1 NClLst=     1 CellRange=     0.0.
 One-electron integrals computed using PRISM.
 NBasis=   197 RedAO= T  NBF=   197
 NBsUse=   197 1.00D-06 NBFU=   197
 Precomputing XC quadrature grid using
 IXCGrd= 2 IRadAn=           5 IRanWt=          -1 IRanGd=           0 AccXCQ= 0.00D+00.
 NRdTot=     427 NPtTot=      123512 NUsed=      126579 NTot=      126611
 NSgBfM=   229   229   229   229   229 NAtAll=     5     5.
 Leave Link  302 at Sun May 10 12:22:08 2020, MaxMem= 1073741824 cpu:       0.9
 (Enter /home/matheus/.gaussian/g09/l303.exe)
 DipDrv:  MaxL=1.
 Leave Link  303 at Sun May 10 12:22:08 2020, MaxMem= 1073741824 cpu:       0.2
 (Enter /home/matheus/.gaussian/g09/l401.exe)
 Harris functional with IExCor= 4639 diagonalized for initial guess.
 ExpMin= 2.53D-02 ExpMax= 1.17D+07 ExpMxC= 1.33D+04 IAcc=3 IRadAn=         5 AccDes= 0.00D+00
 HarFok:  IExCor= 4639 AccDes= 0.00D+00 IRadAn=         5 IDoV= 1
 ScaDFX=  1.000000  1.000000  1.000000  1.000000
 FoFCou: FMM=F IPFlag=           0 FMFlag=      100000 FMFlg1=           0
         NFxFlg=           0 DoJE=T BraDBF=F KetDBF=T FulRan=T
         Omega=  0.000000  0.000000  1.000000  0.000000  0.000000 ICntrl=     500 IOpCl=  0
         NMat0=    1 NMatS0=    1 NMatT0=    0 NMatD0=    1 NMtDS0=    0 NMtDT0=    0
         I1Cent=           4 NGrid=           0.
 Petite list used in FoFCou.
 Harris En= -146.295814971118    
 Initial guess orbital symmetries:
       Occupied  (A) (A) (A) (A) (A) (A) (A) (A) (A)
       Virtual   (A) (A) (A) (A) (A) (A) (A) (A) (A) (A) (A) (A)
                 (A) (A) (A) (A) (A) (A) (A) (A) (A) (A) (A) (A)
                 (A) (A) (A) (A) (A) (A) (A) (A) (A) (A) (A) (A)
                 (A) (A) (A) (A) (A) (A) (A) (A) (A) (A) (A) (A)
                 (A) (A) (A) (A) (A) (A) (A) (A) (A) (A) (A) (A)
                 (A) (A) (A) (A) (A) (A) (A) (A) (A) (A) (A) (A)
                 (A) (A) (A) (A) (A) (A) (A) (A) (A) (A) (A) (A)
                 (A) (A) (A) (A) (A) (A) (A) (A) (A) (A) (A) (A)
                 (A) (A) (A) (A) (A) (A) (A) (A) (A) (A) (A) (A)
                 (A) (A) (A) (A) (A) (A) (A) (A) (A) (A) (A) (A)
                 (A) (A) (A) (A) (A) (A) (A) (A) (A) (A) (A) (A)
                 (A) (A) (A) (A) (A) (A) (A) (A) (A) (A) (A) (A)
                 (A) (A) (A) (A) (A) (A) (A) (A) (A) (A) (A) (A)
                 (A) (A) (A) (A) (A) (A) (A) (A) (A) (A) (A) (A)
                 (A) (A) (A) (A) (A) (A) (A) (A) (A) (A) (A) (A)
                 (A) (A) (A) (A) (A) (A) (A) (A)
 The electronic state of the initial guess is 1-A.
 Leave Link  401 at Sun May 10 12:22:08 2020, MaxMem= 1073741824 cpu:       4.0
 (Enter /home/matheus/.gaussian/g09/l502.exe)
 Closed shell SCF:
 Requested convergence on RMS density matrix=1.00D-08 within 128 cycles.
 Requested convergence on MAX density matrix=1.00D-06.
 Requested convergence on             energy=1.00D-06.
 No special actions if energy rises.
 Using DIIS extrapolation, IDIIS=  1040.
 Integral symmetry usage will be decided dynamically.
       126521 words used for storage of precomputed grid.
 IEnd=      305468 IEndB=      305468 NGot=  1073741824 MDV=  1073505667
 LenX=  1073505667 LenY=  1073452785
 Fock matrices will be formed incrementally for  20 cycles.

 Cycle   1  Pass 1  IDiag  1:
 FoFJK:  IHMeth= 1 ICntrl=     0 DoSepK=T KAlg= 1 I1Cent= 0 FoldK=F
 FoFCou: FMM=F IPFlag=           0 FMFlag=      100000 FMFlg1=           0
         NFxFlg=           0 DoJE=T BraDBF=F KetDBF=F FulRan=T
         Omega=  0.000000  0.000000  1.000000  0.000000  0.000000 ICntrl=     500 IOpCl=  0
         NMat0=    1 NMatS0=    1 NMatT0=    0 NMatD0=    1 NMtDS0=    0 NMtDT0=    0
         I1Cent=           0 NGrid=           0.
 Symmetry not used in FoFCou.
 E= -151.478285445779    
 DIIS: error= 3.77D-02 at cycle   1 NSaved=   1.
 NSaved= 1 IEnMin= 1 EnMin= -151.478285445779     IErMin= 1 ErrMin= 3.77D-02
 ErrMax= 3.77D-02 EMaxC= 1.00D-01 BMatC= 3.02D-01 BMatP= 3.02D-01
 IDIUse=3 WtCom= 6.23D-01 WtEn= 3.77D-01
 Coeff-Com:  0.100D+01
 Coeff-En:   0.100D+01
 Coeff:      0.100D+01
 Gap=     0.529 Goal=   None    Shift=    0.000
 GapD=    0.529 DampG=2.000 DampE=0.500 DampFc=1.0000 IDamp=-1.
 RMSDP=2.45D-03 MaxDP=1.14D-01              OVMax= 1.08D-01

 Cycle   2  Pass 1  IDiag  1:
 RMSU=  1.69D-03    CP:  9.48D-01
 FoFJK:  IHMeth= 1 ICntrl=     0 DoSepK=T KAlg= 1 I1Cent= 0 FoldK=F
 E= -151.508572713912     Delta-E=       -0.030287268133 Rises=F Damp=F
 DIIS: error= 1.50D-02 at cycle   2 NSaved=   2.
 NSaved= 2 IEnMin= 2 EnMin= -151.508572713912     IErMin= 2 ErrMin= 1.50D-02
 ErrMax= 1.50D-02 EMaxC= 1.00D-01 BMatC= 9.12D-02 BMatP= 3.02D-01
 IDIUse=3 WtCom= 8.50D-01 WtEn= 1.50D-01
 Coeff-Com:  0.332D+00 0.668D+00
 Coeff-En:   0.364D+00 0.636D+00
 Coeff:      0.337D+00 0.663D+00
 Gap=     0.475 Goal=   None    Shift=    0.000
 RMSDP=1.03D-03 MaxDP=5.06D-02 DE=-3.03D-02 OVMax= 6.00D-02

 Cycle   3  Pass 1  IDiag  1:
 RMSU=  3.64D-04    CP:  9.70D-01  6.41D-01
 FoFJK:  IHMeth= 1 ICntrl=     0 DoSepK=T KAlg= 1 I1Cent= 0 FoldK=F
 E= -151.557482025409     Delta-E=       -0.048909311497 Rises=F Damp=F
 DIIS: error= 5.12D-03 at cycle   3 NSaved=   3.
 NSaved= 3 IEnMin= 3 EnMin= -151.557482025409     IErMin= 3 ErrMin= 5.12D-03
 ErrMax= 5.12D-03 EMaxC= 1.00D-01 BMatC= 6.84D-03 BMatP= 9.12D-02
 IDIUse=3 WtCom= 9.49D-01 WtEn= 5.12D-02
 Coeff-Com:  0.144D-01 0.224D+00 0.762D+00
 Coeff-En:   0.000D+00 0.000D+00 0.100D+01
 Coeff:      0.137D-01 0.212D+00 0.774D+00
 Gap=     0.423 Goal=   None    Shift=    0.000
 RMSDP=2.88D-04 MaxDP=1.23D-02 DE=-4.89D-02 OVMax= 1.70D-02

 Cycle   4  Pass 1  IDiag  1:
 RMSU=  6.51D-05    CP:  9.64D-01  7.43D-01  8.05D-01
 FoFJK:  IHMeth= 1 ICntrl=     0 DoSepK=T KAlg= 1 I1Cent= 0 FoldK=F
 E= -151.561877771602     Delta-E=       -0.004395746193 Rises=F Damp=F
 DIIS: error= 5.56D-04 at cycle   4 NSaved=   4.
 NSaved= 4 IEnMin= 4 EnMin= -151.561877771602     IErMin= 4 ErrMin= 5.56D-04
 ErrMax= 5.56D-04 EMaxC= 1.00D-01 BMatC= 7.31D-05 BMatP= 6.84D-03
 IDIUse=3 WtCom= 9.94D-01 WtEn= 5.56D-03
 Coeff-Com:  0.421D-04 0.211D-01 0.153D+00 0.826D+00
 Coeff-En:   0.000D+00 0.000D+00 0.000D+00 0.100D+01
 Coeff:      0.419D-04 0.209D-01 0.152D+00 0.827D+00
 Gap=     0.419 Goal=   None    Shift=    0.000
 RMSDP=3.73D-05 MaxDP=2.15D-03 DE=-4.40D-03 OVMax= 1.73D-03

 Cycle   5  Pass 1  IDiag  1:
 RMSU=  1.26D-05    CP:  9.65D-01  7.36D-01  8.50D-01  1.10D+00
 FoFJK:  IHMeth= 1 ICntrl=     0 DoSepK=T KAlg= 1 I1Cent= 0 FoldK=F
 E= -151.561929132908     Delta-E=       -0.000051361307 Rises=F Damp=F
 DIIS: error= 3.96D-05 at cycle   5 NSaved=   5.
 NSaved= 5 IEnMin= 5 EnMin= -151.561929132908     IErMin= 5 ErrMin= 3.96D-05
 ErrMax= 3.96D-05 EMaxC= 1.00D-01 BMatC= 6.55D-07 BMatP= 7.31D-05
 IDIUse=1 WtCom= 1.00D+00 WtEn= 0.00D+00
 Coeff-Com: -0.608D-03-0.107D-01-0.366D-01-0.527D-01 0.110D+01
 Coeff:     -0.608D-03-0.107D-01-0.366D-01-0.527D-01 0.110D+01
 Gap=     0.419 Goal=   None    Shift=    0.000
 RMSDP=1.02D-05 MaxDP=3.86D-04 DE=-5.14D-05 OVMax= 6.99D-04

 Cycle   6  Pass 1  IDiag  1:
 RMSU=  2.49D-06    CP:  9.65D-01  7.35D-01  8.60D-01  1.17D+00  1.26D+00
 FoFJK:  IHMeth= 1 ICntrl=     0 DoSepK=T KAlg= 1 I1Cent= 0 FoldK=F
 E= -151.561930666699     Delta-E=       -0.000001533791 Rises=F Damp=F
 DIIS: error= 9.19D-06 at cycle   6 NSaved=   6.
 NSaved= 6 IEnMin= 6 EnMin= -151.561930666699     IErMin= 6 ErrMin= 9.19D-06
 ErrMax= 9.19D-06 EMaxC= 1.00D-01 BMatC= 2.58D-08 BMatP= 6.55D-07
 IDIUse=1 WtCom= 1.00D+00 WtEn= 0.00D+00
 Coeff-Com:  0.191D-04-0.487D-03-0.482D-02-0.246D-01 0.121D-01 0.102D+01
 Coeff:      0.191D-04-0.487D-03-0.482D-02-0.246D-01 0.121D-01 0.102D+01
 Gap=     0.419 Goal=   None    Shift=    0.000
 RMSDP=1.67D-06 MaxDP=6.13D-05 DE=-1.53D-06 OVMax= 1.81D-04

 Cycle   7  Pass 1  IDiag  1:
 RMSU=  5.27D-07    CP:  9.65D-01  7.35D-01  8.60D-01  1.17D+00  1.31D+00
                    CP:  1.32D+00
 FoFJK:  IHMeth= 1 ICntrl=     0 DoSepK=T KAlg= 1 I1Cent= 0 FoldK=F
 E= -151.561930741853     Delta-E=       -0.000000075154 Rises=F Damp=F
 DIIS: error= 3.57D-06 at cycle   7 NSaved=   7.
 NSaved= 7 IEnMin= 7 EnMin= -151.561930741853     IErMin= 7 ErrMin= 3.57D-06
 ErrMax= 3.57D-06 EMaxC= 1.00D-01 BMatC= 2.30D-09 BMatP= 2.58D-08
 IDIUse=1 WtCom= 1.00D+00 WtEn= 0.00D+00
 Coeff-Com:  0.139D-04 0.391D-03 0.190D-02 0.348D-02-0.394D-01-0.191D+00
 Coeff-Com:  0.122D+01
 Coeff:      0.139D-04 0.391D-03 0.190D-02 0.348D-02-0.394D-01-0.191D+00
 Coeff:      0.122D+01
 Gap=     0.419 Goal=   None    Shift=    0.000
 RMSDP=5.99D-07 MaxDP=2.01D-05 DE=-7.52D-08 OVMax= 8.14D-05

 Cycle   8  Pass 1  IDiag  1:
 RMSU=  1.90D-07    CP:  9.65D-01  7.35D-01  8.60D-01  1.17D+00  1.32D+00
                    CP:  1.42D+00  1.44D+00
 FoFJK:  IHMeth= 1 ICntrl=     0 DoSepK=T KAlg= 1 I1Cent= 0 FoldK=F
 E= -151.561930749932     Delta-E=       -0.000000008079 Rises=F Damp=F
 DIIS: error= 1.88D-06 at cycle   8 NSaved=   8.
 NSaved= 8 IEnMin= 8 EnMin= -151.561930749932     IErMin= 8 ErrMin= 1.88D-06
 ErrMax= 1.88D-06 EMaxC= 1.00D-01 BMatC= 1.14D-09 BMatP= 2.30D-09
 IDIUse=1 WtCom= 1.00D+00 WtEn= 0.00D+00
 Coeff-Com:  0.531D-05 0.217D-03 0.123D-02 0.305D-02-0.172D-01-0.176D+00
 Coeff-Com:  0.624D+00 0.565D+00
 Coeff:      0.531D-05 0.217D-03 0.123D-02 0.305D-02-0.172D-01-0.176D+00
 Coeff:      0.624D+00 0.565D+00
 Gap=     0.419 Goal=   None    Shift=    0.000
 RMSDP=1.41D-07 MaxDP=6.34D-06 DE=-8.08D-09 OVMax= 1.62D-05

 Cycle   9  Pass 1  IDiag  1:
 RMSU=  7.85D-08    CP:  9.65D-01  7.35D-01  8.60D-01  1.17D+00  1.32D+00
                    CP:  1.42D+00  1.54D+00  1.06D+00
 FoFJK:  IHMeth= 1 ICntrl=     0 DoSepK=T KAlg= 1 I1Cent= 0 FoldK=F
 E= -151.561930750966     Delta-E=       -0.000000001034 Rises=F Damp=F
 DIIS: error= 6.03D-07 at cycle   9 NSaved=   9.
 NSaved= 9 IEnMin= 9 EnMin= -151.561930750966     IErMin= 9 ErrMin= 6.03D-07
 ErrMax= 6.03D-07 EMaxC= 1.00D-01 BMatC= 1.36D-10 BMatP= 1.14D-09
 IDIUse=1 WtCom= 1.00D+00 WtEn= 0.00D+00
 Coeff-Com: -0.891D-06-0.148D-04-0.381D-04-0.606D-04 0.580D-02-0.267D-01
 Coeff-Com: -0.619D-01 0.223D+00 0.860D+00
 Coeff:     -0.891D-06-0.148D-04-0.381D-04-0.606D-04 0.580D-02-0.267D-01
 Coeff:     -0.619D-01 0.223D+00 0.860D+00
 Gap=     0.419 Goal=   None    Shift=    0.000
 RMSDP=9.15D-08 MaxDP=1.95D-06 DE=-1.03D-09 OVMax= 1.23D-05

 Cycle  10  Pass 1  IDiag  1:
 RMSU=  1.91D-08    CP:  9.65D-01  7.35D-01  8.60D-01  1.17D+00  1.32D+00
                    CP:  1.42D+00  1.60D+00  1.33D+00  1.14D+00
 FoFJK:  IHMeth= 1 ICntrl=     0 DoSepK=T KAlg= 1 I1Cent= 0 FoldK=F
 E= -151.561930751200     Delta-E=       -0.000000000233 Rises=F Damp=F
 DIIS: error= 1.38D-07 at cycle  10 NSaved=  10.
 NSaved=10 IEnMin=10 EnMin= -151.561930751200     IErMin=10 ErrMin= 1.38D-07
 ErrMax= 1.38D-07 EMaxC= 1.00D-01 BMatC= 8.06D-12 BMatP= 1.36D-10
 IDIUse=1 WtCom= 1.00D+00 WtEn= 0.00D+00
 Coeff-Com: -0.190D-06-0.195D-04-0.144D-03-0.470D-03 0.242D-02 0.166D-01
 Coeff-Com: -0.680D-01-0.733D-01-0.435D-01 0.117D+01
 Coeff:     -0.190D-06-0.195D-04-0.144D-03-0.470D-03 0.242D-02 0.166D-01
 Coeff:     -0.680D-01-0.733D-01-0.435D-01 0.117D+01
 Gap=     0.419 Goal=   None    Shift=    0.000
 RMSDP=4.06D-08 MaxDP=8.40D-07 DE=-2.33D-10 OVMax= 5.80D-06

 Cycle  11  Pass 1  IDiag  1:
 RMSU=  6.90D-09    CP:  9.65D-01  7.35D-01  8.60D-01  1.17D+00  1.32D+00
                    CP:  1.42D+00  1.62D+00  1.43D+00  1.29D+00  1.48D+00
 FoFJK:  IHMeth= 1 ICntrl=     0 DoSepK=T KAlg= 1 I1Cent= 0 FoldK=F
 E= -151.561930751226     Delta-E=       -0.000000000027 Rises=F Damp=F
 DIIS: error= 3.09D-08 at cycle  11 NSaved=  11.
 NSaved=11 IEnMin=11 EnMin= -151.561930751226     IErMin=11 ErrMin= 3.09D-08
 ErrMax= 3.09D-08 EMaxC= 1.00D-01 BMatC= 2.76D-13 BMatP= 8.06D-12
 IDIUse=1 WtCom= 1.00D+00 WtEn= 0.00D+00
 Coeff-Com: -0.748D-07-0.136D-05-0.433D-05-0.226D-04-0.115D-03 0.118D-02
 Coeff-Com:  0.604D-02-0.118D-01-0.531D-01-0.958D-02 0.107D+01
 Coeff:     -0.748D-07-0.136D-05-0.433D-05-0.226D-04-0.115D-03 0.118D-02
 Coeff:      0.604D-02-0.118D-01-0.531D-01-0.958D-02 0.107D+01
 Gap=     0.419 Goal=   None    Shift=    0.000
 RMSDP=8.44D-09 MaxDP=2.53D-07 DE=-2.68D-11 OVMax= 9.45D-07

 SCF Done:  E(RwB97XD) =  -151.561930751     A.U. after   11 cycles
             Convg  =    0.8441D-08             -V/T =  2.0059
 KE= 1.506747398502D+02 PE=-4.317354223048D+02 EE= 9.287774277794D+01
 Leave Link  502 at Sun May 10 12:22:45 2020, MaxMem= 1073741824 cpu:     295.4
 (Enter /home/matheus/.gaussian/g09/l601.exe)
 Copying SCF densities to generalized density rwf, IOpCl= 0 IROHF=0.

 **********************************************************************

            Population analysis using the SCF density.

 **********************************************************************

 Orbital symmetries:
       Occupied  (A) (A) (A) (A) (A) (A) (A) (A) (A)
       Virtual   (A) (A) (A) (A) (A) (A) (A) (A) (A) (A) (A) (A)
                 (A) (A) (A) (A) (A) (A) (A) (A) (A) (A) (A) (A)
                 (A) (A) (A) (A) (A) (A) (A) (A) (A) (A) (A) (A)
                 (A) (A) (A) (A) (A) (A) (A) (A) (A) (A) (A) (A)
                 (A) (A) (A) (A) (A) (A) (A) (A) (A) (A) (A) (A)
                 (A) (A) (A) (A) (A) (A) (A) (A) (A) (A) (A) (A)
                 (A) (A) (A) (A) (A) (A) (A) (A) (A) (A) (A) (A)
                 (A) (A) (A) (A) (A) (A) (A) (A) (A) (A) (A) (A)
                 (A) (A) (A) (A) (A) (A) (A) (A) (A) (A) (A) (A)
                 (A) (A) (A) (A) (A) (A) (A) (A) (A) (A) (A) (A)
                 (A) (A) (A) (A) (A) (A) (A) (A) (A) (A) (A) (A)
                 (A) (A) (A) (A) (A) (A) (A) (A) (A) (A) (A) (A)
                 (A) (A) (A) (A) (A) (A) (A) (A) (A) (A) (A) (A)
                 (A) (A) (A) (A) (A) (A) (A) (A) (A) (A) (A) (A)
                 (A) (A) (A) (A) (A) (A) (A) (A) (A) (A) (A) (A)
                 (A) (A) (A) (A) (A) (A) (A) (A)
 The electronic state is 1-A.
 Alpha  occ. eigenvalues --  -19.32009 -19.32002  -1.22360  -1.01182  -0.65041
 Alpha  occ. eigenvalues --   -0.57236  -0.51556  -0.40198  -0.39001
 Alpha virt. eigenvalues --    0.02894   0.03751   0.07104   0.08673   0.09310
 Alpha virt. eigenvalues --    0.10764   0.10874   0.13936   0.16915   0.17512
 Alpha virt. eigenvalues --    0.18308   0.19136   0.20945   0.23112   0.25035
 Alpha virt. eigenvalues --    0.26926   0.31195   0.31428   0.32656   0.33695
 Alpha virt. eigenvalues --    0.34259   0.37459   0.38209   0.39116   0.40484
 Alpha virt. eigenvalues --    0.43320   0.44656   0.46768   0.48260   0.49761
 Alpha virt. eigenvalues --    0.53047   0.57721   0.59825   0.60874   0.65115
 Alpha virt. eigenvalues --    0.69751   0.72125   0.73908   0.76501   0.77507
 Alpha virt. eigenvalues --    0.79343   0.80128   0.86875   0.88790   0.89395
 Alpha virt. eigenvalues --    0.90260   0.91410   0.93225   0.95756   0.95949
 Alpha virt. eigenvalues --    0.98852   1.00299   1.04233   1.08394   1.11267
 Alpha virt. eigenvalues --    1.13654   1.15491   1.19788   1.21064   1.23811
 Alpha virt. eigenvalues --    1.26190   1.27832   1.30138   1.32311   1.32792
 Alpha virt. eigenvalues --    1.34278   1.34997   1.37561   1.38577   1.41102
 Alpha virt. eigenvalues --    1.44082   1.47362   1.47889   1.50541   1.54654
 Alpha virt. eigenvalues --    1.58236   1.64736   1.66587   1.67972   1.77004
 Alpha virt. eigenvalues --    1.80643   1.84312   1.90648   1.93483   2.01436
 Alpha virt. eigenvalues --    2.03437   2.05978   2.13767   2.16088   2.21305
 Alpha virt. eigenvalues --    2.23810   2.28018   2.32711   2.34890   2.37155
 Alpha virt. eigenvalues --    2.43589   2.49125   2.51612   2.57557   2.61515
 Alpha virt. eigenvalues --    2.65949   2.67343   2.79768   2.82761   2.89999
 Alpha virt. eigenvalues --    3.01546   3.07271   3.09455   3.26781   3.30843
 Alpha virt. eigenvalues --    3.40276   3.54523   3.56834   3.65912   3.78913
 Alpha virt. eigenvalues --    3.79380   3.82160   3.82409   3.83197   3.83701
 Alpha virt. eigenvalues --    3.86098   3.89084   3.90800   3.93850   3.95822
 Alpha virt. eigenvalues --    3.97876   4.00860   4.05621   4.09631   4.13250
 Alpha virt. eigenvalues --    4.18606   4.19960   4.23774   4.27827   4.31894
 Alpha virt. eigenvalues --    4.39616   4.49058   4.55209   4.65597   4.87184
 Alpha virt. eigenvalues --    4.93856   4.97365   5.12643   5.13854   5.19236
 Alpha virt. eigenvalues --    5.41906   5.82221   6.02710   6.10706   6.14862
 Alpha virt. eigenvalues --    6.27342   6.29342   6.43566   6.48718   6.55159
 Alpha virt. eigenvalues --    6.75979   6.77398   6.78307   6.81395   6.85273
 Alpha virt. eigenvalues --    6.86591   6.88019   6.95815   6.98710   7.05244
 Alpha virt. eigenvalues --    7.12338   7.21849   7.42819   7.62180   7.78532
 Alpha virt. eigenvalues --    8.07320   8.10043  10.88828  14.01017  14.65420
 Alpha virt. eigenvalues --   14.84361  14.88798  15.10578  29.04131  29.04299
 Alpha virt. eigenvalues --   29.09022  29.14236  29.23927  49.10342 148.32476
 Alpha virt. eigenvalues --  148.38964 148.71181 752.48565
          Condensed to atoms (all electrons):
              1          2          3          4          5
     1  O    8.174074  -0.171262   0.204906   0.002016   0.000566
     2  O   -0.171262   8.221811   0.009442   0.187298  -0.001851
     3  H    0.204906   0.009442   0.569960   0.003761  -0.001571
     4  H    0.002016   0.187298   0.003761   0.574425  -0.004154
     5  Kr   0.000566  -0.001851  -0.001571  -0.004154   0.001426
 Mulliken atomic charges:
              1
     1  O   -0.210301
     2  O   -0.245438
     3  H    0.213501
     4  H    0.236653
     5  Kr   0.005584
 Sum of Mulliken atomic charges =   0.00000
 Mulliken charges with hydrogens summed into heavy atoms:
              1
     1  O    0.003201
     2  O   -0.008785
     5  Kr   0.005584
 Sum of Mulliken charges with hydrogens summed into heavy atoms =   0.00000
          Condensed to fragments (all electrons):
     1      -0.005584
     2       0.005584
 Electronic spatial extent (au):  <R**2>=            321.1940
 Charge=              0.0000 electrons
 Dipole moment (field-independent basis, Debye):
    X=              1.2603    Y=             -0.1581    Z=              1.5509  Tot=              2.0047
 Quadrupole moment (field-independent basis, Debye-Ang):
   XX=            -15.8182   YY=            -10.2560   ZZ=            -11.4762
   XY=              2.7511   XZ=             -3.3882   YZ=             -1.7858
 Traceless Quadrupole moment (field-independent basis, Debye-Ang):
   XX=             -3.3014   YY=              2.2608   ZZ=              1.0406
   XY=              2.7511   XZ=             -3.3882   YZ=             -1.7858
 Octapole moment (field-independent basis, Debye-Ang**2):
  XXX=             80.7842  YYY=             -1.3792  ZZZ=              1.3480  XYY=             21.8511
  XXY=             -8.5672  XXZ=              7.7003  XZZ=             22.4595  YZZ=             -1.9311
  YYZ=              2.2630  XYZ=              4.1122
 Hexadecapole moment (field-independent basis, Debye-Ang**3):
 XXXX=           -317.8900 YYYY=            -44.5973 ZZZZ=            -11.5525 XXXY=             19.8506
 XXXZ=            -17.8654 YYYX=              4.3634 YYYZ=             -2.5781 ZZZX=             -2.9359
 ZZZY=             -1.8877 XXYY=            -55.5216 XXZZ=            -48.0681 YYZZ=             -9.8393
 XXYZ=             -9.5673 YYXZ=             -4.8285 ZZXY=              3.5941
 N-N= 3.662100892547D+01 E-N=-4.317354224664D+02  KE= 1.506747398502D+02
 No NMR shielding tensors so no spin-rotation constants.
 Leave Link  601 at Sun May 10 12:22:45 2020, MaxMem= 1073741824 cpu:       0.8
 (Enter /home/matheus/.gaussian/g09/l122.exe)
 Counterpoise: doing DCBS calculation for fragment   2 NewBq=T
 Leave Link  122 at Sun May 10 12:22:45 2020, MaxMem= 1073741824 cpu:       0.0
 (Enter /home/matheus/.gaussian/g09/l301.exe)
 Basis read from rwf:  (5D, 7F)
 No pseudopotential information found on rwf file.
 There are   197 symmetry adapted basis functions of A   symmetry.
 Integral buffers will be    131072 words long.
 Raffenetti 2 integral format.
 Two-electron integral symmetry is turned on.
   197 basis functions,   415 primitive gaussians,   229 cartesian basis functions
    18 alpha electrons       18 beta electrons
       nuclear repulsion energy         0.0000000000 Hartrees.
 IExCor= 4639 DFT=T Ex+Corr=wB97XD ExCW=0 ScaHFX=  1.000000
 ScaDFX=  1.000000  1.000000  1.000000  1.000000 ScalE2=  1.000000  1.000000
 IRadAn=      5 IRanWt=     -1 IRanGd=            0 ICorTp=0
  HFx wShort=  0.000000 wLong=  0.200000 cFull=  0.222036 cShort=  0.000000 cLong=  0.777964
  DFx wShort=  0.000000 wLong=  0.200000 cFull=  0.000000 cShort=  0.000000 cLong=  1.000000
 NAtoms=    5 NActive=    5 NUniq=    5 SFac= 1.00D+00 NAtFMM=   60 NAOKFM=F Big=F
 R6Disp: Dispersion energy =         0.0000000000 Hartrees.
 Nuclear repulsion after empirical dispersion term =        0.0000000000 Hartrees.
 No density basis found on file   718.
 Leave Link  301 at Sun May 10 12:22:45 2020, MaxMem= 1073741824 cpu:       0.2
 (Enter /home/matheus/.gaussian/g09/l302.exe)
 NPDir=0 NMtPBC=     1 NCelOv=     1 NCel=       1 NClECP=     1 NCelD=      1
         NCelK=      1 NCelE2=     1 NClLst=     1 CellRange=     0.0.
 One-electron integrals computed using PRISM.
 NBasis=   197 RedAO= T  NBF=   197
 NBsUse=   197 1.00D-06 NBFU=   197
 Precomputing XC quadrature grid using
 IXCGrd= 2 IRadAn=           5 IRanWt=          -1 IRanGd=           0 AccXCQ= 0.00D+00.
 NRdTot=     427 NPtTot=      123512 NUsed=      126579 NTot=      126611
 NSgBfM=   229   229   229   229   229 NAtAll=     5     5.
 Leave Link  302 at Sun May 10 12:22:46 2020, MaxMem= 1073741824 cpu:       1.0
 (Enter /home/matheus/.gaussian/g09/l303.exe)
 DipDrv:  MaxL=1.
 Leave Link  303 at Sun May 10 12:22:46 2020, MaxMem= 1073741824 cpu:       0.2
 (Enter /home/matheus/.gaussian/g09/l401.exe)
 Harris functional with IExCor= 4639 diagonalized for initial guess.
 ExpMin= 2.53D-02 ExpMax= 1.17D+07 ExpMxC= 1.33D+04 IAcc=3 IRadAn=         5 AccDes= 0.00D+00
 HarFok:  IExCor= 4639 AccDes= 0.00D+00 IRadAn=         5 IDoV= 1
 ScaDFX=  1.000000  1.000000  1.000000  1.000000
 FoFCou: FMM=F IPFlag=           0 FMFlag=      100000 FMFlg1=           0
         NFxFlg=           0 DoJE=T BraDBF=F KetDBF=T FulRan=T
         Omega=  0.000000  0.000000  1.000000  0.000000  0.000000 ICntrl=     500 IOpCl=  0
         NMat0=    1 NMatS0=    1 NMatT0=    0 NMatD0=    1 NMtDS0=    0 NMtDT0=    0
         I1Cent=           4 NGrid=           0.
 Petite list used in FoFCou.
 Harris En= -2730.20431544743    
 Initial guess orbital symmetries:
       Occupied  (A) (A) (A) (A) (A) (A) (A) (A) (A) (A) (A) (A)
                 (A) (A) (A) (A) (A) (A)
       Virtual   (A) (A) (A) (A) (A) (A) (A) (A) (A) (A) (A) (A)
                 (A) (A) (A) (A) (A) (A) (A) (A) (A) (A) (A) (A)
                 (A) (A) (A) (A) (A) (A) (A) (A) (A) (A) (A) (A)
                 (A) (A) (A) (A) (A) (A) (A) (A) (A) (A) (A) (A)
                 (A) (A) (A) (A) (A) (A) (A) (A) (A) (A) (A) (A)
                 (A) (A) (A) (A) (A) (A) (A) (A) (A) (A) (A) (A)
                 (A) (A) (A) (A) (A) (A) (A) (A) (A) (A) (A) (A)
                 (A) (A) (A) (A) (A) (A) (A) (A) (A) (A) (A) (A)
                 (A) (A) (A) (A) (A) (A) (A) (A) (A) (A) (A) (A)
                 (A) (A) (A) (A) (A) (A) (A) (A) (A) (A) (A) (A)
                 (A) (A) (A) (A) (A) (A) (A) (A) (A) (A) (A) (A)
                 (A) (A) (A) (A) (A) (A) (A) (A) (A) (A) (A) (A)
                 (A) (A) (A) (A) (A) (A) (A) (A) (A) (A) (A) (A)
                 (A) (A) (A) (A) (A) (A) (A) (A) (A) (A) (A) (A)
                 (A) (A) (A) (A) (A) (A) (A) (A) (A) (A) (A)
 The electronic state of the initial guess is 1-A.
 Leave Link  401 at Sun May 10 12:22:46 2020, MaxMem= 1073741824 cpu:       4.0
 (Enter /home/matheus/.gaussian/g09/l502.exe)
 Closed shell SCF:
 Requested convergence on RMS density matrix=1.00D-08 within 128 cycles.
 Requested convergence on MAX density matrix=1.00D-06.
 Requested convergence on             energy=1.00D-06.
 No special actions if energy rises.
 Using DIIS extrapolation, IDIIS=  1040.
 Integral symmetry usage will be decided dynamically.
       126521 words used for storage of precomputed grid.
 IEnd=      305468 IEndB=      305468 NGot=  1073741824 MDV=  1073505667
 LenX=  1073505667 LenY=  1073452785
 Fock matrices will be formed incrementally for  20 cycles.

 Cycle   1  Pass 1  IDiag  1:
 FoFJK:  IHMeth= 1 ICntrl=     0 DoSepK=T KAlg= 1 I1Cent= 0 FoldK=F
 FoFCou: FMM=F IPFlag=           0 FMFlag=      100000 FMFlg1=           0
         NFxFlg=           0 DoJE=T BraDBF=F KetDBF=F FulRan=T
         Omega=  0.000000  0.000000  1.000000  0.000000  0.000000 ICntrl=     500 IOpCl=  0
         NMat0=    1 NMatS0=    1 NMatT0=    0 NMatD0=    1 NMtDS0=    0 NMtDT0=    0
         I1Cent=           0 NGrid=           0.
 Symmetry not used in FoFCou.
 E= -2753.46465975504    
 DIIS: error= 6.01D-02 at cycle   1 NSaved=   1.
 NSaved= 1 IEnMin= 1 EnMin= -2753.46465975504     IErMin= 1 ErrMin= 6.01D-02
 ErrMax= 6.01D-02 EMaxC= 1.00D-01 BMatC= 1.87D+00 BMatP= 1.87D+00
 IDIUse=3 WtCom= 3.99D-01 WtEn= 6.01D-01
 Coeff-Com:  0.100D+01
 Coeff-En:   0.100D+01
 Coeff:      0.100D+01
 Gap=     0.634 Goal=   None    Shift=    0.000
 GapD=    0.634 DampG=2.000 DampE=0.500 DampFc=1.0000 IDamp=-1.
 RMSDP=5.59D-03 MaxDP=3.67D-01              OVMax= 1.78D-01

 Cycle   2  Pass 1  IDiag  1:
 RMSU=  3.89D-03    CP:  1.04D+00
 FoFJK:  IHMeth= 1 ICntrl=     0 DoSepK=T KAlg= 1 I1Cent= 0 FoldK=F
 E= -2753.72413771334     Delta-E=       -0.259477958300 Rises=F Damp=F
 DIIS: error= 2.94D-02 at cycle   2 NSaved=   2.
 NSaved= 2 IEnMin= 2 EnMin= -2753.72413771334     IErMin= 2 ErrMin= 2.94D-02
 ErrMax= 2.94D-02 EMaxC= 1.00D-01 BMatC= 4.75D-01 BMatP= 1.87D+00
 IDIUse=3 WtCom= 7.06D-01 WtEn= 2.94D-01
 Coeff-Com:  0.330D+00 0.670D+00
 Coeff-En:   0.183D+00 0.817D+00
 Coeff:      0.287D+00 0.713D+00
 Gap=     0.474 Goal=   None    Shift=    0.000
 RMSDP=2.51D-03 MaxDP=1.58D-01 DE=-2.59D-01 OVMax= 7.85D-02

 Cycle   3  Pass 1  IDiag  1:
 RMSU=  3.67D-04    CP:  1.03D+00  5.60D-01
 FoFJK:  IHMeth= 1 ICntrl=     0 DoSepK=T KAlg= 1 I1Cent= 0 FoldK=F
 E= -2753.87140960922     Delta-E=       -0.147271895875 Rises=F Damp=F
 DIIS: error= 3.89D-03 at cycle   3 NSaved=   3.
 NSaved= 3 IEnMin= 3 EnMin= -2753.87140960922     IErMin= 3 ErrMin= 3.89D-03
 ErrMax= 3.89D-03 EMaxC= 1.00D-01 BMatC= 9.11D-03 BMatP= 4.75D-01
 IDIUse=3 WtCom= 9.61D-01 WtEn= 3.89D-02
 Coeff-Com: -0.499D-02 0.114D+00 0.891D+00
 Coeff-En:   0.000D+00 0.000D+00 0.100D+01
 Coeff:     -0.480D-02 0.109D+00 0.896D+00
 Gap=     0.501 Goal=   None    Shift=    0.000
 RMSDP=2.83D-04 MaxDP=1.60D-02 DE=-1.47D-01 OVMax= 1.20D-02

 Cycle   4  Pass 1  IDiag  1:
 RMSU=  4.41D-05    CP:  1.03D+00  6.09D-01  9.48D-01
 FoFJK:  IHMeth= 1 ICntrl=     0 DoSepK=T KAlg= 1 I1Cent= 0 FoldK=F
 E= -2753.87434448343     Delta-E=       -0.002934874215 Rises=F Damp=F
 DIIS: error= 1.79D-04 at cycle   4 NSaved=   4.
 NSaved= 4 IEnMin= 4 EnMin= -2753.87434448343     IErMin= 4 ErrMin= 1.79D-04
 ErrMax= 1.79D-04 EMaxC= 1.00D-01 BMatC= 1.52D-05 BMatP= 9.11D-03
 IDIUse=3 WtCom= 9.98D-01 WtEn= 1.79D-03
 Coeff-Com: -0.864D-03-0.145D-01-0.523D-01 0.107D+01
 Coeff-En:   0.000D+00 0.000D+00 0.000D+00 0.100D+01
 Coeff:     -0.862D-03-0.145D-01-0.522D-01 0.107D+01
 Gap=     0.499 Goal=   None    Shift=    0.000
 RMSDP=2.25D-05 MaxDP=8.88D-04 DE=-2.93D-03 OVMax= 7.85D-04

 Cycle   5  Pass 1  IDiag  1:
 RMSU=  1.09D-05    CP:  1.03D+00  6.07D-01  9.68D-01  1.13D+00
 FoFJK:  IHMeth= 1 ICntrl=     0 DoSepK=T KAlg= 1 I1Cent= 0 FoldK=F
 E= -2753.87435258037     Delta-E=       -0.000008096937 Rises=F Damp=F
 DIIS: error= 1.31D-05 at cycle   5 NSaved=   5.
 NSaved= 5 IEnMin= 5 EnMin= -2753.87435258037     IErMin= 5 ErrMin= 1.31D-05
 ErrMax= 1.31D-05 EMaxC= 1.00D-01 BMatC= 3.81D-08 BMatP= 1.52D-05
 IDIUse=1 WtCom= 1.00D+00 WtEn= 0.00D+00
 Coeff-Com:  0.114D-03-0.101D-02-0.102D-01-0.152D-01 0.103D+01
 Coeff:      0.114D-03-0.101D-02-0.102D-01-0.152D-01 0.103D+01
 Gap=     0.499 Goal=   None    Shift=    0.000
 RMSDP=2.41D-06 MaxDP=1.09D-04 DE=-8.10D-06 OVMax= 1.81D-04

 Cycle   6  Pass 1  IDiag  1:
 RMSU=  9.07D-07    CP:  1.03D+00  6.07D-01  9.69D-01  1.15D+00  1.07D+00
 FoFJK:  IHMeth= 1 ICntrl=     0 DoSepK=T KAlg= 1 I1Cent= 0 FoldK=F
 E= -2753.87435269655     Delta-E=       -0.000000116186 Rises=F Damp=F
 DIIS: error= 4.31D-06 at cycle   6 NSaved=   6.
 NSaved= 6 IEnMin= 6 EnMin= -2753.87435269655     IErMin= 6 ErrMin= 4.31D-06
 ErrMax= 4.31D-06 EMaxC= 1.00D-01 BMatC= 3.79D-09 BMatP= 3.81D-08
 IDIUse=1 WtCom= 1.00D+00 WtEn= 0.00D+00
 Coeff-Com:  0.626D-05 0.199D-03 0.449D-03-0.351D-01 0.361D-01 0.998D+00
 Coeff:      0.626D-05 0.199D-03 0.449D-03-0.351D-01 0.361D-01 0.998D+00
 Gap=     0.499 Goal=   None    Shift=    0.000
 RMSDP=6.01D-07 MaxDP=2.62D-05 DE=-1.16D-07 OVMax= 2.79D-05

 Cycle   7  Pass 1  IDiag  1:
 RMSU=  9.25D-08    CP:  1.03D+00  6.07D-01  9.69D-01  1.15D+00  1.10D+00
                    CP:  1.21D+00
 FoFJK:  IHMeth= 1 ICntrl=     0 DoSepK=T KAlg= 1 I1Cent= 0 FoldK=F
 E= -2753.87435270072     Delta-E=       -0.000000004165 Rises=F Damp=F
 DIIS: error= 2.31D-07 at cycle   7 NSaved=   7.
 NSaved= 7 IEnMin= 7 EnMin= -2753.87435270072     IErMin= 7 ErrMin= 2.31D-07
 ErrMax= 2.31D-07 EMaxC= 1.00D-01 BMatC= 3.18D-11 BMatP= 3.79D-09
 IDIUse=1 WtCom= 1.00D+00 WtEn= 0.00D+00
 Coeff-Com:  0.519D-06 0.637D-04 0.235D-03-0.838D-02 0.205D-03 0.229D+00
 Coeff-Com:  0.779D+00
 Coeff:      0.519D-06 0.637D-04 0.235D-03-0.838D-02 0.205D-03 0.229D+00
 Coeff:      0.779D+00
 Gap=     0.499 Goal=   None    Shift=    0.000
 RMSDP=4.25D-08 MaxDP=1.32D-06 DE=-4.16D-09 OVMax= 2.42D-06

 Cycle   8  Pass 1  IDiag  1:
 RMSU=  1.70D-08    CP:  1.03D+00  6.07D-01  9.69D-01  1.15D+00  1.10D+00
                    CP:  1.23D+00  1.05D+00
 FoFJK:  IHMeth= 1 ICntrl=     0 DoSepK=T KAlg= 1 I1Cent= 0 FoldK=F
 E= -2753.87435270074     Delta-E=       -0.000000000024 Rises=F Damp=F
 DIIS: error= 5.22D-08 at cycle   8 NSaved=   8.
 NSaved= 8 IEnMin= 8 EnMin= -2753.87435270074     IErMin= 8 ErrMin= 5.22D-08
 ErrMax= 5.22D-08 EMaxC= 1.00D-01 BMatC= 1.41D-12 BMatP= 3.18D-11
 IDIUse=1 WtCom= 1.00D+00 WtEn= 0.00D+00
 Coeff-Com: -0.142D-06-0.368D-05 0.788D-05 0.157D-02-0.197D-02-0.461D-01
 Coeff-Com:  0.476D-01 0.999D+00
 Coeff:     -0.142D-06-0.368D-05 0.788D-05 0.157D-02-0.197D-02-0.461D-01
 Coeff:      0.476D-01 0.999D+00
 Gap=     0.499 Goal=   None    Shift=    0.000
 RMSDP=1.99D-08 MaxDP=8.17D-07 DE=-2.36D-11 OVMax= 5.17D-07

 Cycle   9  Pass 1  IDiag  1:
 RMSU=  3.30D-09    CP:  1.03D+00  6.07D-01  9.69D-01  1.15D+00  1.10D+00
                    CP:  1.24D+00  1.12D+00  1.13D+00
 FoFJK:  IHMeth= 1 ICntrl=     0 DoSepK=T KAlg= 1 I1Cent= 0 FoldK=F
 E= -2753.87435270074     Delta-E=       -0.000000000001 Rises=F Damp=F
 DIIS: error= 6.40D-09 at cycle   9 NSaved=   9.
 NSaved= 9 IEnMin= 9 EnMin= -2753.87435270074     IErMin= 9 ErrMin= 6.40D-09
 ErrMax= 6.40D-09 EMaxC= 1.00D-01 BMatC= 5.84D-15 BMatP= 1.41D-12
 IDIUse=1 WtCom= 1.00D+00 WtEn= 0.00D+00
 Coeff-Com:  0.103D-07 0.129D-06-0.107D-05-0.130D-03 0.935D-05 0.473D-02
 Coeff-Com: -0.113D-01-0.137D+00 0.114D+01
 Coeff:      0.103D-07 0.129D-06-0.107D-05-0.130D-03 0.935D-05 0.473D-02
 Coeff:     -0.113D-01-0.137D+00 0.114D+01
 Gap=     0.499 Goal=   None    Shift=    0.000
 RMSDP=1.65D-09 MaxDP=6.64D-08 DE=-9.09D-13 OVMax= 8.94D-08

 SCF Done:  E(RwB97XD) =  -2753.87435270     A.U. after    9 cycles
             Convg  =    0.1645D-08             -V/T =  2.0013
 KE= 2.750261035530D+03 PE=-6.580199417601D+03 EE= 1.076064029370D+03
 Leave Link  502 at Sun May 10 12:23:15 2020, MaxMem= 1073741824 cpu:     228.0
 (Enter /home/matheus/.gaussian/g09/l601.exe)
 Copying SCF densities to generalized density rwf, IOpCl= 0 IROHF=0.

 **********************************************************************

            Population analysis using the SCF density.

 **********************************************************************

 Orbital symmetries:
       Occupied  (A) (A) (A) (A) (A) (A) (A) (A) (A) (A) (A) (A)
                 (A) (A) (A) (A) (A) (A)
       Virtual   (A) (A) (A) (A) (A) (A) (A) (A) (A) (A) (A) (A)
                 (A) (A) (A) (A) (A) (A) (A) (A) (A) (A) (A) (A)
                 (A) (A) (A) (A) (A) (A) (A) (A) (A) (A) (A) (A)
                 (A) (A) (A) (A) (A) (A) (A) (A) (A) (A) (A) (A)
                 (A) (A) (A) (A) (A) (A) (A) (A) (A) (A) (A) (A)
                 (A) (A) (A) (A) (A) (A) (A) (A) (A) (A) (A) (A)
                 (A) (A) (A) (A) (A) (A) (A) (A) (A) (A) (A) (A)
                 (A) (A) (A) (A) (A) (A) (A) (A) (A) (A) (A) (A)
                 (A) (A) (A) (A) (A) (A) (A) (A) (A) (A) (A) (A)
                 (A) (A) (A) (A) (A) (A) (A) (A) (A) (A) (A) (A)
                 (A) (A) (A) (A) (A) (A) (A) (A) (A) (A) (A) (A)
                 (A) (A) (A) (A) (A) (A) (A) (A) (A) (A) (A) (A)
                 (A) (A) (A) (A) (A) (A) (A) (A) (A) (A) (A) (A)
                 (A) (A) (A) (A) (A) (A) (A) (A) (A) (A) (A) (A)
                 (A) (A) (A) (A) (A) (A) (A) (A) (A) (A) (A)
 The electronic state is 1-A.
 Alpha  occ. eigenvalues -- -513.05921 -67.32596 -60.87472 -60.87470 -60.87470
 Alpha  occ. eigenvalues --   -9.77892  -7.47187  -7.47186  -7.47186  -3.33929
 Alpha  occ. eigenvalues --   -3.33929  -3.33929  -3.33928  -3.33928  -0.98489
 Alpha  occ. eigenvalues --   -0.46647  -0.46643  -0.46642
 Alpha virt. eigenvalues --    0.03252   0.05200   0.08769   0.09595   0.12066
 Alpha virt. eigenvalues --    0.12571   0.13547   0.14068   0.16483   0.17272
 Alpha virt. eigenvalues --    0.18047   0.19777   0.20713   0.25334   0.26315
 Alpha virt. eigenvalues --    0.26585   0.28420   0.30524   0.32501   0.34074
 Alpha virt. eigenvalues --    0.35742   0.37175   0.38114   0.39326   0.41379
 Alpha virt. eigenvalues --    0.42050   0.42444   0.52104   0.52261   0.56872
 Alpha virt. eigenvalues --    0.58758   0.66676   0.67695   0.69613   0.71623
 Alpha virt. eigenvalues --    0.73629   0.74311   0.75297   0.76622   0.77942
 Alpha virt. eigenvalues --    0.79091   0.80341   0.82572   0.85804   0.86624
 Alpha virt. eigenvalues --    0.87826   0.88962   0.90178   0.91141   0.94912
 Alpha virt. eigenvalues --    0.96172   0.97528   0.98142   0.98338   1.00474
 Alpha virt. eigenvalues --    1.03767   1.05332   1.07290   1.08342   1.11101
 Alpha virt. eigenvalues --    1.15098   1.19812   1.22302   1.26055   1.29022
 Alpha virt. eigenvalues --    1.32874   1.33390   1.39124   1.43306   1.44299
 Alpha virt. eigenvalues --    1.53480   1.57051   1.58050   1.74446   1.77220
 Alpha virt. eigenvalues --    1.79291   1.83433   1.86007   1.99041   2.14563
 Alpha virt. eigenvalues --    2.17883   2.24275   2.26700   2.28295   2.28856
 Alpha virt. eigenvalues --    2.30564   2.31735   2.35667   2.39516   2.39962
 Alpha virt. eigenvalues --    2.42493   2.45073   2.46160   2.46728   2.47411
 Alpha virt. eigenvalues --    2.51050   2.52282   2.53323   2.55912   2.56675
 Alpha virt. eigenvalues --    2.60681   2.62188   2.63277   2.68082   2.71357
 Alpha virt. eigenvalues --    2.72924   2.77270   2.84350   2.88829   2.89068
 Alpha virt. eigenvalues --    2.94000   2.99396   3.03909   3.11978   3.20416
 Alpha virt. eigenvalues --    3.24449   3.25174   3.31110   3.37528   3.48633
 Alpha virt. eigenvalues --    3.61548   3.64321   3.83511   3.87164   4.04558
 Alpha virt. eigenvalues --    4.34573   4.42285   4.51430   4.57213   4.66164
 Alpha virt. eigenvalues --    4.73411   4.88030   4.91721   4.94821   5.00695
 Alpha virt. eigenvalues --    5.13820   5.22366   5.59838   5.65673   5.76214
 Alpha virt. eigenvalues --    5.92476   6.02760   6.12391   6.74800   6.88934
 Alpha virt. eigenvalues --    7.38459   7.46193   7.59198   7.62748   7.76220
 Alpha virt. eigenvalues --    7.83380   7.92396   8.13462   8.17423   8.22618
 Alpha virt. eigenvalues --    8.41119   8.48376   8.57902   8.86630   9.66447
 Alpha virt. eigenvalues --    9.76607   9.85136   9.90029   9.91184  10.00300
 Alpha virt. eigenvalues --   10.15411  10.34691  10.36615  10.98421  11.52498
 Alpha virt. eigenvalues --   11.66755  11.79817  12.07354  12.10812  13.23881
 Alpha virt. eigenvalues --   13.63536  14.52776  62.79262  64.69788
          Condensed to atoms (all electrons):
              1          2          3          4          5
     1  O    0.002660  -0.002119  -0.001687   0.001424  -0.009960
     2  O   -0.002119   0.006430   0.000738  -0.004517  -0.001321
     3  H   -0.001687   0.000738   0.001362  -0.000476   0.002224
     4  H    0.001424  -0.004517  -0.000476   0.004447  -0.021829
     5  Kr  -0.009960  -0.001321   0.002224  -0.021829  36.060149
 Mulliken atomic charges:
              1
     1  O    0.009683
     2  O    0.000789
     3  H   -0.002160
     4  H    0.020952
     5  Kr  -0.029263
 Sum of Mulliken atomic charges =   0.00000
 Mulliken charges with hydrogens summed into heavy atoms:
              1
     1  O    0.007522
     2  O    0.021741
     5  Kr  -0.029263
 Sum of Mulliken charges with hydrogens summed into heavy atoms =   0.00000
          Condensed to fragments (all electrons):
     1       0.029263
     2      -0.029263
 Electronic spatial extent (au):  <R**2>=            164.3465
 Charge=              0.0000 electrons
 Dipole moment (field-independent basis, Debye):
    X=             -0.0002    Y=              0.0004    Z=              0.0001  Tot=              0.0005
 Quadrupole moment (field-independent basis, Debye-Ang):
   XX=            -17.6262   YY=            -17.6408   ZZ=            -17.6486
   XY=             -0.0045   XZ=             -0.0008   YZ=              0.0001
 Traceless Quadrupole moment (field-independent basis, Debye-Ang):
   XX=              0.0123   YY=             -0.0023   ZZ=             -0.0100
   XY=             -0.0045   XZ=             -0.0008   YZ=              0.0001
 Octapole moment (field-independent basis, Debye-Ang**2):
  XXX=            -52.1347  YYY=              0.6184  ZZZ=             -0.0370  XYY=            -17.3936
  XXY=              0.1976  XXZ=             -0.0142  XZZ=            -17.3982  YZZ=              0.2073
  YYZ=             -0.0123  XYZ=              0.0001
 Hexadecapole moment (field-independent basis, Debye-Ang**3):
 XXXX=           -121.2112 YYYY=            -18.4481 ZZZZ=            -18.4567 XXXY=              0.5926
 XXXZ=             -0.0402 YYYX=              0.5972 YYYZ=              0.0002 ZZZX=             -0.0392
 ZZZY=              0.0013 XXYY=            -23.2916 XXZZ=            -23.2940 YYZZ=             -6.1497
 XXYZ=              0.0003 YYXZ=             -0.0125 ZZXY=              0.1975
 N-N= 0.000000000000D+00 E-N=-6.580199418355D+03  KE= 2.750261035530D+03
 No NMR shielding tensors so no spin-rotation constants.
 Leave Link  601 at Sun May 10 12:23:15 2020, MaxMem= 1073741824 cpu:       0.8
 (Enter /home/matheus/.gaussian/g09/l122.exe)
 Counterpoise: doing MCBS calculation for fragment   1
 Leave Link  122 at Sun May 10 12:23:15 2020, MaxMem= 1073741824 cpu:       0.0
 (Enter /home/matheus/.gaussian/g09/l301.exe)
 Basis read from rwf:  (5D, 7F)
 No pseudopotential information found on rwf file.
 There are   138 symmetry adapted basis functions of A   symmetry.
 Integral buffers will be    131072 words long.
 Raffenetti 2 integral format.
 Two-electron integral symmetry is turned on.
   138 basis functions,   198 primitive gaussians,   160 cartesian basis functions
     9 alpha electrons        9 beta electrons
       nuclear repulsion energy        36.6212539076 Hartrees.
 IExCor= 4639 DFT=T Ex+Corr=wB97XD ExCW=0 ScaHFX=  1.000000
 ScaDFX=  1.000000  1.000000  1.000000  1.000000 ScalE2=  1.000000  1.000000
 IRadAn=      5 IRanWt=     -1 IRanGd=            0 ICorTp=0
  HFx wShort=  0.000000 wLong=  0.200000 cFull=  0.222036 cShort=  0.000000 cLong=  0.777964
  DFx wShort=  0.000000 wLong=  0.200000 cFull=  0.000000 cShort=  0.000000 cLong=  1.000000
 NAtoms=    5 NActive=    4 NUniq=    4 SFac= 1.00D+00 NAtFMM=   60 NAOKFM=F Big=F
 R6Disp: Dispersion energy =        -0.0002449821 Hartrees.
 Nuclear repulsion after empirical dispersion term =       36.6210089255 Hartrees.
 No density basis found on file   718.
 Leave Link  301 at Sun May 10 12:23:15 2020, MaxMem= 1073741824 cpu:       0.2
 (Enter /home/matheus/.gaussian/g09/l302.exe)
 NPDir=0 NMtPBC=     1 NCelOv=     1 NCel=       1 NClECP=     1 NCelD=      1
         NCelK=      1 NCelE2=     1 NClLst=     1 CellRange=     0.0.
 One-electron integrals computed using PRISM.
 NBasis=   138 RedAO= T  NBF=   138
 NBsUse=   138 1.00D-06 NBFU=   138
 Precomputing XC quadrature grid using
 IXCGrd= 2 IRadAn=           5 IRanWt=          -1 IRanGd=           0 AccXCQ= 0.00D+00.
 NRdTot=     344 NPtTot=       92556 NUsed=       95038 NTot=       95070
 NSgBfM=   160   160   160   160   160 NAtAll=     4     4.
 Leave Link  302 at Sun May 10 12:23:15 2020, MaxMem= 1073741824 cpu:       0.8
 (Enter /home/matheus/.gaussian/g09/l303.exe)
 DipDrv:  MaxL=1.
 Leave Link  303 at Sun May 10 12:23:15 2020, MaxMem= 1073741824 cpu:       0.1
 (Enter /home/matheus/.gaussian/g09/l401.exe)
 Harris functional with IExCor= 4639 diagonalized for initial guess.
 ExpMin= 2.53D-02 ExpMax= 1.53D+04 ExpMxC= 5.22D+02 IAcc=3 IRadAn=         5 AccDes= 0.00D+00
 HarFok:  IExCor= 4639 AccDes= 0.00D+00 IRadAn=         5 IDoV= 1
 ScaDFX=  1.000000  1.000000  1.000000  1.000000
 FoFCou: FMM=F IPFlag=           0 FMFlag=      100000 FMFlg1=           0
         NFxFlg=           0 DoJE=T BraDBF=F KetDBF=T FulRan=T
         Omega=  0.000000  0.000000  1.000000  0.000000  0.000000 ICntrl=     500 IOpCl=  0
         NMat0=    1 NMatS0=    1 NMatT0=    0 NMatD0=    1 NMtDS0=    0 NMtDT0=    0
         I1Cent=           4 NGrid=           0.
 Petite list used in FoFCou.
 Harris En= -146.295694349768    
 Initial guess orbital symmetries:
       Occupied  (A) (A) (A) (A) (A) (A) (A) (A) (A)
       Virtual   (A) (A) (A) (A) (A) (A) (A) (A) (A) (A) (A) (A)
                 (A) (A) (A) (A) (A) (A) (A) (A) (A) (A) (A) (A)
                 (A) (A) (A) (A) (A) (A) (A) (A) (A) (A) (A) (A)
                 (A) (A) (A) (A) (A) (A) (A) (A) (A) (A) (A) (A)
                 (A) (A) (A) (A) (A) (A) (A) (A) (A) (A) (A) (A)
                 (A) (A) (A) (A) (A) (A) (A) (A) (A) (A) (A) (A)
                 (A) (A) (A) (A) (A) (A) (A) (A) (A) (A) (A) (A)
                 (A) (A) (A) (A) (A) (A) (A) (A) (A) (A) (A) (A)
                 (A) (A) (A) (A) (A) (A) (A) (A) (A) (A) (A) (A)
                 (A) (A) (A) (A) (A) (A) (A) (A) (A) (A) (A) (A)
                 (A) (A) (A) (A) (A) (A) (A) (A) (A)
 The electronic state of the initial guess is 1-A.
 Leave Link  401 at Sun May 10 12:23:15 2020, MaxMem= 1073741824 cpu:       2.5
 (Enter /home/matheus/.gaussian/g09/l502.exe)
 Closed shell SCF:
 Requested convergence on RMS density matrix=1.00D-08 within 128 cycles.
 Requested convergence on MAX density matrix=1.00D-06.
 Requested convergence on             energy=1.00D-06.
 No special actions if energy rises.
 Using DIIS extrapolation, IDIIS=  1040.
 Integral symmetry usage will be decided dynamically.
        94980 words used for storage of precomputed grid.
 IEnd=      192360 IEndB=      192360 NGot=  1073741824 MDV=  1073591865
 LenX=  1073591865 LenY=  1073565824
 Fock matrices will be formed incrementally for  20 cycles.

 Cycle   1  Pass 1  IDiag  1:
 FoFJK:  IHMeth= 1 ICntrl=     0 DoSepK=T KAlg= 1 I1Cent= 0 FoldK=F
 FoFCou: FMM=F IPFlag=           0 FMFlag=      100000 FMFlg1=           0
         NFxFlg=           0 DoJE=T BraDBF=F KetDBF=F FulRan=T
         Omega=  0.000000  0.000000  1.000000  0.000000  0.000000 ICntrl=     500 IOpCl=  0
         NMat0=    1 NMatS0=    1 NMatT0=    0 NMatD0=    1 NMtDS0=    0 NMtDT0=    0
         I1Cent=           0 NGrid=           0.
 Symmetry not used in FoFCou.
 E= -151.478331005861    
 DIIS: error= 4.33D-02 at cycle   1 NSaved=   1.
 NSaved= 1 IEnMin= 1 EnMin= -151.478331005861     IErMin= 1 ErrMin= 4.33D-02
 ErrMax= 4.33D-02 EMaxC= 1.00D-01 BMatC= 3.01D-01 BMatP= 3.01D-01
 IDIUse=3 WtCom= 5.67D-01 WtEn= 4.33D-01
 Coeff-Com:  0.100D+01
 Coeff-En:   0.100D+01
 Coeff:      0.100D+01
 Gap=     0.531 Goal=   None    Shift=    0.000
 GapD=    0.531 DampG=2.000 DampE=0.500 DampFc=1.0000 IDamp=-1.
 RMSDP=3.44D-03 MaxDP=1.09D-01              OVMax= 1.08D-01

 Cycle   2  Pass 1  IDiag  1:
 RMSU=  2.38D-03    CP:  9.50D-01
 FoFJK:  IHMeth= 1 ICntrl=     0 DoSepK=T KAlg= 1 I1Cent= 0 FoldK=F
 E= -151.508535066889     Delta-E=       -0.030204061028 Rises=F Damp=F
 DIIS: error= 2.44D-02 at cycle   2 NSaved=   2.
 NSaved= 2 IEnMin= 2 EnMin= -151.508535066889     IErMin= 2 ErrMin= 2.44D-02
 ErrMax= 2.44D-02 EMaxC= 1.00D-01 BMatC= 9.11D-02 BMatP= 3.01D-01
 IDIUse=3 WtCom= 7.56D-01 WtEn= 2.44D-01
 Coeff-Com:  0.333D+00 0.667D+00
 Coeff-En:   0.364D+00 0.636D+00
 Coeff:      0.340D+00 0.660D+00
 Gap=     0.475 Goal=   None    Shift=    0.000
 RMSDP=1.43D-03 MaxDP=4.89D-02 DE=-3.02D-02 OVMax= 5.96D-02

 Cycle   3  Pass 1  IDiag  1:
 RMSU=  5.11D-04    CP:  9.71D-01  6.44D-01
 FoFJK:  IHMeth= 1 ICntrl=     0 DoSepK=T KAlg= 1 I1Cent= 0 FoldK=F
 E= -151.557607467867     Delta-E=       -0.049072400978 Rises=F Damp=F
 DIIS: error= 6.70D-03 at cycle   3 NSaved=   3.
 NSaved= 3 IEnMin= 3 EnMin= -151.557607467867     IErMin= 3 ErrMin= 6.70D-03
 ErrMax= 6.70D-03 EMaxC= 1.00D-01 BMatC= 6.51D-03 BMatP= 9.11D-02
 IDIUse=3 WtCom= 9.33D-01 WtEn= 6.70D-02
 Coeff-Com:  0.144D-01 0.220D+00 0.766D+00
 Coeff-En:   0.000D+00 0.000D+00 0.100D+01
 Coeff:      0.134D-01 0.205D+00 0.781D+00
[...]
 DIIS: error= 3.89D-06 at cycle   2 NSaved=   2.
 NSaved= 2 IEnMin= 2 EnMin= -2753.87423831070     IErMin= 2 ErrMin= 3.89D-06
 ErrMax= 3.89D-06 EMaxC= 1.00D-01 BMatC= 3.93D-09 BMatP= 3.55D-06
 IDIUse=1 WtCom= 1.00D+00 WtEn= 0.00D+00
 Coeff-Com: -0.103D-01 0.101D+01
 Coeff:     -0.103D-01 0.101D+01
 Gap=     0.497 Goal=   None    Shift=    0.000
 RMSDP=2.03D-06 MaxDP=8.46D-05 DE=-5.56D-07 OVMax= 5.08D-05

 Cycle   3  Pass 1  IDiag  1:
 RMSU=  5.33D-07    CP:  1.00D+00  1.09D+00
 FoFJK:  IHMeth= 1 ICntrl=     0 DoSepK=T KAlg= 1 I1Cent= 0 FoldK=F
 E= -2753.87423831802     Delta-E=       -0.000000007320 Rises=F Damp=F
 DIIS: error= 6.34D-07 at cycle   3 NSaved=   3.
 NSaved= 3 IEnMin= 3 EnMin= -2753.87423831802     IErMin= 3 ErrMin= 6.34D-07
 ErrMax= 6.34D-07 EMaxC= 1.00D-01 BMatC= 1.06D-10 BMatP= 3.93D-09
 IDIUse=1 WtCom= 1.00D+00 WtEn= 0.00D+00
 Coeff-Com: -0.227D-05-0.963D-01 0.110D+01
 Coeff:     -0.227D-05-0.963D-01 0.110D+01
 Gap=     0.497 Goal=   None    Shift=    0.000
 RMSDP=2.32D-07 MaxDP=1.02D-05 DE=-7.32D-09 OVMax= 9.74D-06

 Cycle   4  Pass 1  IDiag  1:
 RMSU=  5.22D-08    CP:  1.00D+00  1.10D+00  1.20D+00
 FoFJK:  IHMeth= 1 ICntrl=     0 DoSepK=T KAlg= 1 I1Cent= 0 FoldK=F
 E= -2753.87423831821     Delta-E=       -0.000000000189 Rises=F Damp=F
 DIIS: error= 4.39D-07 at cycle   4 NSaved=   4.
 NSaved= 4 IEnMin= 4 EnMin= -2753.87423831821     IErMin= 4 ErrMin= 4.39D-07
 ErrMax= 4.39D-07 EMaxC= 1.00D-01 BMatC= 1.74D-11 BMatP= 1.06D-10
 IDIUse=1 WtCom= 1.00D+00 WtEn= 0.00D+00
 Coeff-Com:  0.212D-03-0.518D-01 0.339D+00 0.712D+00
 Coeff:      0.212D-03-0.518D-01 0.339D+00 0.712D+00
 Gap=     0.497 Goal=   None    Shift=    0.000
 RMSDP=2.16D-08 MaxDP=8.89D-07 DE=-1.89D-10 OVMax= 1.35D-06

 Cycle   5  Pass 1  IDiag  1:
 RMSU=  1.05D-08    CP:  1.00D+00  1.10D+00  1.22D+00  1.06D+00
 FoFJK:  IHMeth= 1 ICntrl=     0 DoSepK=T KAlg= 1 I1Cent= 0 FoldK=F
 E= -2753.87423831821     Delta-E=        0.000000000000 Rises=F Damp=F
 DIIS: error= 2.59D-08 at cycle   5 NSaved=   5.
 NSaved= 5 IEnMin= 4 EnMin= -2753.87423831821     IErMin= 5 ErrMin= 2.59D-08
 ErrMax= 2.59D-08 EMaxC= 1.00D-01 BMatC= 1.37D-13 BMatP= 1.74D-11
 IDIUse=1 WtCom= 1.00D+00 WtEn= 0.00D+00
 Coeff-Com: -0.226D-05 0.361D-02-0.364D-01-0.193D-01 0.105D+01
 Coeff:     -0.226D-05 0.361D-02-0.364D-01-0.193D-01 0.105D+01
 Gap=     0.497 Goal=   None    Shift=    0.000
 RMSDP=9.12D-09 MaxDP=5.54D-07 DE= 0.00D+00 OVMax= 3.62D-07

 SCF Done:  E(RwB97XD) =  -2753.87423832     A.U. after    5 cycles
             Convg  =    0.9119D-08             -V/T =  2.0013
 KE= 2.750294859382D+03 PE=-6.580235546815D+03 EE= 1.076066449115D+03
 Leave Link  502 at Sun May 10 12:45:52 2020, MaxMem= 1073741824 cpu:      91.3
 (Enter /home/matheus/.gaussian/g09/l122.exe)
 Restoring MOs from calculation   4 to rwf.
 Counterpoise: doing MCBS calculation for fragment   1
 Leave Link  122 at Sun May 10 12:45:52 2020, MaxMem= 1073741824 cpu:       0.0
 (Enter /home/matheus/.gaussian/g09/l301.exe)
 Basis read from rwf:  (5D, 7F)
 No pseudopotential information found on rwf file.
 There are   138 symmetry adapted basis functions of A   symmetry.
 Integral buffers will be    131072 words long.
 Raffenetti 2 integral format.
 Two-electron integral symmetry is turned on.
   138 basis functions,   198 primitive gaussians,   160 cartesian basis functions
     9 alpha electrons        9 beta electrons
       nuclear repulsion energy        36.6212539076 Hartrees.
 IExCor= 4639 DFT=T Ex+Corr=wB97XD ExCW=0 ScaHFX=  1.000000
 ScaDFX=  1.000000  1.000000  1.000000  1.000000 ScalE2=  1.000000  1.000000
 IRadAn=      5 IRanWt=     -1 IRanGd=            0 ICorTp=0
  HFx wShort=  0.000000 wLong=  0.200000 cFull=  0.222036 cShort=  0.000000 cLong=  0.777964
  DFx wShort=  0.000000 wLong=  0.200000 cFull=  0.000000 cShort=  0.000000 cLong=  1.000000
 NAtoms=    5 NActive=    4 NUniq=    4 SFac= 1.00D+00 NAtFMM=   60 NAOKFM=F Big=F
 R6Disp: Dispersion energy =        -0.0002449821 Hartrees.
 Nuclear repulsion after empirical dispersion term =       36.6210089255 Hartrees.
 No density basis found on file   718.
 Leave Link  301 at Sun May 10 12:45:52 2020, MaxMem= 1073741824 cpu:       0.2
 (Enter /home/matheus/.gaussian/g09/l302.exe)
 NPDir=0 NMtPBC=     1 NCelOv=     1 NCel=       1 NClECP=     1 NCelD=      1
         NCelK=      1 NCelE2=     1 NClLst=     1 CellRange=     0.0.
 One-electron integrals computed using PRISM.
 NBasis=   138 RedAO= T  NBF=   138
 NBsUse=   138 1.00D-06 NBFU=   138
 Precomputing XC quadrature grid using
 IXCGrd= 2 IRadAn=           5 IRanWt=          -1 IRanGd=           0 AccXCQ= 0.00D+00.
 NRdTot=     344 NPtTot=       92556 NUsed=       95038 NTot=       95070
 NSgBfM=   160   160   160   160   160 NAtAll=     4     4.
 Leave Link  302 at Sun May 10 12:45:52 2020, MaxMem= 1073741824 cpu:       0.8
 (Enter /home/matheus/.gaussian/g09/l303.exe)
 DipDrv:  MaxL=1.
 Leave Link  303 at Sun May 10 12:45:52 2020, MaxMem= 1073741824 cpu:       0.1
 (Enter /home/matheus/.gaussian/g09/l401.exe)
 Initial guess read from the read-write file.
 Guess basis will be translated and rotated to current coordinates.
 Initial guess orbital symmetries:
       Occupied  (A) (A) (A) (A) (A) (A) (A) (A) (A)
       Virtual   (A) (A) (A) (A) (A) (A) (A) (A) (A) (A) (A) (A)
                 (A) (A) (A) (A) (A) (A) (A) (A) (A) (A) (A) (A)
                 (A) (A) (A) (A) (A) (A) (A) (A) (A) (A) (A) (A)
                 (A) (A) (A) (A) (A) (A) (A) (A) (A) (A) (A) (A)
                 (A) (A) (A) (A) (A) (A) (A) (A) (A) (A) (A) (A)
                 (A) (A) (A) (A) (A) (A) (A) (A) (A) (A) (A) (A)
                 (A) (A) (A) (A) (A) (A) (A) (A) (A) (A) (A) (A)
                 (A) (A) (A) (A) (A) (A) (A) (A) (A) (A) (A) (A)
                 (A) (A) (A) (A) (A) (A) (A) (A) (A) (A) (A) (A)
                 (A) (A) (A) (A) (A) (A) (A) (A) (A) (A) (A) (A)
                 (A) (A) (A) (A) (A) (A) (A) (A) (A)
 The electronic state of the initial guess is 1-A.
 Generating alternative initial guess.
 Harris functional with IExCor= 4639 diagonalized for initial guess.
 ExpMin= 2.53D-02 ExpMax= 1.53D+04 ExpMxC= 5.22D+02 IAcc=3 IRadAn=         5 AccDes= 0.00D+00
 HarFok:  IExCor= 4639 AccDes= 0.00D+00 IRadAn=         5 IDoV= 1
 ScaDFX=  1.000000  1.000000  1.000000  1.000000
 FoFCou: FMM=F IPFlag=           0 FMFlag=      100000 FMFlg1=           0
         NFxFlg=           0 DoJE=T BraDBF=F KetDBF=T FulRan=T
         Omega=  0.000000  0.000000  1.000000  0.000000  0.000000 ICntrl=     500 IOpCl=  0
         NMat0=    1 NMatS0=    1 NMatT0=    0 NMatD0=    1 NMtDS0=    0 NMtDT0=    0
         I1Cent=           4 NGrid=           0.
 Petite list used in FoFCou.
 Harris En= -146.295694339857    
 Leave Link  401 at Sun May 10 12:45:53 2020, MaxMem= 1073741824 cpu:       2.5
 (Enter /home/matheus/.gaussian/g09/l502.exe)
 Closed shell SCF:
 Requested convergence on RMS density matrix=1.00D-08 within 128 cycles.
 Requested convergence on MAX density matrix=1.00D-06.
 Requested convergence on             energy=1.00D-06.
 No special actions if energy rises.
 Using DIIS extrapolation, IDIIS=  1040.
 Integral symmetry usage will be decided dynamically.
        94980 words used for storage of precomputed grid.
 IEnd=      192360 IEndB=      192360 NGot=  1073741824 MDV=  1073591865
 LenX=  1073591865 LenY=  1073565824
 Fock matrices will be formed incrementally for  20 cycles.

 Cycle   1  Pass 1  IDiag  1:
 FoFJK:  IHMeth= 1 ICntrl=     0 DoSepK=T KAlg= 1 I1Cent= 0 FoldK=F
 FoFCou: FMM=F IPFlag=           0 FMFlag=      100000 FMFlg1=           0
         NFxFlg=           0 DoJE=T BraDBF=F KetDBF=F FulRan=T
         Omega=  0.000000  0.000000  1.000000  0.000000  0.000000 ICntrl=     500 IOpCl=  0
         NMat0=    1 NMatS0=    1 NMatT0=    0 NMatD0=    1 NMtDS0=    0 NMtDT0=    0
         I1Cent=           0 NGrid=           0.
 Symmetry not used in FoFCou.
 E= -151.561847270088    
 DIIS: error= 1.06D-05 at cycle   1 NSaved=   1.
 NSaved= 1 IEnMin= 1 EnMin= -151.561847270088     IErMin= 1 ErrMin= 1.06D-05
 ErrMax= 1.06D-05 EMaxC= 1.00D-01 BMatC= 3.04D-08 BMatP= 3.04D-08
 IDIUse=1 WtCom= 1.00D+00 WtEn= 0.00D+00
 Coeff-Com:  0.100D+01
 Coeff:      0.100D+01
 Gap=     0.422 Goal=   None    Shift=    0.000
 RMSDP=1.15D-06 MaxDP=2.68D-05              OVMax= 5.61D-05

 Cycle   2  Pass 1  IDiag  1:
 RMSU=  8.11D-07    CP:  1.00D+00
 FoFJK:  IHMeth= 1 ICntrl=     0 DoSepK=T KAlg= 1 I1Cent= 0 FoldK=F
 E= -151.561847302497     Delta-E=       -0.000000032409 Rises=F Damp=F
 DIIS: error= 2.35D-06 at cycle   2 NSaved=   2.
 NSaved= 2 IEnMin= 2 EnMin= -151.561847302497     IErMin= 2 ErrMin= 2.35D-06
 ErrMax= 2.35D-06 EMaxC= 1.00D-01 BMatC= 9.95D-10 BMatP= 3.04D-08
 IDIUse=1 WtCom= 1.00D+00 WtEn= 0.00D+00
 Coeff-Com: -0.996D-01 0.110D+01
 Coeff:     -0.996D-01 0.110D+01
 Gap=     0.422 Goal=   None    Shift=    0.000
 RMSDP=3.42D-07 MaxDP=9.09D-06 DE=-3.24D-08 OVMax= 1.94D-05

 Cycle   3  Pass 1  IDiag  1:
 RMSU=  1.44D-07    CP:  1.00D+00  1.24D+00
 FoFJK:  IHMeth= 1 ICntrl=     0 DoSepK=T KAlg= 1 I1Cent= 0 FoldK=F
 E= -151.561847304512     Delta-E=       -0.000000002015 Rises=F Damp=F
 DIIS: error= 1.31D-06 at cycle   3 NSaved=   3.
 NSaved= 3 IEnMin= 3 EnMin= -151.561847304512     IErMin= 3 ErrMin= 1.31D-06
 ErrMax= 1.31D-06 EMaxC= 1.00D-01 BMatC= 2.43D-10 BMatP= 9.95D-10
 IDIUse=1 WtCom= 1.00D+00 WtEn= 0.00D+00
 Coeff-Com: -0.439D-01 0.304D+00 0.740D+00
 Coeff:     -0.439D-01 0.304D+00 0.740D+00
 Gap=     0.422 Goal=   None    Shift=    0.000
 RMSDP=1.10D-07 MaxDP=3.50D-06 DE=-2.01D-09 OVMax= 7.12D-06

 Cycle   4  Pass 1  IDiag  1:
 RMSU=  6.91D-08    CP:  1.00D+00  1.28D+00  1.07D+00
 FoFJK:  IHMeth= 1 ICntrl=     0 DoSepK=T KAlg= 1 I1Cent= 0 FoldK=F
 E= -151.561847304686     Delta-E=       -0.000000000175 Rises=F Damp=F
 DIIS: error= 8.57D-07 at cycle   4 NSaved=   4.
 NSaved= 4 IEnMin= 4 EnMin= -151.561847304686     IErMin= 4 ErrMin= 8.57D-07
 ErrMax= 8.57D-07 EMaxC= 1.00D-01 BMatC= 1.41D-10 BMatP= 2.43D-10
 IDIUse=1 WtCom= 1.00D+00 WtEn= 0.00D+00
 Coeff-Com: -0.169D-02-0.843D-01 0.439D+00 0.647D+00
 Coeff:     -0.169D-02-0.843D-01 0.439D+00 0.647D+00
 Gap=     0.422 Goal=   None    Shift=    0.000
 RMSDP=5.80D-08 MaxDP=1.21D-06 DE=-1.75D-10 OVMax= 3.45D-06

 Cycle   5  Pass 1  IDiag  1:
 RMSU=  1.55D-08    CP:  1.00D+00  1.30D+00  1.28D+00  7.87D-01
 FoFJK:  IHMeth= 1 ICntrl=     0 DoSepK=T KAlg= 1 I1Cent= 0 FoldK=F
 E= -151.561847304806     Delta-E=       -0.000000000119 Rises=F Damp=F
 DIIS: error= 1.43D-07 at cycle   5 NSaved=   5.
 NSaved= 5 IEnMin= 5 EnMin= -151.561847304806     IErMin= 5 ErrMin= 1.43D-07
 ErrMax= 1.43D-07 EMaxC= 1.00D-01 BMatC= 3.04D-12 BMatP= 1.41D-10
 IDIUse=1 WtCom= 1.00D+00 WtEn= 0.00D+00
 Coeff-Com:  0.440D-02-0.477D-01-0.381D-01 0.710D-01 0.101D+01
 Coeff:      0.440D-02-0.477D-01-0.381D-01 0.710D-01 0.101D+01
 Gap=     0.422 Goal=   None    Shift=    0.000
 RMSDP=2.21D-08 MaxDP=4.55D-07 DE=-1.19D-10 OVMax= 1.87D-06

 Cycle   6  Pass 1  IDiag  1:
 RMSU=  5.59D-09    CP:  1.00D+00  1.31D+00  1.34D+00  8.91D-01  1.40D+00
 FoFJK:  IHMeth= 1 ICntrl=     0 DoSepK=T KAlg= 1 I1Cent= 0 FoldK=F
 E= -151.561847304814     Delta-E=       -0.000000000008 Rises=F Damp=F
 DIIS: error= 4.06D-08 at cycle   6 NSaved=   6.
 NSaved= 6 IEnMin= 6 EnMin= -151.561847304814     IErMin= 6 ErrMin= 4.06D-08
 ErrMax= 4.06D-08 EMaxC= 1.00D-01 BMatC= 2.10D-13 BMatP= 3.04D-12
 IDIUse=1 WtCom= 1.00D+00 WtEn= 0.00D+00
 Coeff-Com:  0.196D-03 0.404D-02-0.264D-01-0.334D-01 0.491D-01 0.101D+01
 Coeff:      0.196D-03 0.404D-02-0.264D-01-0.334D-01 0.491D-01 0.101D+01
 Gap=     0.422 Goal=   None    Shift=    0.000
 RMSDP=6.70D-09 MaxDP=1.57D-07 DE=-8.13D-12 OVMax= 6.07D-07

 SCF Done:  E(RwB97XD) =  -151.561847305     A.U. after    6 cycles
             Convg  =    0.6695D-08             -V/T =  2.0059
 KE= 1.506737609059D+02 PE=-4.317327798392D+02 EE= 9.287616270301D+01
 Leave Link  502 at Sun May 10 12:45:58 2020, MaxMem= 1073741824 cpu:      45.6
 (Enter /home/matheus/.gaussian/g09/l122.exe)
 Restoring MOs from calculation   5 to rwf.
 Counterpoise: doing MCBS calculation for fragment   2
 Leave Link  122 at Sun May 10 12:45:58 2020, MaxMem= 1073741824 cpu:       0.0
 (Enter /home/matheus/.gaussian/g09/l301.exe)
 Basis read from rwf:  (5D, 7F)
 No pseudopotential information found on rwf file.
 There are    59 symmetry adapted basis functions of A   symmetry.
 Integral buffers will be    131072 words long.
 Raffenetti 2 integral format.
 Two-electron integral symmetry is turned on.
    59 basis functions,   217 primitive gaussians,    69 cartesian basis functions
    18 alpha electrons       18 beta electrons
       nuclear repulsion energy         0.0000000000 Hartrees.
 IExCor= 4639 DFT=T Ex+Corr=wB97XD ExCW=0 ScaHFX=  1.000000
 ScaDFX=  1.000000  1.000000  1.000000  1.000000 ScalE2=  1.000000  1.000000
 IRadAn=      5 IRanWt=     -1 IRanGd=            0 ICorTp=0
  HFx wShort=  0.000000 wLong=  0.200000 cFull=  0.222036 cShort=  0.000000 cLong=  0.777964
  DFx wShort=  0.000000 wLong=  0.200000 cFull=  0.000000 cShort=  0.000000 cLong=  1.000000
 NAtoms=    5 NActive=    1 NUniq=    1 SFac= 1.00D+00 NAtFMM=   60 NAOKFM=F Big=F
 R6Disp: Dispersion energy =         0.0000000000 Hartrees.
 Nuclear repulsion after empirical dispersion term =        0.0000000000 Hartrees.
 No density basis found on file   718.
 Leave Link  301 at Sun May 10 12:45:58 2020, MaxMem= 1073741824 cpu:       0.2
 (Enter /home/matheus/.gaussian/g09/l302.exe)
 NPDir=0 NMtPBC=     1 NCelOv=     1 NCel=       1 NClECP=     1 NCelD=      1
         NCelK=      1 NCelE2=     1 NClLst=     1 CellRange=     0.0.
 One-electron integrals computed using PRISM.
 NBasis=    59 RedAO= T  NBF=    59
 NBsUse=    59 1.00D-06 NBFU=    59
 Precomputing XC quadrature grid using
 IXCGrd= 2 IRadAn=           5 IRanWt=          -1 IRanGd=           0 AccXCQ= 0.00D+00.
 NRdTot=      81 NPtTot=       30352 NUsed=       30981 NTot=       31013
 NSgBfM=    69    69    69    69    69 NAtAll=     1     1.
 Leave Link  302 at Sun May 10 12:45:59 2020, MaxMem= 1073741824 cpu:       0.7
 (Enter /home/matheus/.gaussian/g09/l303.exe)
 DipDrv:  MaxL=1.
 Leave Link  303 at Sun May 10 12:45:59 2020, MaxMem= 1073741824 cpu:       0.1
 (Enter /home/matheus/.gaussian/g09/l401.exe)
 Initial guess read from the read-write file.
 Guess basis will be translated and rotated to current coordinates.
 Initial guess orbital symmetries:
       Occupied  (A) (A) (A) (A) (A) (A) (A) (A) (A) (A) (A) (A)
                 (A) (A) (A) (A) (A) (A)
       Virtual   (A) (A) (A) (A) (A) (A) (A) (A) (A) (A) (A) (A)
                 (A) (A) (A) (A) (A) (A) (A) (A) (A) (A) (A) (A)
                 (A) (A) (A) (A) (A) (A) (A) (A) (A) (A) (A) (A)
                 (A) (A) (A) (A) (A)
 The electronic state of the initial guess is 1-A.
 Generating alternative initial guess.
 Harris functional with IExCor= 4639 diagonalized for initial guess.
 ExpMin= 4.00D-02 ExpMax= 1.17D+07 ExpMxC= 1.33D+04 IAcc=3 IRadAn=         5 AccDes= 0.00D+00
 HarFok:  IExCor= 4639 AccDes= 0.00D+00 IRadAn=         5 IDoV= 1
 ScaDFX=  1.000000  1.000000  1.000000  1.000000
 FoFCou: FMM=F IPFlag=           0 FMFlag=      100000 FMFlg1=           0
         NFxFlg=           0 DoJE=T BraDBF=F KetDBF=T FulRan=T
         Omega=  0.000000  0.000000  1.000000  0.000000  0.000000 ICntrl=     500 IOpCl=  0
         NMat0=    1 NMatS0=    1 NMatT0=    0 NMatD0=    1 NMtDS0=    0 NMtDT0=    0
         I1Cent=           4 NGrid=           0.
 Petite list used in FoFCou.
 Harris En= -2730.20235208354    
 Leave Link  401 at Sun May 10 12:45:59 2020, MaxMem= 1073741824 cpu:       1.0
 (Enter /home/matheus/.gaussian/g09/l502.exe)
 Closed shell SCF:
 Requested convergence on RMS density matrix=1.00D-08 within 128 cycles.
 Requested convergence on MAX density matrix=1.00D-06.
 Requested convergence on             energy=1.00D-06.
 No special actions if energy rises.
 Using DIIS extrapolation, IDIIS=  1040.
 Integral symmetry usage will be decided dynamically.
        30923 words used for storage of precomputed grid.
 IEnd=       64406 IEndB=       64406 NGot=  1073741824 MDV=  1073698889
 LenX=  1073698889 LenY=  1073693687
 Fock matrices will be formed incrementally for  20 cycles.

 Cycle   1  Pass 1  IDiag  1:
 FoFJK:  IHMeth= 1 ICntrl=     0 DoSepK=T KAlg= 1 I1Cent= 0 FoldK=F
 FoFCou: FMM=F IPFlag=           0 FMFlag=      100000 FMFlg1=           0
         NFxFlg=           0 DoJE=T BraDBF=F KetDBF=F FulRan=T
         Omega=  0.000000  0.000000  1.000000  0.000000  0.000000 ICntrl=     500 IOpCl=  0
         NMat0=    1 NMatS0=    1 NMatT0=    0 NMatD0=    1 NMtDS0=    0 NMtDT0=    0
         I1Cent=           0 NGrid=           0.
 Symmetry not used in FoFCou.
 E= -2753.87421986326    
 DIIS: error= 2.08D-13 at cycle   1 NSaved=   1.
 NSaved= 1 IEnMin= 1 EnMin= -2753.87421986326     IErMin= 1 ErrMin= 2.08D-13
 ErrMax= 2.08D-13 EMaxC= 1.00D-01 BMatC= 1.30D-24 BMatP= 1.30D-24
 IDIUse=1 WtCom= 1.00D+00 WtEn= 0.00D+00
 Coeff-Com:  0.100D+01
 Coeff:      0.100D+01
 Gap=     0.562 Goal=   None    Shift=    0.000
 DSYEVD returned Info=          89 IAlg= 4 N=    59 NDim=    59 NE2=    18198197 trying DSYEV.
 RMSDP=1.36D-14 MaxDP=1.54D-13              OVMax= 1.77D-13

 SCF Done:  E(RwB97XD) =  -2753.87421986     A.U. after    1 cycles
             Convg  =    0.1357D-13             -V/T =  2.0013
 KE= 2.750300381543D+03 PE=-6.580241205809D+03 EE= 1.076066604402D+03
 Leave Link  502 at Sun May 10 12:46:00 2020, MaxMem= 1073741824 cpu:      12.1
 (Enter /home/matheus/.gaussian/g09/l122.exe)
 Restoring MOs from calculation   1 to rwf.
 Counterpoise: corrected energy =   -2905.436368717242
 Counterpoise: BSSE energy =       0.000022233048
 Leave Link  122 at Sun May 10 12:46:00 2020, MaxMem= 1073741824 cpu:       0.0
 (Enter /home/matheus/.gaussian/g09/l108.exe)
 Scan completed.

 Summary of the potential surface scan:
   N      R1          SCF    
 ----  ---------  -----------
    1     3.0000  -2753.87422
    2     3.1000  -2753.87422
    3     3.2000  -2753.87422
    4     3.3000  -2753.87422
    5     3.4000  -2753.87422
    6     3.5000  -2753.87422
    7     3.6000  -2753.87422
    8     3.7000  -2753.87422
    9     3.8000  -2753.87422
   10     3.9000  -2753.87422
   11     4.0000  -2753.87422
   12     4.1000  -2753.87422
   13     4.2000  -2753.87422
   14     4.3000  -2753.87422
   15     4.4000  -2753.87422
   16     4.5000  -2753.87422
   17     4.6000  -2753.87422
   18     4.7000  -2753.87422
   19     4.8000  -2753.87422
   20     4.9000  -2753.87422
   21     5.0000  -2753.87422
 ----  ---------  -----------
  
 Leave Link  108 at Sun May 10 12:46:00 2020, MaxMem= 1073741824 cpu:       0.0
 (Enter /home/matheus/.gaussian/g09/l9999.exe)
 1\1\GINC-REDGIANT\Scan\RwB97XD\Aug-CC-pVTZ\H2Kr1O2\MATHEUS\10-May-2020
 \1\\#p wb97xd/aug-cc-PVTz int=ultrafine counterpoise=2 Scan\\TCC\\0,1\
 O,0,0.,0.,0.725\O,0,0.,0.,-0.725\H,0,-0.9047631646,-0.1595341571,1.023
 5104166\H,0,0.,0.9187205947,-1.0235104166\Kr,0,0.,R1,0.\\R1=3.,s,20,0.
 1\\Version=EM64L-G09RevC.01\State=1-A\HF=-2753.8742199,-2753.8742199,-
 2753.8742199,-2753.8742199,-2753.8742199,-2753.8742199,-2753.8742199,-
 2753.8742199,-2753.8742199,-2753.8742199,-2753.8742199,-2753.8742199,-
 2753.8742199,-2753.8742199,-2753.8742199,-2753.8742199,-2753.8742199,-
 2753.8742199,-2753.8742199,-2753.8742199,-2753.8742199\RMSD=9.120e-09,
 1.920e-10,6.363e-11,4.203e-11,2.496e-11,1.570e-11,9.720e-12,6.056e-12,
 3.766e-12,2.335e-12,1.448e-12,9.067e-13,5.695e-13,3.549e-13,2.166e-13,
 1.345e-13,8.324e-14,5.188e-14,3.117e-14,1.952e-14,1.357e-14\PG=C01 [X(
 H2Kr1O2)]\\@


 YOU CANNOT THROW TO THE GROUND THE LETTERS OF
 THE GREEK ALPHABET AND PICK UP THE ILIAD.
        - RUFUS CHOATE, 1799-1859
 Job cpu time:  0 days  3 hours 14 minutes 58.1 seconds.
 File lengths (MBytes):  RWF=     33 Int=      0 D2E=      0 Chk=      8 Scr=      1
 Normal termination of Gaussian 09 at Sun May 10 12:46:00 2020.
