 Entering Gaussian System, Link 0=g09
 Input=/home/matheus/.tcc/Inputs/Inputs-wb97xd-default/H2O2-Kr_28.com
 Output=/home/matheus/.tcc/Logs/Logs-wb97xd-default/H2O2-Kr_28.log
 Initial command:
 /home/matheus/.gaussian/g09/l1.exe /home/matheus/.gaussian/g09/scratch/Gau-6556.inp -scrdir=/home/matheus/.gaussian/g09/scratch/
 Entering Link 1 = /home/matheus/.gaussian/g09/l1.exe PID=      6560.
  
 Copyright (c) 1988,1990,1992,1993,1995,1998,2003,2009,2011,
            Gaussian, Inc.  All Rights Reserved.
  
 This is part of the Gaussian(R) 09 program.  It is based on
 the Gaussian(R) 03 system (copyright 2003, Gaussian, Inc.),
 the Gaussian(R) 98 system (copyright 1998, Gaussian, Inc.),
 the Gaussian(R) 94 system (copyright 1995, Gaussian, Inc.),
 the Gaussian 92(TM) system (copyright 1992, Gaussian, Inc.),
 the Gaussian 90(TM) system (copyright 1990, Gaussian, Inc.),
 the Gaussian 88(TM) system (copyright 1988, Gaussian, Inc.),
 the Gaussian 86(TM) system (copyright 1986, Carnegie Mellon
 University), and the Gaussian 82(TM) system (copyright 1983,
 Carnegie Mellon University). Gaussian is a federally registered
 trademark of Gaussian, Inc.
  
 This software contains proprietary and confidential information,
 including trade secrets, belonging to Gaussian, Inc.
  
 This software is provided under written license and may be
 used, copied, transmitted, or stored only in accord with that
 written license.
  
 The following legend is applicable only to US Government
 contracts under FAR:
  
                    RESTRICTED RIGHTS LEGEND
  
 Use, reproduction and disclosure by the US Government is
 subject to restrictions as set forth in subparagraphs (a)
 and (c) of the Commercial Computer Software - Restricted
 Rights clause in FAR 52.227-19.
  
 Gaussian, Inc.
 340 Quinnipiac St., Bldg. 40, Wallingford CT 06492
  
  
 ---------------------------------------------------------------
 Warning -- This program may not be used in any manner that
 competes with the business of Gaussian, Inc. or will provide
 assistance to any competitor of Gaussian, Inc.  The licensee
 of this program is prohibited from giving any competitor of
 Gaussian, Inc. access to this program.  By using this program,
 the user acknowledges that Gaussian, Inc. is engaged in the
 business of creating and licensing software in the field of
 computational chemistry and represents and warrants to the
 licensee that it is not a competitor of Gaussian, Inc. and that
 it will not use this program in any manner prohibited above.
 ---------------------------------------------------------------
  

 Cite this work as:
 Gaussian 09, Revision C.01,
 M. J. Frisch, G. W. Trucks, H. B. Schlegel, G. E. Scuseria, 
 M. A. Robb, J. R. Cheeseman, G. Scalmani, V. Barone, B. Mennucci, 
 G. A. Petersson, H. Nakatsuji, M. Caricato, X. Li, H. P. Hratchian, 
 A. F. Izmaylov, J. Bloino, G. Zheng, J. L. Sonnenberg, M. Hada, 
 M. Ehara, K. Toyota, R. Fukuda, J. Hasegawa, M. Ishida, T. Nakajima, 
 Y. Honda, O. Kitao, H. Nakai, T. Vreven, J. A. Montgomery, Jr., 
 J. E. Peralta, F. Ogliaro, M. Bearpark, J. J. Heyd, E. Brothers, 
 K. N. Kudin, V. N. Staroverov, T. Keith, R. Kobayashi, J. Normand, 
 K. Raghavachari, A. Rendell, J. C. Burant, S. S. Iyengar, J. Tomasi, 
 M. Cossi, N. Rega, J. M. Millam, M. Klene, J. E. Knox, J. B. Cross, 
 V. Bakken, C. Adamo, J. Jaramillo, R. Gomperts, R. E. Stratmann, 
 O. Yazyev, A. J. Austin, R. Cammi, C. Pomelli, J. W. Ochterski, 
 R. L. Martin, K. Morokuma, V. G. Zakrzewski, G. A. Voth, 
 P. Salvador, J. J. Dannenberg, S. Dapprich, A. D. Daniels, 
 O. Farkas, J. B. Foresman, J. V. Ortiz, J. Cioslowski, 
 and D. J. Fox, Gaussian, Inc., Wallingford CT, 2010.
 
 ******************************************
 Gaussian 09:  EM64L-G09RevC.01 23-Sep-2011
                10-May-2020 
 ******************************************
 %mem=8GB
 %nproc=8
 Will use up to    8 processors via shared memory.
 -------------------------------------------------------
 #p wb97xd/aug-cc-PVTz int=ultrafine counterpoise=2 Scan
 -------------------------------------------------------
 1/38=1,60=1,62=2/1,8;
 2/12=2,17=6,18=5,29=3,40=1/2;
 1/38=1,53=5172,62=2/22;
 3/5=16,6=1,7=10,11=2,16=1,25=1,30=1,74=-58,75=-5/1,2,3;
 4//1;
 5/5=2,38=5/2;
 6/7=2,8=2,9=2,10=2,18=1,28=1/1;
 1/53=4052,62=2,63=1/22;
 3/5=7,6=11,7=10,11=2,16=1,25=1,30=1,74=-58,75=-5,82=7/1,2,3;
 4//1;
 5/5=2,38=5/2;
 6/7=2,8=2,9=2,10=2,18=1,28=1/1;
 1/53=3042,62=2,63=2/22;
 3/5=7,6=11,7=10,11=2,16=1,25=1,30=1,74=-58,75=-5,82=7/1,2,3;
 4//1;
 5/5=2,38=5/2;
 6/7=2,8=2,9=2,10=2,18=1,28=1/1;
 1/53=2032,62=2,63=3/22;
 3/5=7,6=11,7=10,11=2,16=1,25=1,30=1,74=-58,75=-5,82=7/1,2,3;
 4//1;
 5/5=2,38=5/2;
 6/7=2,8=2,9=2,10=2,18=1,28=1/1;
 1/53=1022,62=2,63=4/22;
 3/5=7,6=11,7=10,11=2,16=1,25=1,30=1,74=-58,75=-5,82=7/1,2,3;
 4//1;
 5/5=2,38=5/2;
 6/7=2,8=2,9=2,10=2,18=1,28=1/1;
 1/53=5014,62=2,63=5/22;
 1/60=1,62=2/8(1);
 99/9=1/99;
 2/29=3/2;
 1/53=5173,62=2/22;
 3/5=7,6=11,7=10,11=2,16=1,25=1,30=1,74=-58,75=-5,82=7/1,2,3;
 4/5=5,16=3/1;
 5/5=2,38=5/2;
 1/53=4053,62=2,63=1/22;
 3/5=7,6=11,7=10,11=2,16=1,25=1,30=1,74=-58,75=-5,82=7/1,2,3;
 4/5=5,16=3/1;
 5/5=2,38=5/2;
 1/53=3043,62=2,63=2/22;
 3/5=7,6=11,7=10,11=2,16=1,25=1,30=1,74=-58,75=-5,82=7/1,2,3;
 4/5=5,16=3/1;
 5/5=2,38=5/2;
 1/53=2033,62=2,63=3/22;
 3/5=7,6=11,7=10,11=2,16=1,25=1,30=1,74=-58,75=-5,82=7/1,2,3;
 4/5=5,16=3/1;
 5/5=2,38=5/2;
 1/53=1024,62=2,63=4/22;
 3/5=7,6=11,7=10,11=2,16=1,25=1,30=1,74=-58,75=-5,82=7/1,2,3;
 4/5=5,16=3/1;
 5/5=2,38=5/2;
 1/53=5014,62=2,63=5/22;
 1/60=1,62=2/8(-22);
 99/9=1/99;
 Leave Link    1 at Sun May 10 13:09:48 2020, MaxMem= 1073741824 cpu:       0.1
 (Enter /home/matheus/.gaussian/g09/l101.exe)
 ---
 TCC
 ---
 Charge =  0 Multiplicity = 1 in supermolecule
 Charge =  0 Multiplicity = 1 in fragment  1.
 Charge =  0 Multiplicity = 1 in fragment  2.
 Symbolic Z-Matrix:
 O(Fragment=1)         0.        0.        0.725 
 O(Fragment=1)         0.        0.       -0.725 
 H(Fragment=1)        -0.90476   0.15953   1.02351 
 H(Fragment=1)         0.        0.91872  -1.02351 
 Kr(Fragment=2)        0.       R1        0. 
       Variables:
  R1                    3.     Scan 20    0.1    
 
 NAtoms=      5 NQM=        0 NQMF=       0 NMMI=      5 NMMIF=      0
                NMic=       0 NMicF=      0.
                    Isotopes and Nuclear Properties:
 (Nuclear quadrupole moments (NQMom) in fm**2, nuclear magnetic moments (NMagM)
  in nuclear magnetons)

  Atom         1           2           3           4           5
 IAtWgt=          16          16           1           1          84
 AtmWgt=  15.9949146  15.9949146   1.0078250   1.0078250  83.9115064
 NucSpn=           0           0           1           1           0
 AtZEff=   0.0000000   0.0000000   0.0000000   0.0000000   0.0000000
 NQMom=    0.0000000   0.0000000   0.0000000   0.0000000   0.0000000
 NMagM=    0.0000000   0.0000000   2.7928460   2.7928460   0.0000000
 Leave Link  101 at Sun May 10 13:09:48 2020, MaxMem= 1073741824 cpu:       0.3
 (Enter /home/matheus/.gaussian/g09/l108.exe)
 Scan the potential surface.
 Variable   Value     No. Steps Step-Size
 -------- ----------- --------- ---------
     1       3.000000      20      0.1000
 A total of     21 points will be computed.
 Leave Link  108 at Sun May 10 13:09:48 2020, MaxMem= 1073741824 cpu:       0.0
 (Enter /home/matheus/.gaussian/g09/l202.exe)
 ---------------------------------------------------------------------------------------------------
                            Z-MATRIX (ANGSTROMS AND DEGREES)
   CD    Cent   Atom    N1       Length/X        N2       Alpha/Y        N3        Beta/Z          J
 ---------------------------------------------------------------------------------------------------
      1      1  O        0   0.000000          0.000000          0.725000
      2      2  O        0   0.000000          0.000000         -0.725000
      3      3  H        0  -0.904763          0.159534          1.023510
      4      4  H        0   0.000000          0.918721         -1.023510
      5      5  Kr       0   0.000000          3.000000          0.000000
 ---------------------------------------------------------------------------------------------------
                         Z-Matrix orientation:                         
 ---------------------------------------------------------------------
 Center     Atomic      Atomic             Coordinates (Angstroms)
 Number     Number       Type             X           Y           Z
 ---------------------------------------------------------------------
      1          8           0        0.000000    0.000000    0.725000
      2          8           0        0.000000    0.000000   -0.725000
      3          1           0       -0.904763    0.159534    1.023510
      4          1           0        0.000000    0.918721   -1.023510
      5         36           0        0.000000    3.000000    0.000000
 ---------------------------------------------------------------------
                    Distance matrix (angstroms):
                    1          2          3          4          5
     1  O    0.000000
     2  O    1.450000   0.000000
     3  H    0.966000   1.975180   0.000000
     4  H    1.975180   0.966000   2.363314   0.000000
     5  Kr   3.086361   3.086361   3.151891   2.319331   0.000000
 Stoichiometry    H2KrO2
 Framework group  C1[X(H2KrO2)]
 Deg. of freedom     9
 Full point group                 C1      NOp   1
 Largest Abelian subgroup         C1      NOp   1
 Largest concise Abelian subgroup C1      NOp   1
                         Standard orientation:                         
 ---------------------------------------------------------------------
 Center     Atomic      Atomic             Coordinates (Angstroms)
 Number     Number       Type             X           Y           Z
 ---------------------------------------------------------------------
      1          8           0       -2.025459   -0.700316   -0.115097
      2          8           0       -2.013251    0.743386    0.019343
      3          1           0       -1.883208   -1.082864    0.760447
      4          1           0       -1.092171    1.031511    0.061209
      5         36           0        0.980140   -0.008145   -0.001545
 ---------------------------------------------------------------------
 Rotational constants (GHZ):     25.6204873      2.3529019      2.1689661
 Leave Link  202 at Sun May 10 13:09:48 2020, MaxMem= 1073741824 cpu:       0.0
 (Enter /home/matheus/.gaussian/g09/l122.exe)
 Leave Link  122 at Sun May 10 13:09:48 2020, MaxMem= 1073741824 cpu:       0.0
 (Enter /home/matheus/.gaussian/g09/l301.exe)
 Standard basis: Aug-CC-pVTZ (5D, 7F)
 Ernie: Thresh=  0.10000D-02 Tol=  0.10000D-05 Strict=F.
 Ernie:  38 primitive shells out of 205 were deleted.
 There are   197 symmetry adapted basis functions of A   symmetry.
 Integral buffers will be    131072 words long.
 Raffenetti 2 integral format.
 Two-electron integral symmetry is turned on.
   197 basis functions,   415 primitive gaussians,   229 cartesian basis functions
    27 alpha electrons       27 beta electrons
       nuclear repulsion energy       149.6490473971 Hartrees.
 IExCor= 4639 DFT=T Ex+Corr=wB97XD ExCW=0 ScaHFX=  1.000000
 ScaDFX=  1.000000  1.000000  1.000000  1.000000 ScalE2=  1.000000  1.000000
 IRadAn=      5 IRanWt=     -1 IRanGd=            0 ICorTp=0
  HFx wShort=  0.000000 wLong=  0.200000 cFull=  0.222036 cShort=  0.000000 cLong=  0.777964
  DFx wShort=  0.000000 wLong=  0.200000 cFull=  0.000000 cShort=  0.000000 cLong=  1.000000
 NAtoms=    5 NActive=    5 NUniq=    5 SFac= 1.00D+00 NAtFMM=   60 NAOKFM=F Big=F
 R6Disp: Dispersion energy =        -0.0009616899 Hartrees.
 Nuclear repulsion after empirical dispersion term =      149.6480857072 Hartrees.
 Leave Link  301 at Sun May 10 13:09:48 2020, MaxMem= 1073741824 cpu:       0.2
 (Enter /home/matheus/.gaussian/g09/l302.exe)
 NPDir=0 NMtPBC=     1 NCelOv=     1 NCel=       1 NClECP=     1 NCelD=      1
         NCelK=      1 NCelE2=     1 NClLst=     1 CellRange=     0.0.
 One-electron integrals computed using PRISM.
 NBasis=   197 RedAO= T  NBF=   197
 NBsUse=   197 1.00D-06 NBFU=   197
 Precomputing XC quadrature grid using
 IXCGrd= 2 IRadAn=           5 IRanWt=          -1 IRanGd=           0 AccXCQ= 0.00D+00.
 NRdTot=     427 NPtTot=      123512 NUsed=      126579 NTot=      126611
 NSgBfM=   229   229   229   229   229 NAtAll=     5     5.
 Leave Link  302 at Sun May 10 13:09:48 2020, MaxMem= 1073741824 cpu:       1.1
 (Enter /home/matheus/.gaussian/g09/l303.exe)
 DipDrv:  MaxL=1.
 Leave Link  303 at Sun May 10 13:09:49 2020, MaxMem= 1073741824 cpu:       0.2
 (Enter /home/matheus/.gaussian/g09/l401.exe)
 Harris functional with IExCor= 4639 diagonalized for initial guess.
 ExpMin= 2.53D-02 ExpMax= 1.17D+07 ExpMxC= 1.33D+04 IAcc=3 IRadAn=         5 AccDes= 0.00D+00
 HarFok:  IExCor= 4639 AccDes= 0.00D+00 IRadAn=         5 IDoV= 1
 ScaDFX=  1.000000  1.000000  1.000000  1.000000
 FoFCou: FMM=F IPFlag=           0 FMFlag=      100000 FMFlg1=           0
         NFxFlg=           0 DoJE=T BraDBF=F KetDBF=T FulRan=T
         Omega=  0.000000  0.000000  1.000000  0.000000  0.000000 ICntrl=     500 IOpCl=  0
         NMat0=    1 NMatS0=    1 NMatT0=    0 NMatD0=    1 NMtDS0=    0 NMtDT0=    0
         I1Cent=           4 NGrid=           0.
 Petite list used in FoFCou.
 Harris En= -2876.49020853826    
 Initial guess orbital symmetries:
       Occupied  (A) (A) (A) (A) (A) (A) (A) (A) (A) (A) (A) (A)
                 (A) (A) (A) (A) (A) (A) (A) (A) (A) (A) (A) (A)
                 (A) (A) (A)
       Virtual   (A) (A) (A) (A) (A) (A) (A) (A) (A) (A) (A) (A)
                 (A) (A) (A) (A) (A) (A) (A) (A) (A) (A) (A) (A)
                 (A) (A) (A) (A) (A) (A) (A) (A) (A) (A) (A) (A)
                 (A) (A) (A) (A) (A) (A) (A) (A) (A) (A) (A) (A)
                 (A) (A) (A) (A) (A) (A) (A) (A) (A) (A) (A) (A)
                 (A) (A) (A) (A) (A) (A) (A) (A) (A) (A) (A) (A)
                 (A) (A) (A) (A) (A) (A) (A) (A) (A) (A) (A) (A)
                 (A) (A) (A) (A) (A) (A) (A) (A) (A) (A) (A) (A)
                 (A) (A) (A) (A) (A) (A) (A) (A) (A) (A) (A) (A)
                 (A) (A) (A) (A) (A) (A) (A) (A) (A) (A) (A) (A)
                 (A) (A) (A) (A) (A) (A) (A) (A) (A) (A) (A) (A)
                 (A) (A) (A) (A) (A) (A) (A) (A) (A) (A) (A) (A)
                 (A) (A) (A) (A) (A) (A) (A) (A) (A) (A) (A) (A)
                 (A) (A) (A) (A) (A) (A) (A) (A) (A) (A) (A) (A)
                 (A) (A)
 The electronic state of the initial guess is 1-A.
 Leave Link  401 at Sun May 10 13:09:49 2020, MaxMem= 1073741824 cpu:       4.3
 (Enter /home/matheus/.gaussian/g09/l502.exe)
 Closed shell SCF:
 Requested convergence on RMS density matrix=1.00D-08 within 128 cycles.
 Requested convergence on MAX density matrix=1.00D-06.
 Requested convergence on             energy=1.00D-06.
 No special actions if energy rises.
 Using DIIS extrapolation, IDIIS=  1040.
 Integral symmetry usage will be decided dynamically.
       126521 words used for storage of precomputed grid.
 IEnd=      305468 IEndB=      305468 NGot=  1073741824 MDV=  1073505667
 LenX=  1073505667 LenY=  1073452785
 Fock matrices will be formed incrementally for  20 cycles.

 Cycle   1  Pass 1  IDiag  1:
 FoFJK:  IHMeth= 1 ICntrl=     0 DoSepK=T KAlg= 1 I1Cent= 0 FoldK=F
 FoFCou: FMM=F IPFlag=           0 FMFlag=      100000 FMFlg1=           0
         NFxFlg=           0 DoJE=T BraDBF=F KetDBF=F FulRan=T
         Omega=  0.000000  0.000000  1.000000  0.000000  0.000000 ICntrl=     500 IOpCl=  0
         NMat0=    1 NMatS0=    1 NMatT0=    0 NMatD0=    1 NMtDS0=    0 NMtDT0=    0
         I1Cent=           0 NGrid=           0.
 Symmetry not used in FoFCou.
 E= -2904.93562991607    
 DIIS: error= 5.99D-02 at cycle   1 NSaved=   1.
 NSaved= 1 IEnMin= 1 EnMin= -2904.93562991607     IErMin= 1 ErrMin= 5.99D-02
 ErrMax= 5.99D-02 EMaxC= 1.00D-01 BMatC= 2.17D+00 BMatP= 2.17D+00
 IDIUse=3 WtCom= 4.01D-01 WtEn= 5.99D-01
 Coeff-Com:  0.100D+01
 Coeff-En:   0.100D+01
 Coeff:      0.100D+01
 Gap=     0.527 Goal=   None    Shift=    0.000
 GapD=    0.527 DampG=2.000 DampE=0.500 DampFc=1.0000 IDamp=-1.
 RMSDP=6.11D-03 MaxDP=3.66D-01              OVMax= 1.78D-01

 Cycle   2  Pass 1  IDiag  1:
 RMSU=  4.29D-03    CP:  1.03D+00
 FoFJK:  IHMeth= 1 ICntrl=     0 DoSepK=T KAlg= 1 I1Cent= 0 FoldK=F
 E= -2905.23006615136     Delta-E=       -0.294436235288 Rises=F Damp=F
 DIIS: error= 2.81D-02 at cycle   2 NSaved=   2.
 NSaved= 2 IEnMin= 2 EnMin= -2905.23006615136     IErMin= 2 ErrMin= 2.81D-02
 ErrMax= 2.81D-02 EMaxC= 1.00D-01 BMatC= 5.63D-01 BMatP= 2.17D+00
 IDIUse=3 WtCom= 7.19D-01 WtEn= 2.81D-01
 Coeff-Com:  0.330D+00 0.670D+00
 Coeff-En:   0.216D+00 0.784D+00
 Coeff:      0.298D+00 0.702D+00
 Gap=     0.474 Goal=   None    Shift=    0.000
 RMSDP=2.68D-03 MaxDP=1.56D-01 DE=-2.94D-01 OVMax= 7.64D-02

 Cycle   3  Pass 1  IDiag  1:
 RMSU=  5.46D-04    CP:  1.02D+00  5.79D-01
 FoFJK:  IHMeth= 1 ICntrl=     0 DoSepK=T KAlg= 1 I1Cent= 0 FoldK=F
 E= -2905.42238074197     Delta-E=       -0.192314590609 Rises=F Damp=F
 DIIS: error= 5.85D-03 at cycle   3 NSaved=   3.
 NSaved= 3 IEnMin= 3 EnMin= -2905.42238074197     IErMin= 3 ErrMin= 5.85D-03
 ErrMax= 5.85D-03 EMaxC= 1.00D-01 BMatC= 1.73D-02 BMatP= 5.63D-01
 IDIUse=3 WtCom= 9.42D-01 WtEn= 5.85D-02
 Coeff-Com:  0.368D-01 0.188D+00 0.776D+00
 Coeff-En:   0.000D+00 0.000D+00 0.100D+01
 Coeff:      0.347D-01 0.177D+00 0.789D+00
 Gap=     0.434 Goal=   None    Shift=    0.000
 RMSDP=4.90D-04 MaxDP=2.11D-02 DE=-1.92D-01 OVMax= 2.62D-02

 Cycle   4  Pass 1  IDiag  1:
 RMSU=  2.42D-04    CP:  1.02D+00  6.35D-01  8.81D-01
 FoFJK:  IHMeth= 1 ICntrl=     0 DoSepK=T KAlg= 1 I1Cent= 0 FoldK=F
 E= -2905.43018801103     Delta-E=       -0.007807269057 Rises=F Damp=F
 DIIS: error= 2.35D-03 at cycle   4 NSaved=   4.
 NSaved= 4 IEnMin= 4 EnMin= -2905.43018801103     IErMin= 4 ErrMin= 2.35D-03
 ErrMax= 2.35D-03 EMaxC= 1.00D-01 BMatC= 2.07D-03 BMatP= 1.73D-02
 IDIUse=3 WtCom= 9.77D-01 WtEn= 2.35D-02
 Coeff-Com: -0.877D-03 0.510D-01 0.383D+00 0.567D+00
 Coeff-En:   0.000D+00 0.000D+00 0.000D+00 0.100D+01
 Coeff:     -0.856D-03 0.498D-01 0.374D+00 0.577D+00
 Gap=     0.419 Goal=   None    Shift=    0.000
 RMSDP=1.34D-04 MaxDP=7.83D-03 DE=-7.81D-03 OVMax= 7.40D-03

 Cycle   5  Pass 1  IDiag  1:
 RMSU=  3.84D-05    CP:  1.02D+00  6.32D-01  9.24D-01  6.63D-01
 FoFJK:  IHMeth= 1 ICntrl=     0 DoSepK=T KAlg= 1 I1Cent= 0 FoldK=F
 E= -2905.43144707448     Delta-E=       -0.001259063454 Rises=F Damp=F
 DIIS: error= 2.99D-04 at cycle   5 NSaved=   5.
 NSaved= 5 IEnMin= 5 EnMin= -2905.43144707448     IErMin= 5 ErrMin= 2.99D-04
 ErrMax= 2.99D-04 EMaxC= 1.00D-01 BMatC= 2.85D-05 BMatP= 2.07D-03
 IDIUse=3 WtCom= 9.97D-01 WtEn= 2.99D-03
 Coeff-Com: -0.101D-02 0.150D-01 0.130D+00 0.213D+00 0.643D+00
 Coeff-En:   0.000D+00 0.000D+00 0.000D+00 0.000D+00 0.100D+01
 Coeff:     -0.101D-02 0.150D-01 0.129D+00 0.212D+00 0.645D+00
 Gap=     0.418 Goal=   None    Shift=    0.000
 RMSDP=2.12D-05 MaxDP=1.00D-03 DE=-1.26D-03 OVMax= 1.60D-03

 Cycle   6  Pass 1  IDiag  1:
 RMSU=  1.45D-05    CP:  1.02D+00  6.32D-01  9.29D-01  6.73D-01  1.01D+00
 FoFJK:  IHMeth= 1 ICntrl=     0 DoSepK=T KAlg= 1 I1Cent= 0 FoldK=F
 E= -2905.43146130980     Delta-E=       -0.000014235315 Rises=F Damp=F
 DIIS: error= 1.62D-04 at cycle   6 NSaved=   6.
 NSaved= 6 IEnMin= 6 EnMin= -2905.43146130980     IErMin= 6 ErrMin= 1.62D-04
 ErrMax= 1.62D-04 EMaxC= 1.00D-01 BMatC= 9.01D-06 BMatP= 2.85D-05
 IDIUse=3 WtCom= 9.98D-01 WtEn= 1.62D-03
 Coeff-Com: -0.388D-03-0.488D-02-0.241D-01-0.296D-01 0.359D+00 0.700D+00
 Coeff-En:   0.000D+00 0.000D+00 0.000D+00 0.000D+00 0.192D+00 0.808D+00
 Coeff:     -0.388D-03-0.488D-02-0.241D-01-0.295D-01 0.359D+00 0.700D+00
 Gap=     0.418 Goal=   None    Shift=    0.000
 RMSDP=1.11D-05 MaxDP=4.47D-04 DE=-1.42D-05 OVMax= 6.80D-04

 Cycle   7  Pass 1  IDiag  1:
 RMSU=  3.89D-06    CP:  1.02D+00  6.32D-01  9.35D-01  6.77D-01  1.15D+00
                    CP:  8.52D-01
 FoFJK:  IHMeth= 1 ICntrl=     0 DoSepK=T KAlg= 1 I1Cent= 0 FoldK=F
 E= -2905.43146775424     Delta-E=       -0.000006444448 Rises=F Damp=F
 DIIS: error= 1.36D-05 at cycle   7 NSaved=   7.
 NSaved= 7 IEnMin= 7 EnMin= -2905.43146775424     IErMin= 7 ErrMin= 1.36D-05
 ErrMax= 1.36D-05 EMaxC= 1.00D-01 BMatC= 7.84D-08 BMatP= 9.01D-06
 IDIUse=1 WtCom= 1.00D+00 WtEn= 0.00D+00
 Coeff-Com: -0.149D-05-0.132D-02-0.924D-02-0.132D-01 0.920D-02 0.917D-01
 Coeff-Com:  0.923D+00
 Coeff:     -0.149D-05-0.132D-02-0.924D-02-0.132D-01 0.920D-02 0.917D-01
 Coeff:      0.923D+00
 Gap=     0.418 Goal=   None    Shift=    0.000
 RMSDP=2.10D-06 MaxDP=6.55D-05 DE=-6.44D-06 OVMax= 1.79D-04

 Cycle   8  Pass 1  IDiag  1:
 RMSU=  8.73D-07    CP:  1.02D+00  6.32D-01  9.35D-01  6.78D-01  1.17D+00
                    CP:  8.97D-01  1.14D+00
 FoFJK:  IHMeth= 1 ICntrl=     0 DoSepK=T KAlg= 1 I1Cent= 0 FoldK=F
 E= -2905.43146788960     Delta-E=       -0.000000135361 Rises=F Damp=F
 DIIS: error= 3.27D-06 at cycle   8 NSaved=   8.
 NSaved= 8 IEnMin= 8 EnMin= -2905.43146788960     IErMin= 8 ErrMin= 3.27D-06
 ErrMax= 3.27D-06 EMaxC= 1.00D-01 BMatC= 4.35D-09 BMatP= 7.84D-08
 IDIUse=1 WtCom= 1.00D+00 WtEn= 0.00D+00
 Coeff-Com:  0.193D-04 0.130D-03 0.435D-03 0.318D-03-0.193D-01-0.299D-01
 Coeff-Com:  0.516D-01 0.997D+00
 Coeff:      0.193D-04 0.130D-03 0.435D-03 0.318D-03-0.193D-01-0.299D-01
 Coeff:      0.516D-01 0.997D+00
 Gap=     0.418 Goal=   None    Shift=    0.000
 RMSDP=6.64D-07 MaxDP=1.57D-05 DE=-1.35D-07 OVMax= 6.98D-05

 Cycle   9  Pass 1  IDiag  1:
 RMSU=  2.26D-07    CP:  1.02D+00  6.32D-01  9.35D-01  6.78D-01  1.17D+00
                    CP:  9.05D-01  1.20D+00  1.30D+00
 FoFJK:  IHMeth= 1 ICntrl=     0 DoSepK=T KAlg= 1 I1Cent= 0 FoldK=F
 E= -2905.43146790096     Delta-E=       -0.000000011352 Rises=F Damp=F
 DIIS: error= 1.30D-06 at cycle   9 NSaved=   9.
 NSaved= 9 IEnMin= 9 EnMin= -2905.43146790096     IErMin= 9 ErrMin= 1.30D-06
 ErrMax= 1.30D-06 EMaxC= 1.00D-01 BMatC= 3.81D-10 BMatP= 4.35D-09
 IDIUse=1 WtCom= 1.00D+00 WtEn= 0.00D+00
 Coeff-Com: -0.592D-06 0.763D-04 0.561D-03 0.631D-03-0.100D-02-0.481D-02
 Coeff-Com: -0.511D-01-0.414D-01 0.110D+01
 Coeff:     -0.592D-06 0.763D-04 0.561D-03 0.631D-03-0.100D-02-0.481D-02
 Coeff:     -0.511D-01-0.414D-01 0.110D+01
 Gap=     0.418 Goal=   None    Shift=    0.000
 RMSDP=2.33D-07 MaxDP=6.72D-06 DE=-1.14D-08 OVMax= 2.99D-05

 Cycle  10  Pass 1  IDiag  1:
 RMSU=  8.27D-08    CP:  1.02D+00  6.32D-01  9.35D-01  6.78D-01  1.17D+00
                    CP:  9.06D-01  1.21D+00  1.41D+00  1.35D+00
 FoFJK:  IHMeth= 1 ICntrl=     0 DoSepK=T KAlg= 1 I1Cent= 0 FoldK=F
 E= -2905.43146790225     Delta-E=       -0.000000001292 Rises=F Damp=F
 DIIS: error= 3.11D-07 at cycle  10 NSaved=  10.
 NSaved=10 IEnMin=10 EnMin= -2905.43146790225     IErMin=10 ErrMin= 3.11D-07
 ErrMax= 3.11D-07 EMaxC= 1.00D-01 BMatC= 4.58D-11 BMatP= 3.81D-10
 IDIUse=1 WtCom= 1.00D+00 WtEn= 0.00D+00
 Coeff-Com: -0.122D-05-0.279D-05 0.936D-05 0.554D-05 0.169D-02 0.272D-02
 Coeff-Com: -0.509D-02-0.117D+00 0.151D+00 0.967D+00
 Coeff:     -0.122D-05-0.279D-05 0.936D-05 0.554D-05 0.169D-02 0.272D-02
 Coeff:     -0.509D-02-0.117D+00 0.151D+00 0.967D+00
 Gap=     0.418 Goal=   None    Shift=    0.000
 RMSDP=7.23D-08 MaxDP=1.49D-06 DE=-1.29D-09 OVMax= 9.83D-06

 Cycle  11  Pass 1  IDiag  1:
 RMSU=  1.99D-08    CP:  1.02D+00  6.32D-01  9.35D-01  6.78D-01  1.17D+00
                    CP:  9.06D-01  1.21D+00  1.43D+00  1.51D+00  1.29D+00
 FoFJK:  IHMeth= 1 ICntrl=     0 DoSepK=T KAlg= 1 I1Cent= 0 FoldK=F
 E= -2905.43146790236     Delta-E=       -0.000000000115 Rises=F Damp=F
 DIIS: error= 1.10D-07 at cycle  11 NSaved=  11.
 NSaved=11 IEnMin=11 EnMin= -2905.43146790236     IErMin=11 ErrMin= 1.10D-07
 ErrMax= 1.10D-07 EMaxC= 1.00D-01 BMatC= 3.78D-12 BMatP= 4.58D-11
 IDIUse=1 WtCom= 1.00D+00 WtEn= 0.00D+00
 Coeff-Com:  0.373D-06-0.551D-05-0.504D-04-0.401D-04-0.126D-04 0.295D-03
 Coeff-Com:  0.592D-02 0.167D-02-0.977D-01-0.553D-01 0.115D+01
 Coeff:      0.373D-06-0.551D-05-0.504D-04-0.401D-04-0.126D-04 0.295D-03
 Coeff:      0.592D-02 0.167D-02-0.977D-01-0.553D-01 0.115D+01
 Gap=     0.418 Goal=   None    Shift=    0.000
 RMSDP=2.59D-08 MaxDP=5.40D-07 DE=-1.15D-10 OVMax= 3.53D-06

 Cycle  12  Pass 1  IDiag  1:
 RMSU=  5.06D-09    CP:  1.02D+00  6.32D-01  9.35D-01  6.78D-01  1.17D+00
                    CP:  9.06D-01  1.21D+00  1.43D+00  1.55D+00  1.45D+00
                    CP:  1.29D+00
 FoFJK:  IHMeth= 1 ICntrl=     0 DoSepK=T KAlg= 1 I1Cent= 0 FoldK=F
 E= -2905.43146790240     Delta-E=       -0.000000000035 Rises=F Damp=F
 DIIS: error= 2.13D-08 at cycle  12 NSaved=  12.
 NSaved=12 IEnMin=12 EnMin= -2905.43146790240     IErMin=12 ErrMin= 2.13D-08
 ErrMax= 2.13D-08 EMaxC= 1.00D-01 BMatC= 1.43D-13 BMatP= 3.78D-12
 IDIUse=1 WtCom= 1.00D+00 WtEn= 0.00D+00
 Coeff-Com:  0.623D-08-0.380D-06-0.201D-05-0.416D-05-0.104D-03-0.164D-03
 Coeff-Com:  0.425D-03 0.562D-02-0.245D-02-0.450D-01-0.721D-01 0.111D+01
 Coeff:      0.623D-08-0.380D-06-0.201D-05-0.416D-05-0.104D-03-0.164D-03
 Coeff:      0.425D-03 0.562D-02-0.245D-02-0.450D-01-0.721D-01 0.111D+01
 Gap=     0.418 Goal=   None    Shift=    0.000
 RMSDP=5.39D-09 MaxDP=1.62D-07 DE=-3.50D-11 OVMax= 6.19D-07

 SCF Done:  E(RwB97XD) =  -2905.43146790     A.U. after   12 cycles
             Convg  =    0.5391D-08             -V/T =  2.0015
 KE= 2.900990776309D+03 PE=-7.237416865819D+03 EE= 1.281346535900D+03
 Leave Link  502 at Sun May 10 13:10:27 2020, MaxMem= 1073741824 cpu:     305.6
 (Enter /home/matheus/.gaussian/g09/l601.exe)
 Copying SCF densities to generalized density rwf, IOpCl= 0 IROHF=0.

 **********************************************************************

            Population analysis using the SCF density.

 **********************************************************************

 Orbital symmetries:
       Occupied  (A) (A) (A) (A) (A) (A) (A) (A) (A) (A) (A) (A)
                 (A) (A) (A) (A) (A) (A) (A) (A) (A) (A) (A) (A)
                 (A) (A) (A)
       Virtual   (A) (A) (A) (A) (A) (A) (A) (A) (A) (A) (A) (A)
                 (A) (A) (A) (A) (A) (A) (A) (A) (A) (A) (A) (A)
                 (A) (A) (A) (A) (A) (A) (A) (A) (A) (A) (A) (A)
                 (A) (A) (A) (A) (A) (A) (A) (A) (A) (A) (A) (A)
                 (A) (A) (A) (A) (A) (A) (A) (A) (A) (A) (A) (A)
                 (A) (A) (A) (A) (A) (A) (A) (A) (A) (A) (A) (A)
                 (A) (A) (A) (A) (A) (A) (A) (A) (A) (A) (A) (A)
                 (A) (A) (A) (A) (A) (A) (A) (A) (A) (A) (A) (A)
                 (A) (A) (A) (A) (A) (A) (A) (A) (A) (A) (A) (A)
                 (A) (A) (A) (A) (A) (A) (A) (A) (A) (A) (A) (A)
                 (A) (A) (A) (A) (A) (A) (A) (A) (A) (A) (A) (A)
                 (A) (A) (A) (A) (A) (A) (A) (A) (A) (A) (A) (A)
                 (A) (A) (A) (A) (A) (A) (A) (A) (A) (A) (A) (A)
                 (A) (A) (A) (A) (A) (A) (A) (A) (A) (A) (A) (A)
                 (A) (A)
 The electronic state is 1-A.
 Alpha  occ. eigenvalues -- -513.07673 -67.34358 -60.89242 -60.89230 -60.89222
 Alpha  occ. eigenvalues --  -19.31904 -19.31536  -9.79668  -7.48997  -7.48958
 Alpha  occ. eigenvalues --   -7.48932  -3.35736  -3.35729  -3.35708  -3.35677
 Alpha  occ. eigenvalues --   -3.35674  -1.22249  -1.01082  -1.00265  -0.65695
 Alpha  occ. eigenvalues --   -0.56443  -0.52180  -0.48688  -0.48351  -0.47438
 Alpha  occ. eigenvalues --   -0.40496  -0.38418
 Alpha virt. eigenvalues --    0.03375   0.04228   0.08027   0.09308   0.10158
 Alpha virt. eigenvalues --    0.11823   0.12992   0.14079   0.17144   0.17543
 Alpha virt. eigenvalues --    0.17940   0.18881   0.20211   0.22184   0.22981
 Alpha virt. eigenvalues --    0.24112   0.25159   0.27377   0.30024   0.32027
 Alpha virt. eigenvalues --    0.33641   0.34927   0.36573   0.38070   0.38497
 Alpha virt. eigenvalues --    0.40075   0.41963   0.46782   0.51296   0.53436
 Alpha virt. eigenvalues --    0.54294   0.58721   0.60603   0.62751   0.66811
 Alpha virt. eigenvalues --    0.69449   0.70105   0.71906   0.73834   0.74029
 Alpha virt. eigenvalues --    0.75200   0.75704   0.77272   0.78888   0.81196
 Alpha virt. eigenvalues --    0.82302   0.85181   0.87049   0.88561   0.89191
 Alpha virt. eigenvalues --    0.90577   0.90957   0.93975   0.94274   0.96579
 Alpha virt. eigenvalues --    0.98217   1.01366   1.03174   1.04712   1.06193
 Alpha virt. eigenvalues --    1.08572   1.13357   1.16449   1.20667   1.22590
 Alpha virt. eigenvalues --    1.23808   1.27373   1.33163   1.35242   1.37974
 Alpha virt. eigenvalues --    1.41693   1.46498   1.48453   1.52533   1.57512
 Alpha virt. eigenvalues --    1.66690   1.68045   1.80560   1.89692   1.92242
 Alpha virt. eigenvalues --    1.97411   2.00472   2.02315   2.07211   2.12497
 Alpha virt. eigenvalues --    2.14297   2.15637   2.18429   2.21300   2.22597
 Alpha virt. eigenvalues --    2.24151   2.26965   2.27832   2.28575   2.29891
 Alpha virt. eigenvalues --    2.34294   2.36357   2.42883   2.44840   2.45412
 Alpha virt. eigenvalues --    2.45955   2.47305   2.49295   2.53496   2.54401
 Alpha virt. eigenvalues --    2.57081   2.60173   2.63156   2.67083   2.69000
 Alpha virt. eigenvalues --    2.69712   2.72306   2.73887   2.81308   2.85833
 Alpha virt. eigenvalues --    2.92685   3.01300   3.08268   3.10045   3.59050
 Alpha virt. eigenvalues --    3.63748   3.89800   3.91941   3.97960   4.06909
 Alpha virt. eigenvalues --    4.10752   4.13681   4.19625   4.22195   4.26838
 Alpha virt. eigenvalues --    4.31787   4.47755   4.48823   4.55157   4.68798
 Alpha virt. eigenvalues --    4.90251   4.94223   4.96941   5.13057   5.13512
 Alpha virt. eigenvalues --    5.17587   5.41823   5.83077   6.01029   6.12184
 Alpha virt. eigenvalues --    6.19405   6.23728   6.28615   6.41605   6.46662
 Alpha virt. eigenvalues --    6.58546   6.75098   6.75649   6.79841   6.82875
 Alpha virt. eigenvalues --    6.87042   6.88403   6.91241   6.95618   6.99049
 Alpha virt. eigenvalues --    7.05829   7.11179   7.21866   7.44195   7.55641
 Alpha virt. eigenvalues --    7.77589   8.08414   8.11067  14.09800  14.66168
          Condensed to atoms (all electrons):
              1          2          3          4          5
     1  O    8.206686  -0.187370   0.201747   0.008811  -0.016232
     2  O   -0.187370   8.295112   0.014493   0.162376  -0.020927
     3  H    0.201747   0.014493   0.561700   0.000607  -0.001875
     4  H    0.008811   0.162376   0.000607   0.584153  -0.004426
     5  Kr  -0.016232  -0.020927  -0.001875  -0.004426  36.037939
 Mulliken atomic charges:
              1
     1  O   -0.213642
     2  O   -0.263684
     3  H    0.223328
     4  H    0.248478
     5  Kr   0.005520
 Sum of Mulliken atomic charges =   0.00000
 Mulliken charges with hydrogens summed into heavy atoms:
              1
     1  O    0.009685
     2  O   -0.015205
     5  Kr   0.005520
 Sum of Mulliken charges with hydrogens summed into heavy atoms =   0.00000
          Condensed to fragments (all electrons):
     1      -0.005520
     2       0.005520
 Electronic spatial extent (au):  <R**2>=            482.4083
 Charge=              0.0000 electrons
 Dipole moment (field-independent basis, Debye):
    X=              2.0268    Y=             -0.3711    Z=              1.4178  Tot=              2.5011
 Quadrupole moment (field-independent basis, Debye-Ang):
   XX=            -35.6030   YY=            -27.8311   ZZ=            -29.0015
   XY=              1.8833   XZ=             -2.8170   YZ=             -1.7966
 Traceless Quadrupole moment (field-independent basis, Debye-Ang):
   XX=             -4.7911   YY=              2.9807   ZZ=              1.8104
   XY=              1.8833   XZ=             -2.8170   YZ=             -1.7966
 Octapole moment (field-independent basis, Debye-Ang**2):
  XXX=             37.0569  YYY=             -1.0152  ZZZ=              1.0594  XYY=              5.3808
  XXY=             -5.5795  XXZ=              4.8320  XZZ=              5.5867  YZZ=             -1.8279
  YYZ=              2.2212  XYZ=              3.4985
 Hexadecapole moment (field-independent basis, Debye-Ang**3):
 XXXX=           -455.2760 YYYY=            -62.7285 ZZZZ=            -29.6599 XXXY=             10.8662
 XXXZ=             -9.6234 YYYX=              3.5217 YYYZ=             -2.6368 ZZZX=             -2.5254
 ZZZY=             -1.9160 XXYY=            -81.2626 XXZZ=            -72.0602 YYZZ=            -15.8434
 XXYZ=             -6.9337 YYXZ=             -4.2133 ZZXY=              3.3183
 N-N= 1.496480857072D+02 E-N=-7.237416862484D+03  KE= 2.900990776309D+03
 No NMR shielding tensors so no spin-rotation constants.
 Leave Link  601 at Sun May 10 13:10:27 2020, MaxMem= 1073741824 cpu:       0.8
 (Enter /home/matheus/.gaussian/g09/l122.exe)
 Counterpoise: doing DCBS calculation for fragment   1 NewBq=T
 Leave Link  122 at Sun May 10 13:10:28 2020, MaxMem= 1073741824 cpu:       0.0
 (Enter /home/matheus/.gaussian/g09/l301.exe)
 Basis read from rwf:  (5D, 7F)
 No pseudopotential information found on rwf file.
 There are   197 symmetry adapted basis functions of A   symmetry.
 Integral buffers will be    131072 words long.
 Raffenetti 2 integral format.
 Two-electron integral symmetry is turned on.
   197 basis functions,   415 primitive gaussians,   229 cartesian basis functions
     9 alpha electrons        9 beta electrons
       nuclear repulsion energy        36.6321546607 Hartrees.
 IExCor= 4639 DFT=T Ex+Corr=wB97XD ExCW=0 ScaHFX=  1.000000
 ScaDFX=  1.000000  1.000000  1.000000  1.000000 ScalE2=  1.000000  1.000000
 IRadAn=      5 IRanWt=     -1 IRanGd=            0 ICorTp=0
  HFx wShort=  0.000000 wLong=  0.200000 cFull=  0.222036 cShort=  0.000000 cLong=  0.777964
  DFx wShort=  0.000000 wLong=  0.200000 cFull=  0.000000 cShort=  0.000000 cLong=  1.000000
 NAtoms=    5 NActive=    5 NUniq=    5 SFac= 1.00D+00 NAtFMM=   60 NAOKFM=F Big=F
 R6Disp: Dispersion energy =        -0.0002567696 Hartrees.
 Nuclear repulsion after empirical dispersion term =       36.6318978911 Hartrees.
 No density basis found on file   718.
 Leave Link  301 at Sun May 10 13:10:28 2020, MaxMem= 1073741824 cpu:       0.2
 (Enter /home/matheus/.gaussian/g09/l302.exe)
 NPDir=0 NMtPBC=     1 NCelOv=     1 NCel=       1 NClECP=     1 NCelD=      1
         NCelK=      1 NCelE2=     1 NClLst=     1 CellRange=     0.0.
 One-electron integrals computed using PRISM.
 NBasis=   197 RedAO= T  NBF=   197
 NBsUse=   197 1.00D-06 NBFU=   197
 Precomputing XC quadrature grid using
 IXCGrd= 2 IRadAn=           5 IRanWt=          -1 IRanGd=           0 AccXCQ= 0.00D+00.
 NRdTot=     427 NPtTot=      123512 NUsed=      126579 NTot=      126611
 NSgBfM=   229   229   229   229   229 NAtAll=     5     5.
 Leave Link  302 at Sun May 10 13:10:28 2020, MaxMem= 1073741824 cpu:       0.9
 (Enter /home/matheus/.gaussian/g09/l303.exe)
 DipDrv:  MaxL=1.
 Leave Link  303 at Sun May 10 13:10:28 2020, MaxMem= 1073741824 cpu:       0.2
 (Enter /home/matheus/.gaussian/g09/l401.exe)
 Harris functional with IExCor= 4639 diagonalized for initial guess.
 ExpMin= 2.53D-02 ExpMax= 1.17D+07 ExpMxC= 1.33D+04 IAcc=3 IRadAn=         5 AccDes= 0.00D+00
 HarFok:  IExCor= 4639 AccDes= 0.00D+00 IRadAn=         5 IDoV= 1
 ScaDFX=  1.000000  1.000000  1.000000  1.000000
 FoFCou: FMM=F IPFlag=           0 FMFlag=      100000 FMFlg1=           0
         NFxFlg=           0 DoJE=T BraDBF=F KetDBF=T FulRan=T
         Omega=  0.000000  0.000000  1.000000  0.000000  0.000000 ICntrl=     500 IOpCl=  0
         NMat0=    1 NMatS0=    1 NMatT0=    0 NMatD0=    1 NMtDS0=    0 NMtDT0=    0
         I1Cent=           4 NGrid=           0.
 Petite list used in FoFCou.
 Harris En= -146.295751129509    
 Initial guess orbital symmetries:
       Occupied  (A) (A) (A) (A) (A) (A) (A) (A) (A)
       Virtual   (A) (A) (A) (A) (A) (A) (A) (A) (A) (A) (A) (A)
                 (A) (A) (A) (A) (A) (A) (A) (A) (A) (A) (A) (A)
                 (A) (A) (A) (A) (A) (A) (A) (A) (A) (A) (A) (A)
                 (A) (A) (A) (A) (A) (A) (A) (A) (A) (A) (A) (A)
                 (A) (A) (A) (A) (A) (A) (A) (A) (A) (A) (A) (A)
                 (A) (A) (A) (A) (A) (A) (A) (A) (A) (A) (A) (A)
                 (A) (A) (A) (A) (A) (A) (A) (A) (A) (A) (A) (A)
                 (A) (A) (A) (A) (A) (A) (A) (A) (A) (A) (A) (A)
                 (A) (A) (A) (A) (A) (A) (A) (A) (A) (A) (A) (A)
                 (A) (A) (A) (A) (A) (A) (A) (A) (A) (A) (A) (A)
                 (A) (A) (A) (A) (A) (A) (A) (A) (A) (A) (A) (A)
                 (A) (A) (A) (A) (A) (A) (A) (A) (A) (A) (A) (A)
                 (A) (A) (A) (A) (A) (A) (A) (A) (A) (A) (A) (A)
                 (A) (A) (A) (A) (A) (A) (A) (A) (A) (A) (A) (A)
                 (A) (A) (A) (A) (A) (A) (A) (A) (A) (A) (A) (A)
                 (A) (A) (A) (A) (A) (A) (A) (A)
 The electronic state of the initial guess is 1-A.
 Leave Link  401 at Sun May 10 13:10:28 2020, MaxMem= 1073741824 cpu:       4.2
 (Enter /home/matheus/.gaussian/g09/l502.exe)
 Closed shell SCF:
 Requested convergence on RMS density matrix=1.00D-08 within 128 cycles.
 Requested convergence on MAX density matrix=1.00D-06.
 Requested convergence on             energy=1.00D-06.
 No special actions if energy rises.
 Using DIIS extrapolation, IDIIS=  1040.
 Integral symmetry usage will be decided dynamically.
       126521 words used for storage of precomputed grid.
 IEnd=      305468 IEndB=      305468 NGot=  1073741824 MDV=  1073505667
 LenX=  1073505667 LenY=  1073452785
 Fock matrices will be formed incrementally for  20 cycles.

 Cycle   1  Pass 1  IDiag  1:
 FoFJK:  IHMeth= 1 ICntrl=     0 DoSepK=T KAlg= 1 I1Cent= 0 FoldK=F
 FoFCou: FMM=F IPFlag=           0 FMFlag=      100000 FMFlg1=           0
         NFxFlg=           0 DoJE=T BraDBF=F KetDBF=F FulRan=T
         Omega=  0.000000  0.000000  1.000000  0.000000  0.000000 ICntrl=     500 IOpCl=  0
         NMat0=    1 NMatS0=    1 NMatT0=    0 NMatD0=    1 NMtDS0=    0 NMtDT0=    0
         I1Cent=           0 NGrid=           0.
 Symmetry not used in FoFCou.
 E= -151.477549023581    
 DIIS: error= 4.36D-02 at cycle   1 NSaved=   1.
 NSaved= 1 IEnMin= 1 EnMin= -151.477549023581     IErMin= 1 ErrMin= 4.36D-02
 ErrMax= 4.36D-02 EMaxC= 1.00D-01 BMatC= 3.02D-01 BMatP= 3.02D-01
 IDIUse=3 WtCom= 5.64D-01 WtEn= 4.36D-01
 Coeff-Com:  0.100D+01
 Coeff-En:   0.100D+01
 Coeff:      0.100D+01
 Gap=     0.525 Goal=   None    Shift=    0.000
 GapD=    0.525 DampG=2.000 DampE=0.500 DampFc=1.0000 IDamp=-1.
 RMSDP=2.46D-03 MaxDP=1.11D-01              OVMax= 1.07D-01

 Cycle   2  Pass 1  IDiag  1:
 RMSU=  1.70D-03    CP:  9.47D-01
 FoFJK:  IHMeth= 1 ICntrl=     0 DoSepK=T KAlg= 1 I1Cent= 0 FoldK=F
 E= -151.508549550722     Delta-E=       -0.031000527141 Rises=F Damp=F
 DIIS: error= 1.44D-02 at cycle   2 NSaved=   2.
 NSaved= 2 IEnMin= 2 EnMin= -151.508549550722     IErMin= 2 ErrMin= 1.44D-02
 ErrMax= 1.44D-02 EMaxC= 1.00D-01 BMatC= 9.03D-02 BMatP= 3.02D-01
 IDIUse=3 WtCom= 8.56D-01 WtEn= 1.44D-01
 Coeff-Com:  0.331D+00 0.669D+00
 Coeff-En:   0.360D+00 0.640D+00
 Coeff:      0.335D+00 0.665D+00
 Gap=     0.472 Goal=   None    Shift=    0.000
 RMSDP=1.03D-03 MaxDP=4.99D-02 DE=-3.10D-02 OVMax= 6.04D-02

 Cycle   3  Pass 1  IDiag  1:
 RMSU=  3.66D-04    CP:  9.70D-01  6.41D-01
 FoFJK:  IHMeth= 1 ICntrl=     0 DoSepK=T KAlg= 1 I1Cent= 0 FoldK=F
 E= -151.556703218634     Delta-E=       -0.048153667912 Rises=F Damp=F
 DIIS: error= 4.85D-03 at cycle   3 NSaved=   3.
 NSaved= 3 IEnMin= 3 EnMin= -151.556703218634     IErMin= 3 ErrMin= 4.85D-03
 ErrMax= 4.85D-03 EMaxC= 1.00D-01 BMatC= 7.07D-03 BMatP= 9.03D-02
 IDIUse=3 WtCom= 9.51D-01 WtEn= 4.85D-02
 Coeff-Com:  0.159D-01 0.228D+00 0.756D+00
 Coeff-En:   0.000D+00 0.000D+00 0.100D+01
 Coeff:      0.151D-01 0.217D+00 0.768D+00
 Gap=     0.418 Goal=   None    Shift=    0.000
 RMSDP=2.92D-04 MaxDP=1.19D-02 DE=-4.82D-02 OVMax= 1.72D-02

 Cycle   4  Pass 1  IDiag  1:
 RMSU=  6.63D-05    CP:  9.64D-01  7.44D-01  7.97D-01
 FoFJK:  IHMeth= 1 ICntrl=     0 DoSepK=T KAlg= 1 I1Cent= 0 FoldK=F
 E= -151.561269960523     Delta-E=       -0.004566741889 Rises=F Damp=F
 DIIS: error= 5.55D-04 at cycle   4 NSaved=   4.
 NSaved= 4 IEnMin= 4 EnMin= -151.561269960523     IErMin= 4 ErrMin= 5.55D-04
 ErrMax= 5.55D-04 EMaxC= 1.00D-01 BMatC= 8.02D-05 BMatP= 7.07D-03
 IDIUse=3 WtCom= 9.94D-01 WtEn= 5.55D-03
 Coeff-Com:  0.253D-03 0.263D-01 0.168D+00 0.806D+00
 Coeff-En:   0.000D+00 0.000D+00 0.000D+00 0.100D+01
 Coeff:      0.252D-03 0.262D-01 0.167D+00 0.807D+00
 Gap=     0.415 Goal=   None    Shift=    0.000
 RMSDP=3.84D-05 MaxDP=2.17D-03 DE=-4.57D-03 OVMax= 1.85D-03

 Cycle   5  Pass 1  IDiag  1:
 RMSU=  1.33D-05    CP:  9.65D-01  7.36D-01  8.43D-01  1.09D+00
 FoFJK:  IHMeth= 1 ICntrl=     0 DoSepK=T KAlg= 1 I1Cent= 0 FoldK=F
 E= -151.561326289606     Delta-E=       -0.000056329083 Rises=F Damp=F
 DIIS: error= 4.37D-05 at cycle   5 NSaved=   5.
 NSaved= 5 IEnMin= 5 EnMin= -151.561326289606     IErMin= 5 ErrMin= 4.37D-05
 ErrMax= 4.37D-05 EMaxC= 1.00D-01 BMatC= 7.39D-07 BMatP= 8.02D-05
 IDIUse=1 WtCom= 1.00D+00 WtEn= 0.00D+00
 Coeff-Com: -0.639D-03-0.111D-01-0.374D-01-0.667D-01 0.112D+01
 Coeff:     -0.639D-03-0.111D-01-0.374D-01-0.667D-01 0.112D+01
 Gap=     0.414 Goal=   None    Shift=    0.000
 RMSDP=1.09D-05 MaxDP=4.08D-04 DE=-5.63D-05 OVMax= 7.08D-04

 Cycle   6  Pass 1  IDiag  1:
 RMSU=  2.61D-06    CP:  9.65D-01  7.35D-01  8.54D-01  1.16D+00  1.27D+00
 FoFJK:  IHMeth= 1 ICntrl=     0 DoSepK=T KAlg= 1 I1Cent= 0 FoldK=F
 E= -151.561328016094     Delta-E=       -0.000001726488 Rises=F Damp=F
 DIIS: error= 9.70D-06 at cycle   6 NSaved=   6.
 NSaved= 6 IEnMin= 6 EnMin= -151.561328016094     IErMin= 6 ErrMin= 9.70D-06
 ErrMax= 9.70D-06 EMaxC= 1.00D-01 BMatC= 2.80D-08 BMatP= 7.39D-07
 IDIUse=1 WtCom= 1.00D+00 WtEn= 0.00D+00
 Coeff-Com:  0.280D-04-0.411D-03-0.452D-02-0.222D-01-0.104D-01 0.104D+01
 Coeff:      0.280D-04-0.411D-03-0.452D-02-0.222D-01-0.104D-01 0.104D+01
 Gap=     0.414 Goal=   None    Shift=    0.000
 RMSDP=1.80D-06 MaxDP=6.42D-05 DE=-1.73D-06 OVMax= 1.89D-04

 Cycle   7  Pass 1  IDiag  1:
 RMSU=  5.90D-07    CP:  9.65D-01  7.35D-01  8.54D-01  1.17D+00  1.31D+00
                    CP:  1.33D+00
 FoFJK:  IHMeth= 1 ICntrl=     0 DoSepK=T KAlg= 1 I1Cent= 0 FoldK=F
 E= -151.561328099391     Delta-E=       -0.000000083297 Rises=F Damp=F
 DIIS: error= 3.48D-06 at cycle   7 NSaved=   7.
 NSaved= 7 IEnMin= 7 EnMin= -151.561328099391     IErMin= 7 ErrMin= 3.48D-06
 ErrMax= 3.48D-06 EMaxC= 1.00D-01 BMatC= 3.88D-09 BMatP= 2.80D-08
 IDIUse=1 WtCom= 1.00D+00 WtEn= 0.00D+00
 Coeff-Com:  0.202D-04 0.302D-03 0.888D-03-0.841D-03-0.390D-01 0.482D-01
 Coeff-Com:  0.990D+00
 Coeff:      0.202D-04 0.302D-03 0.888D-03-0.841D-03-0.390D-01 0.482D-01
 Coeff:      0.990D+00
 Gap=     0.414 Goal=   None    Shift=    0.000
 RMSDP=5.39D-07 MaxDP=2.24D-05 DE=-8.33D-08 OVMax= 6.73D-05

 Cycle   8  Pass 1  IDiag  1:
 RMSU=  2.37D-07    CP:  9.65D-01  7.35D-01  8.54D-01  1.17D+00  1.32D+00
                    CP:  1.40D+00  1.28D+00
 FoFJK:  IHMeth= 1 ICntrl=     0 DoSepK=T KAlg= 1 I1Cent= 0 FoldK=F
 E= -151.561328106275     Delta-E=       -0.000000006884 Rises=F Damp=F
 DIIS: error= 3.56D-06 at cycle   8 NSaved=   8.
 NSaved= 8 IEnMin= 8 EnMin= -151.561328106275     IErMin= 7 ErrMin= 3.48D-06
 ErrMax= 3.56D-06 EMaxC= 1.00D-01 BMatC= 3.68D-09 BMatP= 3.88D-09
 IDIUse=1 WtCom= 1.00D+00 WtEn= 0.00D+00
 Coeff-Com:  0.498D-05 0.242D-03 0.140D-02 0.357D-02-0.179D-01-0.198D+00
 Coeff-Com:  0.632D+00 0.579D+00
 Coeff:      0.498D-05 0.242D-03 0.140D-02 0.357D-02-0.179D-01-0.198D+00
 Coeff:      0.632D+00 0.579D+00
 Gap=     0.414 Goal=   None    Shift=    0.000
 RMSDP=2.44D-07 MaxDP=1.09D-05 DE=-6.88D-09 OVMax= 2.84D-05

 Cycle   9  Pass 1  IDiag  1:
 RMSU=  1.01D-07    CP:  9.65D-01  7.35D-01  8.54D-01  1.17D+00  1.32D+00
                    CP:  1.42D+00  1.46D+00  8.82D-01
 FoFJK:  IHMeth= 1 ICntrl=     0 DoSepK=T KAlg= 1 I1Cent= 0 FoldK=F
 E= -151.561328109471     Delta-E=       -0.000000003196 Rises=F Damp=F
 DIIS: error= 4.28D-07 at cycle   9 NSaved=   9.
 NSaved= 9 IEnMin= 9 EnMin= -151.561328109471     IErMin= 9 ErrMin= 4.28D-07
 ErrMax= 4.28D-07 EMaxC= 1.00D-01 BMatC= 6.59D-11 BMatP= 3.68D-09
 IDIUse=1 WtCom= 1.00D+00 WtEn= 0.00D+00
 Coeff-Com: -0.519D-06-0.626D-05-0.203D-05-0.120D-04 0.474D-02-0.269D-01
 Coeff-Com: -0.365D-01 0.579D-01 0.100D+01
 Coeff:     -0.519D-06-0.626D-05-0.203D-05-0.120D-04 0.474D-02-0.269D-01
 Coeff:     -0.365D-01 0.579D-01 0.100D+01
 Gap=     0.414 Goal=   None    Shift=    0.000
 RMSDP=8.87D-08 MaxDP=1.66D-06 DE=-3.20D-09 OVMax= 1.14D-05

 Cycle  10  Pass 1  IDiag  1:
 RMSU=  1.78D-08    CP:  9.65D-01  7.35D-01  8.54D-01  1.17D+00  1.32D+00
                    CP:  1.42D+00  1.51D+00  1.05D+00  1.32D+00
 FoFJK:  IHMeth= 1 ICntrl=     0 DoSepK=T KAlg= 1 I1Cent= 0 FoldK=F
 E= -151.561328109647     Delta-E=       -0.000000000175 Rises=F Damp=F
 DIIS: error= 1.14D-07 at cycle  10 NSaved=  10.
 NSaved=10 IEnMin=10 EnMin= -151.561328109647     IErMin=10 ErrMin= 1.14D-07
 ErrMax= 1.14D-07 EMaxC= 1.00D-01 BMatC= 6.51D-12 BMatP= 6.59D-11
 IDIUse=1 WtCom= 1.00D+00 WtEn= 0.00D+00
 Coeff-Com: -0.391D-07-0.178D-04-0.136D-03-0.438D-03 0.201D-02 0.166D-01
 Coeff-Com: -0.615D-01-0.566D-01-0.272D-01 0.113D+01
 Coeff:     -0.391D-07-0.178D-04-0.136D-03-0.438D-03 0.201D-02 0.166D-01
 Coeff:     -0.615D-01-0.566D-01-0.272D-01 0.113D+01
 Gap=     0.414 Goal=   None    Shift=    0.000
 RMSDP=3.46D-08 MaxDP=6.94D-07 DE=-1.75D-10 OVMax= 4.70D-06

 Cycle  11  Pass 1  IDiag  1:
 RMSU=  6.03D-09    CP:  9.65D-01  7.35D-01  8.54D-01  1.17D+00  1.32D+00
                    CP:  1.41D+00  1.53D+00  1.10D+00  1.47D+00  1.44D+00
 FoFJK:  IHMeth= 1 ICntrl=     0 DoSepK=T KAlg= 1 I1Cent= 0 FoldK=F
 E= -151.561328109667     Delta-E=       -0.000000000021 Rises=F Damp=F
 DIIS: error= 2.74D-08 at cycle  11 NSaved=  11.
 NSaved=11 IEnMin=11 EnMin= -151.561328109667     IErMin=11 ErrMin= 2.74D-08
 ErrMax= 2.74D-08 EMaxC= 1.00D-01 BMatC= 2.10D-13 BMatP= 6.51D-12
 IDIUse=1 WtCom= 1.00D+00 WtEn= 0.00D+00
 Coeff-Com: -0.813D-07-0.131D-05-0.318D-05-0.148D-04-0.115D-03 0.102D-02
 Coeff-Com:  0.455D-02-0.769D-03-0.535D-01-0.390D-01 0.109D+01
 Coeff:     -0.813D-07-0.131D-05-0.318D-05-0.148D-04-0.115D-03 0.102D-02
 Coeff:      0.455D-02-0.769D-03-0.535D-01-0.390D-01 0.109D+01
 Gap=     0.414 Goal=   None    Shift=    0.000
 RMSDP=6.92D-09 MaxDP=2.31D-07 DE=-2.07D-11 OVMax= 7.89D-07

 SCF Done:  E(RwB97XD) =  -151.561328110     A.U. after   11 cycles
             Convg  =    0.6924D-08             -V/T =  2.0058
 KE= 1.506805364631D+02 PE=-4.317488941303D+02 EE= 9.287513166640D+01
 Leave Link  502 at Sun May 10 13:11:02 2020, MaxMem= 1073741824 cpu:     272.5
 (Enter /home/matheus/.gaussian/g09/l601.exe)
 Copying SCF densities to generalized density rwf, IOpCl= 0 IROHF=0.

 **********************************************************************

            Population analysis using the SCF density.

 **********************************************************************

 Orbital symmetries:
       Occupied  (A) (A) (A) (A) (A) (A) (A) (A) (A)
       Virtual   (A) (A) (A) (A) (A) (A) (A) (A) (A) (A) (A) (A)
                 (A) (A) (A) (A) (A) (A) (A) (A) (A) (A) (A) (A)
                 (A) (A) (A) (A) (A) (A) (A) (A) (A) (A) (A) (A)
                 (A) (A) (A) (A) (A) (A) (A) (A) (A) (A) (A) (A)
                 (A) (A) (A) (A) (A) (A) (A) (A) (A) (A) (A) (A)
                 (A) (A) (A) (A) (A) (A) (A) (A) (A) (A) (A) (A)
                 (A) (A) (A) (A) (A) (A) (A) (A) (A) (A) (A) (A)
                 (A) (A) (A) (A) (A) (A) (A) (A) (A) (A) (A) (A)
                 (A) (A) (A) (A) (A) (A) (A) (A) (A) (A) (A) (A)
                 (A) (A) (A) (A) (A) (A) (A) (A) (A) (A) (A) (A)
                 (A) (A) (A) (A) (A) (A) (A) (A) (A) (A) (A) (A)
                 (A) (A) (A) (A) (A) (A) (A) (A) (A) (A) (A) (A)
                 (A) (A) (A) (A) (A) (A) (A) (A) (A) (A) (A) (A)
                 (A) (A) (A) (A) (A) (A) (A) (A) (A) (A) (A) (A)
                 (A) (A) (A) (A) (A) (A) (A) (A) (A) (A) (A) (A)
                 (A) (A) (A) (A) (A) (A) (A) (A)
 The electronic state is 1-A.
 Alpha  occ. eigenvalues --  -19.32096 -19.32091  -1.22485  -1.01194  -0.65785
 Alpha  occ. eigenvalues --   -0.56072  -0.51939  -0.40847  -0.38721
 Alpha virt. eigenvalues --    0.02701   0.03783   0.07140   0.08503   0.09165
 Alpha virt. eigenvalues --    0.10547   0.10754   0.14177   0.17137   0.17654
 Alpha virt. eigenvalues --    0.18345   0.19027   0.20745   0.22913   0.25142
 Alpha virt. eigenvalues --    0.27103   0.30549   0.31424   0.32486   0.34060
 Alpha virt. eigenvalues --    0.34477   0.37402   0.37894   0.38749   0.40101
 Alpha virt. eigenvalues --    0.43314   0.44886   0.46424   0.47914   0.49978
 Alpha virt. eigenvalues --    0.52568   0.57951   0.59692   0.61567   0.64511
 Alpha virt. eigenvalues --    0.69063   0.73779   0.75059   0.75520   0.77719
 Alpha virt. eigenvalues --    0.79580   0.80104   0.87036   0.88735   0.89961
 Alpha virt. eigenvalues --    0.90205   0.92785   0.93846   0.94933   0.96688
 Alpha virt. eigenvalues --    0.99212   0.99635   1.03326   1.08231   1.11798
 Alpha virt. eigenvalues --    1.13945   1.15898   1.19962   1.21326   1.22431
 Alpha virt. eigenvalues --    1.25307   1.29613   1.30118   1.31265   1.33282
 Alpha virt. eigenvalues --    1.34019   1.34833   1.37924   1.38113   1.40540
 Alpha virt. eigenvalues --    1.43929   1.46886   1.49533   1.51550   1.54412
 Alpha virt. eigenvalues --    1.58426   1.64129   1.66064   1.71160   1.76762
 Alpha virt. eigenvalues --    1.80830   1.84368   1.91765   1.95629   2.00389
 Alpha virt. eigenvalues --    2.01511   2.05270   2.13119   2.18479   2.19852
 Alpha virt. eigenvalues --    2.25401   2.26459   2.31356   2.34314   2.35554
 Alpha virt. eigenvalues --    2.46055   2.51189   2.53380   2.59034   2.61693
 Alpha virt. eigenvalues --    2.63737   2.70880   2.76050   2.83473   2.91535
 Alpha virt. eigenvalues --    2.99670   3.07391   3.08069   3.26512   3.30594
 Alpha virt. eigenvalues --    3.39998   3.53953   3.58720   3.65890   3.78388
 Alpha virt. eigenvalues --    3.78863   3.81622   3.82391   3.82971   3.83856
 Alpha virt. eigenvalues --    3.86007   3.89212   3.92500   3.94479   3.95845
 Alpha virt. eigenvalues --    3.97041   4.00566   4.04911   4.09166   4.14134
 Alpha virt. eigenvalues --    4.15332   4.20931   4.22875   4.30068   4.33552
 Alpha virt. eigenvalues --    4.37434   4.48398   4.56121   4.68822   4.90129
 Alpha virt. eigenvalues --    4.94489   4.97077   5.12926   5.13807   5.17843
 Alpha virt. eigenvalues --    5.41588   5.82907   6.00505   6.12208   6.19276
 Alpha virt. eigenvalues --    6.23672   6.28490   6.41476   6.46632   6.58353
 Alpha virt. eigenvalues --    6.74835   6.75480   6.79446   6.82624   6.86890
 Alpha virt. eigenvalues --    6.88100   6.91019   6.95432   6.98765   7.05625
 Alpha virt. eigenvalues --    7.10943   7.21698   7.43964   7.55432   7.77287
 Alpha virt. eigenvalues --    8.08145   8.10098  10.89780  14.09368  14.65486
 Alpha virt. eigenvalues --   14.84066  14.88868  15.10487  29.03698  29.03871
 Alpha virt. eigenvalues --   29.08510  29.14161  29.23640  49.10669 148.32267
 Alpha virt. eigenvalues --  148.39505 148.71483 752.50076
          Condensed to atoms (all electrons):
              1          2          3          4          5
     1  O    8.180253  -0.178698   0.200597   0.006256   0.001100
     2  O   -0.178698   8.227457   0.013887   0.181940  -0.002059
     3  H    0.200597   0.013887   0.571552   0.002659  -0.001686
     4  H    0.006256   0.181940   0.002659   0.579516  -0.004020
     5  Kr   0.001100  -0.002059  -0.001686  -0.004020   0.001270
 Mulliken atomic charges:
              1
     1  O   -0.209508
     2  O   -0.242528
     3  H    0.212992
     4  H    0.233649
     5  Kr   0.005395
 Sum of Mulliken atomic charges =   0.00000
 Mulliken charges with hydrogens summed into heavy atoms:
              1
     1  O    0.003483
     2  O   -0.008878
     5  Kr   0.005395
 Sum of Mulliken charges with hydrogens summed into heavy atoms =   0.00000
          Condensed to fragments (all electrons):
     1      -0.005395
     2       0.005395
 Electronic spatial extent (au):  <R**2>=            319.7105
 Charge=              0.0000 electrons
 Dipole moment (field-independent basis, Debye):
    X=              1.7960    Y=             -0.1593    Z=              1.5482  Tot=              2.3766
 Quadrupole moment (field-independent basis, Debye-Ang):
   XX=            -18.0720   YY=            -10.2111   ZZ=            -11.4457
   XY=              1.9937   XZ=             -2.7220   YZ=             -1.8169
 Traceless Quadrupole moment (field-independent basis, Debye-Ang):
   XX=             -4.8291   YY=              3.0319   ZZ=              1.7972
   XY=              1.9937   XZ=             -2.7220   YZ=             -1.8169
 Octapole moment (field-independent basis, Debye-Ang**2):
  XXX=             87.5277  YYY=             -1.1728  ZZZ=              1.2107  XYY=             22.4395
  XXY=             -5.4275  XXZ=              4.9425  XZZ=             22.6874  YZZ=             -1.8837
  YYZ=              2.2724  XYZ=              3.5043
 Hexadecapole moment (field-independent basis, Debye-Ang**3):
 XXXX=           -334.8959 YYYY=            -44.4629 ZZZZ=            -11.5064 XXXY=             10.5119
 XXXZ=             -9.4304 YYYX=              3.3557 YYYZ=             -2.6763 ZZZX=             -2.4397
 ZZZY=             -1.9537 XXYY=            -58.2001 XXZZ=            -49.1263 YYZZ=             -9.7634
 XXYZ=             -6.9512 YYXZ=             -4.1711 ZZXY=              3.2284
 N-N= 3.663189789110D+01 E-N=-4.317488942462D+02  KE= 1.506805364631D+02
 No NMR shielding tensors so no spin-rotation constants.
 Leave Link  601 at Sun May 10 13:11:02 2020, MaxMem= 1073741824 cpu:       0.7
 (Enter /home/matheus/.gaussian/g09/l122.exe)
 Counterpoise: doing DCBS calculation for fragment   2 NewBq=T
 Leave Link  122 at Sun May 10 13:11:03 2020, MaxMem= 1073741824 cpu:       0.0
 (Enter /home/matheus/.gaussian/g09/l301.exe)
 Basis read from rwf:  (5D, 7F)
 No pseudopotential information found on rwf file.
 There are   197 symmetry adapted basis functions of A   symmetry.
 Integral buffers will be    131072 words long.
 Raffenetti 2 integral format.
 Two-electron integral symmetry is turned on.
   197 basis functions,   415 primitive gaussians,   229 cartesian basis functions
    18 alpha electrons       18 beta electrons
       nuclear repulsion energy         0.0000000000 Hartrees.
 IExCor= 4639 DFT=T Ex+Corr=wB97XD ExCW=0 ScaHFX=  1.000000
 ScaDFX=  1.000000  1.000000  1.000000  1.000000 ScalE2=  1.000000  1.000000
 IRadAn=      5 IRanWt=     -1 IRanGd=            0 ICorTp=0
  HFx wShort=  0.000000 wLong=  0.200000 cFull=  0.222036 cShort=  0.000000 cLong=  0.777964
  DFx wShort=  0.000000 wLong=  0.200000 cFull=  0.000000 cShort=  0.000000 cLong=  1.000000
 NAtoms=    5 NActive=    5 NUniq=    5 SFac= 1.00D+00 NAtFMM=   60 NAOKFM=F Big=F
 R6Disp: Dispersion energy =         0.0000000000 Hartrees.
 Nuclear repulsion after empirical dispersion term =        0.0000000000 Hartrees.
 No density basis found on file   718.
 Leave Link  301 at Sun May 10 13:11:03 2020, MaxMem= 1073741824 cpu:       0.2
 (Enter /home/matheus/.gaussian/g09/l302.exe)
 NPDir=0 NMtPBC=     1 NCelOv=     1 NCel=       1 NClECP=     1 NCelD=      1
         NCelK=      1 NCelE2=     1 NClLst=     1 CellRange=     0.0.
 One-electron integrals computed using PRISM.
 NBasis=   197 RedAO= T  NBF=   197
 NBsUse=   197 1.00D-06 NBFU=   197
 Precomputing XC quadrature grid using
 IXCGrd= 2 IRadAn=           5 IRanWt=          -1 IRanGd=           0 AccXCQ= 0.00D+00.
 NRdTot=     427 NPtTot=      123512 NUsed=      126579 NTot=      126611
 NSgBfM=   229   229   229   229   229 NAtAll=     5     5.
 Leave Link  302 at Sun May 10 13:11:03 2020, MaxMem= 1073741824 cpu:       0.9
 (Enter /home/matheus/.gaussian/g09/l303.exe)
 DipDrv:  MaxL=1.
 Leave Link  303 at Sun May 10 13:11:03 2020, MaxMem= 1073741824 cpu:       0.2
 (Enter /home/matheus/.gaussian/g09/l401.exe)
 Harris functional with IExCor= 4639 diagonalized for initial guess.
 ExpMin= 2.53D-02 ExpMax= 1.17D+07 ExpMxC= 1.33D+04 IAcc=3 IRadAn=         5 AccDes= 0.00D+00
 HarFok:  IExCor= 4639 AccDes= 0.00D+00 IRadAn=         5 IDoV= 1
 ScaDFX=  1.000000  1.000000  1.000000  1.000000
 FoFCou: FMM=F IPFlag=           0 FMFlag=      100000 FMFlg1=           0
         NFxFlg=           0 DoJE=T BraDBF=F KetDBF=T FulRan=T
         Omega=  0.000000  0.000000  1.000000  0.000000  0.000000 ICntrl=     500 IOpCl=  0
         NMat0=    1 NMatS0=    1 NMatT0=    0 NMatD0=    1 NMtDS0=    0 NMtDT0=    0
         I1Cent=           4 NGrid=           0.
 Petite list used in FoFCou.
 Harris En= -2730.20435660707    
 Initial guess orbital symmetries:
       Occupied  (A) (A) (A) (A) (A) (A) (A) (A) (A) (A) (A) (A)
                 (A) (A) (A) (A) (A) (A)
       Virtual   (A) (A) (A) (A) (A) (A) (A) (A) (A) (A) (A) (A)
                 (A) (A) (A) (A) (A) (A) (A) (A) (A) (A) (A) (A)
                 (A) (A) (A) (A) (A) (A) (A) (A) (A) (A) (A) (A)
                 (A) (A) (A) (A) (A) (A) (A) (A) (A) (A) (A) (A)
                 (A) (A) (A) (A) (A) (A) (A) (A) (A) (A) (A) (A)
                 (A) (A) (A) (A) (A) (A) (A) (A) (A) (A) (A) (A)
                 (A) (A) (A) (A) (A) (A) (A) (A) (A) (A) (A) (A)
                 (A) (A) (A) (A) (A) (A) (A) (A) (A) (A) (A) (A)
                 (A) (A) (A) (A) (A) (A) (A) (A) (A) (A) (A) (A)
                 (A) (A) (A) (A) (A) (A) (A) (A) (A) (A) (A) (A)
                 (A) (A) (A) (A) (A) (A) (A) (A) (A) (A) (A) (A)
                 (A) (A) (A) (A) (A) (A) (A) (A) (A) (A) (A) (A)
                 (A) (A) (A) (A) (A) (A) (A) (A) (A) (A) (A) (A)
                 (A) (A) (A) (A) (A) (A) (A) (A) (A) (A) (A) (A)
                 (A) (A) (A) (A) (A) (A) (A) (A) (A) (A) (A)
 The electronic state of the initial guess is 1-A.
 Leave Link  401 at Sun May 10 13:11:03 2020, MaxMem= 1073741824 cpu:       3.7
 (Enter /home/matheus/.gaussian/g09/l502.exe)
 Closed shell SCF:
 Requested convergence on RMS density matrix=1.00D-08 within 128 cycles.
 Requested convergence on MAX density matrix=1.00D-06.
 Requested convergence on             energy=1.00D-06.
 No special actions if energy rises.
 Using DIIS extrapolation, IDIIS=  1040.
 Integral symmetry usage will be decided dynamically.
       126521 words used for storage of precomputed grid.
 IEnd=      305468 IEndB=      305468 NGot=  1073741824 MDV=  1073505667
 LenX=  1073505667 LenY=  1073452785
 Fock matrices will be formed incrementally for  20 cycles.

 Cycle   1  Pass 1  IDiag  1:
 FoFJK:  IHMeth= 1 ICntrl=     0 DoSepK=T KAlg= 1 I1Cent= 0 FoldK=F
 FoFCou: FMM=F IPFlag=           0 FMFlag=      100000 FMFlg1=           0
         NFxFlg=           0 DoJE=T BraDBF=F KetDBF=F FulRan=T
         Omega=  0.000000  0.000000  1.000000  0.000000  0.000000 ICntrl=     500 IOpCl=  0
         NMat0=    1 NMatS0=    1 NMatT0=    0 NMatD0=    1 NMtDS0=    0 NMtDT0=    0
         I1Cent=           0 NGrid=           0.
 Symmetry not used in FoFCou.
 E= -2753.46459883311    
 DIIS: error= 6.10D-02 at cycle   1 NSaved=   1.
 NSaved= 1 IEnMin= 1 EnMin= -2753.46459883311     IErMin= 1 ErrMin= 6.10D-02
 ErrMax= 6.10D-02 EMaxC= 1.00D-01 BMatC= 1.87D+00 BMatP= 1.87D+00
 IDIUse=3 WtCom= 3.90D-01 WtEn= 6.10D-01
 Coeff-Com:  0.100D+01
 Coeff-En:   0.100D+01
 Coeff:      0.100D+01
 Gap=     0.634 Goal=   None    Shift=    0.000
 GapD=    0.634 DampG=2.000 DampE=0.500 DampFc=1.0000 IDamp=-1.
 RMSDP=5.57D-03 MaxDP=3.67D-01              OVMax= 1.78D-01

 Cycle   2  Pass 1  IDiag  1:
 RMSU=  3.87D-03    CP:  1.04D+00
 FoFJK:  IHMeth= 1 ICntrl=     0 DoSepK=T KAlg= 1 I1Cent= 0 FoldK=F
 E= -2753.72409941647     Delta-E=       -0.259500583360 Rises=F Damp=F
 DIIS: error= 2.76D-02 at cycle   2 NSaved=   2.
 NSaved= 2 IEnMin= 2 EnMin= -2753.72409941647     IErMin= 2 ErrMin= 2.76D-02
 ErrMax= 2.76D-02 EMaxC= 1.00D-01 BMatC= 4.75D-01 BMatP= 1.87D+00
 IDIUse=3 WtCom= 7.24D-01 WtEn= 2.76D-01
 Coeff-Com:  0.330D+00 0.670D+00
 Coeff-En:   0.183D+00 0.817D+00
 Coeff:      0.290D+00 0.710D+00
 Gap=     0.475 Goal=   None    Shift=    0.000
 RMSDP=2.49D-03 MaxDP=1.58D-01 DE=-2.60D-01 OVMax= 7.83D-02

 Cycle   3  Pass 1  IDiag  1:
 RMSU=  3.64D-04    CP:  1.03D+00  5.61D-01
 FoFJK:  IHMeth= 1 ICntrl=     0 DoSepK=T KAlg= 1 I1Cent= 0 FoldK=F
 E= -2753.87159264736     Delta-E=       -0.147493230888 Rises=F Damp=F
 DIIS: error= 3.79D-03 at cycle   3 NSaved=   3.
 NSaved= 3 IEnMin= 3 EnMin= -2753.87159264736     IErMin= 3 ErrMin= 3.79D-03
 ErrMax= 3.79D-03 EMaxC= 1.00D-01 BMatC= 8.53D-03 BMatP= 4.75D-01
 IDIUse=3 WtCom= 9.62D-01 WtEn= 3.79D-02
 Coeff-Com: -0.481D-02 0.110D+00 0.894D+00
 Coeff-En:   0.000D+00 0.000D+00 0.100D+01
 Coeff:     -0.462D-02 0.106D+00 0.898D+00
 Gap=     0.502 Goal=   None    Shift=    0.000
 RMSDP=2.71D-04 MaxDP=1.54D-02 DE=-1.47D-01 OVMax= 1.17D-02

 Cycle   4  Pass 1  IDiag  1:
 RMSU=  4.22D-05    CP:  1.03D+00  6.08D-01  9.48D-01
 FoFJK:  IHMeth= 1 ICntrl=     0 DoSepK=T KAlg= 1 I1Cent= 0 FoldK=F
 E= -2753.87434802044     Delta-E=       -0.002755373082 Rises=F Damp=F
 DIIS: error= 1.75D-04 at cycle   4 NSaved=   4.
 NSaved= 4 IEnMin= 4 EnMin= -2753.87434802044     IErMin= 4 ErrMin= 1.75D-04
 ErrMax= 1.75D-04 EMaxC= 1.00D-01 BMatC= 1.43D-05 BMatP= 8.53D-03
 IDIUse=3 WtCom= 9.98D-01 WtEn= 1.75D-03
 Coeff-Com: -0.875D-03-0.143D-01-0.536D-01 0.107D+01
 Coeff-En:   0.000D+00 0.000D+00 0.000D+00 0.100D+01
 Coeff:     -0.874D-03-0.142D-01-0.535D-01 0.107D+01
 Gap=     0.499 Goal=   None    Shift=    0.000
 RMSDP=2.18D-05 MaxDP=8.84D-04 DE=-2.76D-03 OVMax= 7.81D-04

 Cycle   5  Pass 1  IDiag  1:
 RMSU=  1.07D-05    CP:  1.03D+00  6.06D-01  9.67D-01  1.12D+00
 FoFJK:  IHMeth= 1 ICntrl=     0 DoSepK=T KAlg= 1 I1Cent= 0 FoldK=F
 E= -2753.87435582102     Delta-E=       -0.000007800581 Rises=F Damp=F
 DIIS: error= 1.57D-05 at cycle   5 NSaved=   5.
 NSaved= 5 IEnMin= 5 EnMin= -2753.87435582102     IErMin= 5 ErrMin= 1.57D-05
 ErrMax= 1.57D-05 EMaxC= 1.00D-01 BMatC= 3.86D-08 BMatP= 1.43D-05
 IDIUse=1 WtCom= 1.00D+00 WtEn= 0.00D+00
 Coeff-Com:  0.113D-03-0.104D-02-0.107D-01-0.121D-01 0.102D+01
 Coeff:      0.113D-03-0.104D-02-0.107D-01-0.121D-01 0.102D+01
 Gap=     0.499 Goal=   None    Shift=    0.000
 RMSDP=2.38D-06 MaxDP=1.08D-04 DE=-7.80D-06 OVMax= 1.81D-04

 Cycle   6  Pass 1  IDiag  1:
 RMSU=  8.56D-07    CP:  1.03D+00  6.06D-01  9.68D-01  1.14D+00  1.08D+00
 FoFJK:  IHMeth= 1 ICntrl=     0 DoSepK=T KAlg= 1 I1Cent= 0 FoldK=F
 E= -2753.87435593671     Delta-E=       -0.000000115685 Rises=F Damp=F
 DIIS: error= 4.38D-06 at cycle   6 NSaved=   6.
 NSaved= 6 IEnMin= 6 EnMin= -2753.87435593671     IErMin= 6 ErrMin= 4.38D-06
 ErrMax= 4.38D-06 EMaxC= 1.00D-01 BMatC= 3.71D-09 BMatP= 3.86D-08
 IDIUse=1 WtCom= 1.00D+00 WtEn= 0.00D+00
 Coeff-Com:  0.624D-05 0.194D-03 0.483D-03-0.347D-01 0.333D-01 0.100D+01
 Coeff:      0.624D-05 0.194D-03 0.483D-03-0.347D-01 0.333D-01 0.100D+01
 Gap=     0.499 Goal=   None    Shift=    0.000
 RMSDP=5.98D-07 MaxDP=2.59D-05 DE=-1.16D-07 OVMax= 2.78D-05

 Cycle   7  Pass 1  IDiag  1:
 RMSU=  9.18D-08    CP:  1.03D+00  6.06D-01  9.69D-01  1.15D+00  1.11D+00
                    CP:  1.21D+00
 FoFJK:  IHMeth= 1 ICntrl=     0 DoSepK=T KAlg= 1 I1Cent= 0 FoldK=F
 E= -2753.87435594080     Delta-E=       -0.000000004091 Rises=F Damp=F
 DIIS: error= 2.50D-07 at cycle   7 NSaved=   7.
 NSaved= 7 IEnMin= 7 EnMin= -2753.87435594080     IErMin= 7 ErrMin= 2.50D-07
 ErrMax= 2.50D-07 EMaxC= 1.00D-01 BMatC= 3.22D-11 BMatP= 3.71D-09
 IDIUse=1 WtCom= 1.00D+00 WtEn= 0.00D+00
 Coeff-Com:  0.530D-06 0.631D-04 0.249D-03-0.840D-02-0.472D-03 0.233D+00
 Coeff-Com:  0.776D+00
 Coeff:      0.530D-06 0.631D-04 0.249D-03-0.840D-02-0.472D-03 0.233D+00
 Coeff:      0.776D+00
 Gap=     0.499 Goal=   None    Shift=    0.000
 RMSDP=4.10D-08 MaxDP=1.20D-06 DE=-4.09D-09 OVMax= 2.42D-06

 Cycle   8  Pass 1  IDiag  1:
 RMSU=  1.69D-08    CP:  1.03D+00  6.06D-01  9.69D-01  1.15D+00  1.11D+00
                    CP:  1.23D+00  1.05D+00
 FoFJK:  IHMeth= 1 ICntrl=     0 DoSepK=T KAlg= 1 I1Cent= 0 FoldK=F
 E= -2753.87435594082     Delta-E=       -0.000000000025 Rises=F Damp=F
 DIIS: error= 5.89D-08 at cycle   8 NSaved=   8.
 NSaved= 8 IEnMin= 8 EnMin= -2753.87435594082     IErMin= 8 ErrMin= 5.89D-08
 ErrMax= 5.89D-08 EMaxC= 1.00D-01 BMatC= 1.37D-12 BMatP= 3.22D-11
 IDIUse=1 WtCom= 1.00D+00 WtEn= 0.00D+00
 Coeff-Com: -0.141D-06-0.374D-05 0.591D-05 0.157D-02-0.185D-02-0.468D-01
 Coeff-Com:  0.429D-01 0.100D+01
 Coeff:     -0.141D-06-0.374D-05 0.591D-05 0.157D-02-0.185D-02-0.468D-01
 Coeff:      0.429D-01 0.100D+01
 Gap=     0.499 Goal=   None    Shift=    0.000
 RMSDP=1.91D-08 MaxDP=7.35D-07 DE=-2.50D-11 OVMax= 5.20D-07

 Cycle   9  Pass 1  IDiag  1:
 RMSU=  2.97D-09    CP:  1.03D+00  6.06D-01  9.69D-01  1.15D+00  1.11D+00
                    CP:  1.24D+00  1.12D+00  1.12D+00
 FoFJK:  IHMeth= 1 ICntrl=     0 DoSepK=T KAlg= 1 I1Cent= 0 FoldK=F
 E= -2753.87435594083     Delta-E=       -0.000000000010 Rises=F Damp=F
 DIIS: error= 7.99D-09 at cycle   9 NSaved=   9.
 NSaved= 9 IEnMin= 9 EnMin= -2753.87435594083     IErMin= 9 ErrMin= 7.99D-09
 ErrMax= 7.99D-09 EMaxC= 1.00D-01 BMatC= 5.87D-15 BMatP= 1.37D-12
 IDIUse=1 WtCom= 1.00D+00 WtEn= 0.00D+00
 Coeff-Com:  0.102D-07 0.126D-06-0.983D-06-0.131D-03 0.139D-05 0.479D-02
 Coeff-Com: -0.108D-01-0.138D+00 0.114D+01
 Coeff:      0.102D-07 0.126D-06-0.983D-06-0.131D-03 0.139D-05 0.479D-02
 Coeff:     -0.108D-01-0.138D+00 0.114D+01
 Gap=     0.499 Goal=   None    Shift=    0.000
 RMSDP=1.61D-09 MaxDP=6.68D-08 DE=-1.05D-11 OVMax= 9.11D-08

 SCF Done:  E(RwB97XD) =  -2753.87435594     A.U. after    9 cycles
             Convg  =    0.1615D-08             -V/T =  2.0013
 KE= 2.750260451472D+03 PE=-6.580198868648D+03 EE= 1.076064061235D+03
 Leave Link  502 at Sun May 10 13:11:32 2020, MaxMem= 1073741824 cpu:     228.9
 (Enter /home/matheus/.gaussian/g09/l601.exe)
 Copying SCF densities to generalized density rwf, IOpCl= 0 IROHF=0.

 **********************************************************************

            Population analysis using the SCF density.

 **********************************************************************

 Orbital symmetries:
       Occupied  (A) (A) (A) (A) (A) (A) (A) (A) (A) (A) (A) (A)
                 (A) (A) (A) (A) (A) (A)
       Virtual   (A) (A) (A) (A) (A) (A) (A) (A) (A) (A) (A) (A)
                 (A) (A) (A) (A) (A) (A) (A) (A) (A) (A) (A) (A)
                 (A) (A) (A) (A) (A) (A) (A) (A) (A) (A) (A) (A)
                 (A) (A) (A) (A) (A) (A) (A) (A) (A) (A) (A) (A)
                 (A) (A) (A) (A) (A) (A) (A) (A) (A) (A) (A) (A)
                 (A) (A) (A) (A) (A) (A) (A) (A) (A) (A) (A) (A)
                 (A) (A) (A) (A) (A) (A) (A) (A) (A) (A) (A) (A)
                 (A) (A) (A) (A) (A) (A) (A) (A) (A) (A) (A) (A)
                 (A) (A) (A) (A) (A) (A) (A) (A) (A) (A) (A) (A)
                 (A) (A) (A) (A) (A) (A) (A) (A) (A) (A) (A) (A)
                 (A) (A) (A) (A) (A) (A) (A) (A) (A) (A) (A) (A)
                 (A) (A) (A) (A) (A) (A) (A) (A) (A) (A) (A) (A)
                 (A) (A) (A) (A) (A) (A) (A) (A) (A) (A) (A) (A)
                 (A) (A) (A) (A) (A) (A) (A) (A) (A) (A) (A) (A)
                 (A) (A) (A) (A) (A) (A) (A) (A) (A) (A) (A)
 The electronic state is 1-A.
 Alpha  occ. eigenvalues -- -513.05922 -67.32596 -60.87472 -60.87471 -60.87470
 Alpha  occ. eigenvalues --   -9.77892  -7.47187  -7.47186  -7.47186  -3.33929
 Alpha  occ. eigenvalues --   -3.33928  -3.33928  -3.33927  -3.33927  -0.98489
 Alpha  occ. eigenvalues --   -0.46647  -0.46643  -0.46642
 Alpha virt. eigenvalues --    0.03291   0.05237   0.08789   0.09572   0.12342
 Alpha virt. eigenvalues --    0.12632   0.13605   0.13948   0.16376   0.17327
 Alpha virt. eigenvalues --    0.18083   0.19698   0.20748   0.25399   0.26250
 Alpha virt. eigenvalues --    0.26640   0.28634   0.30529   0.32365   0.34254
 Alpha virt. eigenvalues --    0.35657   0.37332   0.38179   0.39556   0.41192
 Alpha virt. eigenvalues --    0.42220   0.43075   0.52031   0.53057   0.57048
 Alpha virt. eigenvalues --    0.58803   0.66512   0.68271   0.69165   0.71778
 Alpha virt. eigenvalues --    0.73517   0.73763   0.75326   0.76797   0.77737
 Alpha virt. eigenvalues --    0.78768   0.80820   0.82626   0.85200   0.87107
 Alpha virt. eigenvalues --    0.87834   0.89344   0.90775   0.91008   0.95382
 Alpha virt. eigenvalues --    0.96296   0.97057   0.97996   0.98512   1.00610
 Alpha virt. eigenvalues --    1.04095   1.06211   1.07113   1.09474   1.11505
 Alpha virt. eigenvalues --    1.16203   1.19564   1.23767   1.27017   1.30543
 Alpha virt. eigenvalues --    1.32172   1.37416   1.39773   1.43717   1.45768
 Alpha virt. eigenvalues --    1.54810   1.56814   1.58138   1.74131   1.75074
 Alpha virt. eigenvalues --    1.81808   1.82896   1.85661   1.98397   2.14664
 Alpha virt. eigenvalues --    2.18289   2.24493   2.27033   2.27730   2.28751
 Alpha virt. eigenvalues --    2.30935   2.32211   2.34774   2.37954   2.40913
 Alpha virt. eigenvalues --    2.41959   2.44837   2.45508   2.47452   2.48082
 Alpha virt. eigenvalues --    2.50755   2.51736   2.55724   2.57513   2.57687
 Alpha virt. eigenvalues --    2.59775   2.62307   2.63907   2.68705   2.72332
 Alpha virt. eigenvalues --    2.74174   2.77498   2.84436   2.88124   2.89838
 Alpha virt. eigenvalues --    2.94770   2.99605   3.05100   3.09031   3.18783
 Alpha virt. eigenvalues --    3.21707   3.28862   3.30971   3.39469   3.45852
 Alpha virt. eigenvalues --    3.61288   3.65434   3.82790   3.87000   4.04335
 Alpha virt. eigenvalues --    4.33649   4.44471   4.55919   4.58057   4.63347
 Alpha virt. eigenvalues --    4.72764   4.87665   4.89826   4.97326   5.03500
 Alpha virt. eigenvalues --    5.11555   5.27145   5.60432   5.64554   5.82206
 Alpha virt. eigenvalues --    5.91130   6.01342   6.11372   6.77960   6.84304
 Alpha virt. eigenvalues --    7.38850   7.50816   7.54350   7.62914   7.76411
 Alpha virt. eigenvalues --    7.79162   7.95181   8.16500   8.17238   8.22064
 Alpha virt. eigenvalues --    8.39583   8.51758   8.56641   8.87218   9.65152
 Alpha virt. eigenvalues --    9.77264   9.84087   9.87592   9.93727   9.99919
 Alpha virt. eigenvalues --   10.16021  10.29593  10.42717  10.97617  11.54160
 Alpha virt. eigenvalues --   11.64511  11.82757  12.06676  12.09938  13.20734
 Alpha virt. eigenvalues --   13.69446  14.52111  62.85206  64.70161
          Condensed to atoms (all electrons):
              1          2          3          4          5
     1  O    0.001313  -0.001659  -0.000599   0.001119  -0.006715
     2  O   -0.001659   0.006070   0.000569  -0.004414  -0.002884
     3  H   -0.000599   0.000569   0.000478  -0.000283  -0.002011
     4  H    0.001119  -0.004414  -0.000283   0.004421  -0.020694
     5  Kr  -0.006715  -0.002884  -0.002011  -0.020694  36.062862
 Mulliken atomic charges:
              1
     1  O    0.006542
     2  O    0.002318
     3  H    0.001846
     4  H    0.019852
     5  Kr  -0.030558
 Sum of Mulliken atomic charges =   0.00000
 Mulliken charges with hydrogens summed into heavy atoms:
              1
     1  O    0.008388
     2  O    0.022170
     5  Kr  -0.030558
 Sum of Mulliken charges with hydrogens summed into heavy atoms =   0.00000
          Condensed to fragments (all electrons):
     1       0.030558
     2      -0.030558
 Electronic spatial extent (au):  <R**2>=            162.8529
 Charge=              0.0000 electrons
 Dipole moment (field-independent basis, Debye):
    X=             -0.0002    Y=              0.0004    Z=              0.0002  Tot=              0.0005
 Quadrupole moment (field-independent basis, Debye-Ang):
   XX=            -17.6251   YY=            -17.6411   ZZ=            -17.6490
   XY=             -0.0034   XZ=             -0.0018   YZ=             -0.0006
 Traceless Quadrupole moment (field-independent basis, Debye-Ang):
   XX=              0.0133   YY=             -0.0027   ZZ=             -0.0106
   XY=             -0.0034   XZ=             -0.0018   YZ=             -0.0006
 Octapole moment (field-independent basis, Debye-Ang**2):
  XXX=            -51.8211  YYY=              0.4310  ZZZ=              0.0826  XYY=            -17.2902
  XXY=              0.1365  XXZ=              0.0242  XZZ=            -17.2950  YZZ=              0.1442
  YYZ=              0.0277  XYZ=             -0.0002
 Hexadecapole moment (field-independent basis, Debye-Ang**3):
 XXXX=           -119.9799 YYYY=            -18.4453 ZZZZ=            -18.4606 XXXY=              0.4096
 XXXZ=              0.0740 YYYX=              0.4114 YYYZ=             -0.0009 ZZZX=              0.0771
 ZZZY=             -0.0005 XXYY=            -23.0854 XXZZ=            -23.0896 YYZZ=             -6.1495
 XXYZ=             -0.0012 YYXZ=              0.0259 ZZXY=              0.1361
 N-N= 0.000000000000D+00 E-N=-6.580198869390D+03  KE= 2.750260451472D+03
 No NMR shielding tensors so no spin-rotation constants.
 Leave Link  601 at Sun May 10 13:11:32 2020, MaxMem= 1073741824 cpu:       0.8
 (Enter /home/matheus/.gaussian/g09/l122.exe)
 Counterpoise: doing MCBS calculation for fragment   1
 Leave Link  122 at Sun May 10 13:11:32 2020, MaxMem= 1073741824 cpu:       0.0
 (Enter /home/matheus/.gaussian/g09/l301.exe)
 Basis read from rwf:  (5D, 7F)
 No pseudopotential information found on rwf file.
 There are   138 symmetry adapted basis functions of A   symmetry.
 Integral buffers will be    131072 words long.
 Raffenetti 2 integral format.
 Two-electron integral symmetry is turned on.
   138 basis functions,   198 primitive gaussians,   160 cartesian basis functions
     9 alpha electrons        9 beta electrons
       nuclear repulsion energy        36.6321546607 Hartrees.
 IExCor= 4639 DFT=T Ex+Corr=wB97XD ExCW=0 ScaHFX=  1.000000
 ScaDFX=  1.000000  1.000000  1.000000  1.000000 ScalE2=  1.000000  1.000000
 IRadAn=      5 IRanWt=     -1 IRanGd=            0 ICorTp=0
  HFx wShort=  0.000000 wLong=  0.200000 cFull=  0.222036 cShort=  0.000000 cLong=  0.777964
  DFx wShort=  0.000000 wLong=  0.200000 cFull=  0.000000 cShort=  0.000000 cLong=  1.000000
 NAtoms=    5 NActive=    4 NUniq=    4 SFac= 1.00D+00 NAtFMM=   60 NAOKFM=F Big=F
 R6Disp: Dispersion energy =        -0.0002567696 Hartrees.
 Nuclear repulsion after empirical dispersion term =       36.6318978911 Hartrees.
 No density basis found on file   718.
 Leave Link  301 at Sun May 10 13:11:32 2020, MaxMem= 1073741824 cpu:       0.2
 (Enter /home/matheus/.gaussian/g09/l302.exe)
 NPDir=0 NMtPBC=     1 NCelOv=     1 NCel=       1 NClECP=     1 NCelD=      1
         NCelK=      1 NCelE2=     1 NClLst=     1 CellRange=     0.0.
 One-electron integrals computed using PRISM.
 NBasis=   138 RedAO= T  NBF=   138
 NBsUse=   138 1.00D-06 NBFU=   138
 Precomputing XC quadrature grid using
 IXCGrd= 2 IRadAn=           5 IRanWt=          -1 IRanGd=           0 AccXCQ= 0.00D+00.
 NRdTot=     344 NPtTot=       92556 NUsed=       95038 NTot=       95070
 NSgBfM=   160   160   160   160   160 NAtAll=     4     4.
 Leave Link  302 at Sun May 10 13:11:32 2020, MaxMem= 1073741824 cpu:       0.9
 (Enter /home/matheus/.gaussian/g09/l303.exe)
 DipDrv:  MaxL=1.
 Leave Link  303 at Sun May 10 13:11:32 2020, MaxMem= 1073741824 cpu:       0.1
 (Enter /home/matheus/.gaussian/g09/l401.exe)
 Harris functional with IExCor= 4639 diagonalized for initial guess.
 ExpMin= 2.53D-02 ExpMax= 1.53D+04 ExpMxC= 5.22D+02 IAcc=3 IRadAn=         5 AccDes= 0.00D+00
 HarFok:  IExCor= 4639 AccDes= 0.00D+00 IRadAn=         5 IDoV= 1
 ScaDFX=  1.000000  1.000000  1.000000  1.000000
 FoFCou: FMM=F IPFlag=           0 FMFlag=      100000 FMFlg1=           0
         NFxFlg=           0 DoJE=T BraDBF=F KetDBF=T FulRan=T
         Omega=  0.000000  0.000000  1.000000  0.000000  0.000000 ICntrl=     500 IOpCl=  0
         NMat0=    1 NMatS0=    1 NMatT0=    0 NMatD0=    1 NMtDS0=    0 NMtDT0=    0
         I1Cent=           4 NGrid=           0.
 Petite list used in FoFCou.
 Harris En= -146.295641255373    
 Initial guess orbital symmetries:
       Occupied  (A) (A) (A) (A) (A) (A) (A) (A) (A)
       Virtual   (A) (A) (A) (A) (A) (A) (A) (A) (A) (A) (A) (A)
                 (A) (A) (A) (A) (A) (A) (A) (A) (A) (A) (A) (A)
                 (A) (A) (A) (A) (A) (A) (A) (A) (A) (A) (A) (A)
                 (A) (A) (A) (A) (A) (A) (A) (A) (A) (A) (A) (A)
                 (A) (A) (A) (A) (A) (A) (A) (A) (A) (A) (A) (A)
                 (A) (A) (A) (A) (A) (A) (A) (A) (A) (A) (A) (A)
                 (A) (A) (A) (A) (A) (A) (A) (A) (A) (A) (A) (A)
                 (A) (A) (A) (A) (A) (A) (A) (A) (A) (A) (A) (A)
                 (A) (A) (A) (A) (A) (A) (A) (A) (A) (A) (A) (A)
                 (A) (A) (A) (A) (A) (A) (A) (A) (A) (A) (A) (A)
                 (A) (A) (A) (A) (A) (A) (A) (A) (A)
 The electronic state of the initial guess is 1-A.
 Leave Link  401 at Sun May 10 13:11:32 2020, MaxMem= 1073741824 cpu:       2.3
 (Enter /home/matheus/.gaussian/g09/l502.exe)
 Closed shell SCF:
 Requested convergence on RMS density matrix=1.00D-08 within 128 cycles.
 Requested convergence on MAX density matrix=1.00D-06.
 Requested convergence on             energy=1.00D-06.
 No special actions if energy rises.
 Using DIIS extrapolation, IDIIS=  1040.
 Integral symmetry usage will be decided dynamically.
        94980 words used for storage of precomputed grid.
 IEnd=      192360 IEndB=      192360 NGot=  1073741824 MDV=  1073591865
 LenX=  1073591865 LenY=  1073565824
 Fock matrices will be formed incrementally for  20 cycles.

 Cycle   1  Pass 1  IDiag  1:
 FoFJK:  IHMeth= 1 ICntrl=     0 DoSepK=T KAlg= 1 I1Cent= 0 FoldK=F
 FoFCou: FMM=F IPFlag=           0 FMFlag=      100000 FMFlg1=           0
         NFxFlg=           0 DoJE=T BraDBF=F KetDBF=F FulRan=T
         Omega=  0.000000  0.000000  1.000000  0.000000  0.000000 ICntrl=     500 IOpCl=  0
         NMat0=    1 NMatS0=    1 NMatT0=    0 NMatD0=    1 NMtDS0=    0 NMtDT0=    0
         I1Cent=           0 NGrid=           0.
 Symmetry not used in FoFCou.
 E= -151.477592779243    
 DIIS: error= 4.40D-02 at cycle   1 NSaved=   1.
 NSaved= 1 IEnMin= 1 EnMin= -151.477592779243     IErMin= 1 ErrMin= 4.40D-02
 ErrMax= 4.40D-02 EMaxC= 1.00D-01 BMatC= 3.01D-01 BMatP= 3.01D-01
 IDIUse=3 WtCom= 5.60D-01 WtEn= 4.40D-01
 Coeff-Com:  0.100D+01
 Coeff-En:   0.100D+01
 Coeff:      0.100D+01
 Gap=     0.527 Goal=   None    Shift=    0.000
 GapD=    0.527 DampG=2.000 DampE=0.500 DampFc=1.0000 IDamp=-1.
 RMSDP=3.44D-03 MaxDP=1.08D-01              OVMax= 1.06D-01

 Cycle   2  Pass 1  IDiag  1:
 RMSU=  2.38D-03    CP:  9.50D-01
 FoFJK:  IHMeth= 1 ICntrl=     0 DoSepK=T KAlg= 1 I1Cent= 0 FoldK=F
 E= -151.508516080306     Delta-E=       -0.030923301063 Rises=F Damp=F
 DIIS: error= 2.24D-02 at cycle   2 NSaved=   2.
 NSaved= 2 IEnMin= 2 EnMin= -151.508516080306     IErMin= 2 ErrMin= 2.24D-02
 ErrMax= 2.24D-02 EMaxC= 1.00D-01 BMatC= 9.02D-02 BMatP= 3.01D-01
 IDIUse=3 WtCom= 7.76D-01 WtEn= 2.24D-01
 Coeff-Com:  0.331D+00 0.669D+00
 Coeff-En:   0.360D+00 0.640D+00
 Coeff:      0.338D+00 0.662D+00
 Gap=     0.472 Goal=   None    Shift=    0.000
 RMSDP=1.44D-03 MaxDP=4.87D-02 DE=-3.09D-02 OVMax= 6.01D-02

 Cycle   3  Pass 1  IDiag  1:
 RMSU=  5.13D-04    CP:  9.72D-01  6.43D-01
 FoFJK:  IHMeth= 1 ICntrl=     0 DoSepK=T KAlg= 1 I1Cent= 0 FoldK=F
 E= -151.556799062947     Delta-E=       -0.048282982641 Rises=F Damp=F
 DIIS: error= 6.18D-03 at cycle   3 NSaved=   3.
 NSaved= 3 IEnMin= 3 EnMin= -151.556799062947     IErMin= 3 ErrMin= 6.18D-03
 ErrMax= 6.18D-03 EMaxC= 1.00D-01 BMatC= 6.81D-03 BMatP= 9.02D-02
 IDIUse=3 WtCom= 9.38D-01 WtEn= 6.18D-02
 Coeff-Com:  0.158D-01 0.225D+00 0.759D+00
 Coeff-En:   0.000D+00 0.000D+00 0.100D+01
 Coeff:      0.148D-01 0.211D+00 0.774D+00
[...]
 ErrMax= 4.72D-06 EMaxC= 1.00D-01 BMatC= 3.99D-09 BMatP= 3.54D-06
 IDIUse=1 WtCom= 1.00D+00 WtEn= 0.00D+00
 Coeff-Com: -0.105D-01 0.101D+01
 Coeff:     -0.105D-01 0.101D+01
 Gap=     0.497 Goal=   None    Shift=    0.000
 RMSDP=1.91D-06 MaxDP=8.15D-05 DE=-5.64D-07 OVMax= 5.10D-05

 Cycle   3  Pass 1  IDiag  1:
 RMSU=  5.34D-07    CP:  1.00D+00  1.09D+00
 FoFJK:  IHMeth= 1 ICntrl=     0 DoSepK=T KAlg= 1 I1Cent= 0 FoldK=F
 E= -2753.87423842909     Delta-E=       -0.000000007416 Rises=F Damp=F
 DIIS: error= 8.26D-07 at cycle   3 NSaved=   3.
 NSaved= 3 IEnMin= 3 EnMin= -2753.87423842909     IErMin= 3 ErrMin= 8.26D-07
 ErrMax= 8.26D-07 EMaxC= 1.00D-01 BMatC= 1.06D-10 BMatP= 3.99D-09
 IDIUse=1 WtCom= 1.00D+00 WtEn= 0.00D+00
 Coeff-Com:  0.299D-05-0.966D-01 0.110D+01
 Coeff:      0.299D-05-0.966D-01 0.110D+01
 Gap=     0.497 Goal=   None    Shift=    0.000
 RMSDP=2.30D-07 MaxDP=1.09D-05 DE=-7.42D-09 OVMax= 9.81D-06

 Cycle   4  Pass 1  IDiag  1:
 RMSU=  5.07D-08    CP:  1.00D+00  1.10D+00  1.21D+00
 FoFJK:  IHMeth= 1 ICntrl=     0 DoSepK=T KAlg= 1 I1Cent= 0 FoldK=F
 E= -2753.87423842930     Delta-E=       -0.000000000209 Rises=F Damp=F
 DIIS: error= 3.92D-07 at cycle   4 NSaved=   4.
 NSaved= 4 IEnMin= 4 EnMin= -2753.87423842930     IErMin= 4 ErrMin= 3.92D-07
 ErrMax= 3.92D-07 EMaxC= 1.00D-01 BMatC= 1.70D-11 BMatP= 1.06D-10
 IDIUse=1 WtCom= 1.00D+00 WtEn= 0.00D+00
 Coeff-Com:  0.215D-03-0.513D-01 0.336D+00 0.715D+00
 Coeff:      0.215D-03-0.513D-01 0.336D+00 0.715D+00
 Gap=     0.497 Goal=   None    Shift=    0.000
 RMSDP=2.22D-08 MaxDP=8.97D-07 DE=-2.09D-10 OVMax= 1.37D-06

 Cycle   5  Pass 1  IDiag  1:
 RMSU=  1.04D-08    CP:  1.00D+00  1.10D+00  1.23D+00  1.05D+00
 FoFJK:  IHMeth= 1 ICntrl=     0 DoSepK=T KAlg= 1 I1Cent= 0 FoldK=F
 E= -2753.87423842930     Delta-E=        0.000000000000 Rises=F Damp=F
 DIIS: error= 3.02D-08 at cycle   5 NSaved=   5.
 NSaved= 5 IEnMin= 4 EnMin= -2753.87423842930     IErMin= 5 ErrMin= 3.02D-08
 ErrMax= 3.02D-08 EMaxC= 1.00D-01 BMatC= 1.40D-13 BMatP= 1.70D-11
 IDIUse=1 WtCom= 1.00D+00 WtEn= 0.00D+00
 Coeff-Com: -0.446D-05 0.413D-02-0.402D-01-0.246D-01 0.106D+01
 Coeff:     -0.446D-05 0.413D-02-0.402D-01-0.246D-01 0.106D+01
 Gap=     0.497 Goal=   None    Shift=    0.000
 RMSDP=9.16D-09 MaxDP=5.48D-07 DE= 0.00D+00 OVMax= 3.76D-07

 SCF Done:  E(RwB97XD) =  -2753.87423843     A.U. after    5 cycles
             Convg  =    0.9162D-08             -V/T =  2.0013
 KE= 2.750294968079D+03 PE=-6.580235659323D+03 EE= 1.076066452815D+03
 Leave Link  502 at Sun May 10 13:33:58 2020, MaxMem= 1073741824 cpu:      95.7
 (Enter /home/matheus/.gaussian/g09/l122.exe)
 Restoring MOs from calculation   4 to rwf.
 Counterpoise: doing MCBS calculation for fragment   1
 Leave Link  122 at Sun May 10 13:33:58 2020, MaxMem= 1073741824 cpu:       0.0
 (Enter /home/matheus/.gaussian/g09/l301.exe)
 Basis read from rwf:  (5D, 7F)
 No pseudopotential information found on rwf file.
 There are   138 symmetry adapted basis functions of A   symmetry.
 Integral buffers will be    131072 words long.
 Raffenetti 2 integral format.
 Two-electron integral symmetry is turned on.
   138 basis functions,   198 primitive gaussians,   160 cartesian basis functions
     9 alpha electrons        9 beta electrons
       nuclear repulsion energy        36.6321546607 Hartrees.
 IExCor= 4639 DFT=T Ex+Corr=wB97XD ExCW=0 ScaHFX=  1.000000
 ScaDFX=  1.000000  1.000000  1.000000  1.000000 ScalE2=  1.000000  1.000000
 IRadAn=      5 IRanWt=     -1 IRanGd=            0 ICorTp=0
  HFx wShort=  0.000000 wLong=  0.200000 cFull=  0.222036 cShort=  0.000000 cLong=  0.777964
  DFx wShort=  0.000000 wLong=  0.200000 cFull=  0.000000 cShort=  0.000000 cLong=  1.000000
 NAtoms=    5 NActive=    4 NUniq=    4 SFac= 1.00D+00 NAtFMM=   60 NAOKFM=F Big=F
 R6Disp: Dispersion energy =        -0.0002567696 Hartrees.
 Nuclear repulsion after empirical dispersion term =       36.6318978911 Hartrees.
 No density basis found on file   718.
 Leave Link  301 at Sun May 10 13:33:58 2020, MaxMem= 1073741824 cpu:       0.2
 (Enter /home/matheus/.gaussian/g09/l302.exe)
 NPDir=0 NMtPBC=     1 NCelOv=     1 NCel=       1 NClECP=     1 NCelD=      1
         NCelK=      1 NCelE2=     1 NClLst=     1 CellRange=     0.0.
 One-electron integrals computed using PRISM.
 NBasis=   138 RedAO= T  NBF=   138
 NBsUse=   138 1.00D-06 NBFU=   138
 Precomputing XC quadrature grid using
 IXCGrd= 2 IRadAn=           5 IRanWt=          -1 IRanGd=           0 AccXCQ= 0.00D+00.
 NRdTot=     344 NPtTot=       92556 NUsed=       95038 NTot=       95070
 NSgBfM=   160   160   160   160   160 NAtAll=     4     4.
 Leave Link  302 at Sun May 10 13:33:58 2020, MaxMem= 1073741824 cpu:       0.8
 (Enter /home/matheus/.gaussian/g09/l303.exe)
 DipDrv:  MaxL=1.
 Leave Link  303 at Sun May 10 13:33:58 2020, MaxMem= 1073741824 cpu:       0.1
 (Enter /home/matheus/.gaussian/g09/l401.exe)
 Initial guess read from the read-write file.
 Guess basis will be translated and rotated to current coordinates.
 Initial guess orbital symmetries:
       Occupied  (A) (A) (A) (A) (A) (A) (A) (A) (A)
       Virtual   (A) (A) (A) (A) (A) (A) (A) (A) (A) (A) (A) (A)
                 (A) (A) (A) (A) (A) (A) (A) (A) (A) (A) (A) (A)
                 (A) (A) (A) (A) (A) (A) (A) (A) (A) (A) (A) (A)
                 (A) (A) (A) (A) (A) (A) (A) (A) (A) (A) (A) (A)
                 (A) (A) (A) (A) (A) (A) (A) (A) (A) (A) (A) (A)
                 (A) (A) (A) (A) (A) (A) (A) (A) (A) (A) (A) (A)
                 (A) (A) (A) (A) (A) (A) (A) (A) (A) (A) (A) (A)
                 (A) (A) (A) (A) (A) (A) (A) (A) (A) (A) (A) (A)
                 (A) (A) (A) (A) (A) (A) (A) (A) (A) (A) (A) (A)
                 (A) (A) (A) (A) (A) (A) (A) (A) (A) (A) (A) (A)
                 (A) (A) (A) (A) (A) (A) (A) (A) (A)
 The electronic state of the initial guess is 1-A.
 Generating alternative initial guess.
 Harris functional with IExCor= 4639 diagonalized for initial guess.
 ExpMin= 2.53D-02 ExpMax= 1.53D+04 ExpMxC= 5.22D+02 IAcc=3 IRadAn=         5 AccDes= 0.00D+00
 HarFok:  IExCor= 4639 AccDes= 0.00D+00 IRadAn=         5 IDoV= 1
 ScaDFX=  1.000000  1.000000  1.000000  1.000000
 FoFCou: FMM=F IPFlag=           0 FMFlag=      100000 FMFlg1=           0
         NFxFlg=           0 DoJE=T BraDBF=F KetDBF=T FulRan=T
         Omega=  0.000000  0.000000  1.000000  0.000000  0.000000 ICntrl=     500 IOpCl=  0
         NMat0=    1 NMatS0=    1 NMatT0=    0 NMatD0=    1 NMtDS0=    0 NMtDT0=    0
         I1Cent=           4 NGrid=           0.
 Petite list used in FoFCou.
 Harris En= -146.295641262749    
 Leave Link  401 at Sun May 10 13:33:58 2020, MaxMem= 1073741824 cpu:       2.5
 (Enter /home/matheus/.gaussian/g09/l502.exe)
 Closed shell SCF:
 Requested convergence on RMS density matrix=1.00D-08 within 128 cycles.
 Requested convergence on MAX density matrix=1.00D-06.
 Requested convergence on             energy=1.00D-06.
 No special actions if energy rises.
 Using DIIS extrapolation, IDIIS=  1040.
 Integral symmetry usage will be decided dynamically.
        94980 words used for storage of precomputed grid.
 IEnd=      192360 IEndB=      192360 NGot=  1073741824 MDV=  1073591865
 LenX=  1073591865 LenY=  1073565824
 Fock matrices will be formed incrementally for  20 cycles.

 Cycle   1  Pass 1  IDiag  1:
 FoFJK:  IHMeth= 1 ICntrl=     0 DoSepK=T KAlg= 1 I1Cent= 0 FoldK=F
 FoFCou: FMM=F IPFlag=           0 FMFlag=      100000 FMFlg1=           0
         NFxFlg=           0 DoJE=T BraDBF=F KetDBF=F FulRan=T
         Omega=  0.000000  0.000000  1.000000  0.000000  0.000000 ICntrl=     500 IOpCl=  0
         NMat0=    1 NMatS0=    1 NMatT0=    0 NMatD0=    1 NMtDS0=    0 NMtDT0=    0
         I1Cent=           0 NGrid=           0.
 Symmetry not used in FoFCou.
 E= -151.561252049120    
 DIIS: error= 8.18D-06 at cycle   1 NSaved=   1.
 NSaved= 1 IEnMin= 1 EnMin= -151.561252049120     IErMin= 1 ErrMin= 8.18D-06
 ErrMax= 8.18D-06 EMaxC= 1.00D-01 BMatC= 1.87D-08 BMatP= 1.87D-08
 IDIUse=1 WtCom= 1.00D+00 WtEn= 0.00D+00
 Coeff-Com:  0.100D+01
 Coeff:      0.100D+01
 Gap=     0.418 Goal=   None    Shift=    0.000
 RMSDP=9.25D-07 MaxDP=2.22D-05              OVMax= 4.08D-05

 Cycle   2  Pass 1  IDiag  1:
 RMSU=  6.54D-07    CP:  1.00D+00
 FoFJK:  IHMeth= 1 ICntrl=     0 DoSepK=T KAlg= 1 I1Cent= 0 FoldK=F
 E= -151.561252068824     Delta-E=       -0.000000019704 Rises=F Damp=F
 DIIS: error= 1.83D-06 at cycle   2 NSaved=   2.
 NSaved= 2 IEnMin= 2 EnMin= -151.561252068824     IErMin= 2 ErrMin= 1.83D-06
 ErrMax= 1.83D-06 EMaxC= 1.00D-01 BMatC= 5.77D-10 BMatP= 1.87D-08
 IDIUse=1 WtCom= 1.00D+00 WtEn= 0.00D+00
 Coeff-Com: -0.101D+00 0.110D+01
 Coeff:     -0.101D+00 0.110D+01
 Gap=     0.418 Goal=   None    Shift=    0.000
 RMSDP=2.65D-07 MaxDP=7.81D-06 DE=-1.97D-08 OVMax= 1.31D-05

 Cycle   3  Pass 1  IDiag  1:
 RMSU=  1.04D-07    CP:  1.00D+00  1.24D+00
 FoFJK:  IHMeth= 1 ICntrl=     0 DoSepK=T KAlg= 1 I1Cent= 0 FoldK=F
 E= -151.561252070029     Delta-E=       -0.000000001205 Rises=F Damp=F
 DIIS: error= 6.87D-07 at cycle   3 NSaved=   3.
 NSaved= 3 IEnMin= 3 EnMin= -151.561252070029     IErMin= 3 ErrMin= 6.87D-07
 ErrMax= 6.87D-07 EMaxC= 1.00D-01 BMatC= 6.86D-11 BMatP= 5.77D-10
 IDIUse=1 WtCom= 1.00D+00 WtEn= 0.00D+00
 Coeff-Com: -0.281D-01 0.143D+00 0.885D+00
 Coeff:     -0.281D-01 0.143D+00 0.885D+00
 Gap=     0.418 Goal=   None    Shift=    0.000
 RMSDP=7.86D-08 MaxDP=2.22D-06 DE=-1.21D-09 OVMax= 4.98D-06

 Cycle   4  Pass 1  IDiag  1:
 RMSU=  4.04D-08    CP:  1.00D+00  1.28D+00  1.22D+00
 FoFJK:  IHMeth= 1 ICntrl=     0 DoSepK=T KAlg= 1 I1Cent= 0 FoldK=F
 E= -151.561252070104     Delta-E=       -0.000000000075 Rises=F Damp=F
 DIIS: error= 6.45D-07 at cycle   4 NSaved=   4.
 NSaved= 4 IEnMin= 4 EnMin= -151.561252070104     IErMin= 4 ErrMin= 6.45D-07
 ErrMax= 6.45D-07 EMaxC= 1.00D-01 BMatC= 5.83D-11 BMatP= 6.86D-11
 IDIUse=1 WtCom= 1.00D+00 WtEn= 0.00D+00
 Coeff-Com: -0.230D-02-0.704D-01 0.503D+00 0.570D+00
 Coeff:     -0.230D-02-0.704D-01 0.503D+00 0.570D+00
 Gap=     0.418 Goal=   None    Shift=    0.000
 RMSDP=3.47D-08 MaxDP=7.37D-07 DE=-7.47D-11 OVMax= 2.15D-06

 Cycle   5  Pass 1  IDiag  1:
 RMSU=  1.18D-08    CP:  1.00D+00  1.30D+00  1.36D+00  6.69D-01
 FoFJK:  IHMeth= 1 ICntrl=     0 DoSepK=T KAlg= 1 I1Cent= 0 FoldK=F
 E= -151.561252070149     Delta-E=       -0.000000000045 Rises=F Damp=F
 DIIS: error= 1.14D-07 at cycle   5 NSaved=   5.
 NSaved= 5 IEnMin= 5 EnMin= -151.561252070149     IErMin= 5 ErrMin= 1.14D-07
 ErrMax= 1.14D-07 EMaxC= 1.00D-01 BMatC= 2.68D-12 BMatP= 5.83D-11
 IDIUse=1 WtCom= 1.00D+00 WtEn= 0.00D+00
 Coeff-Com:  0.444D-02-0.483D-01-0.467D-01 0.143D+00 0.947D+00
 Coeff:      0.444D-02-0.483D-01-0.467D-01 0.143D+00 0.947D+00
 Gap=     0.418 Goal=   None    Shift=    0.000
 RMSDP=1.65D-08 MaxDP=3.38D-07 DE=-4.52D-11 OVMax= 1.26D-06

 Cycle   6  Pass 1  IDiag  1:
 RMSU=  4.06D-09    CP:  1.00D+00  1.31D+00  1.43D+00  8.10D-01  1.30D+00
 FoFJK:  IHMeth= 1 ICntrl=     0 DoSepK=T KAlg= 1 I1Cent= 0 FoldK=F
 E= -151.561252070155     Delta-E=       -0.000000000006 Rises=F Damp=F
 DIIS: error= 2.55D-08 at cycle   6 NSaved=   6.
 NSaved= 6 IEnMin= 6 EnMin= -151.561252070155     IErMin= 6 ErrMin= 2.55D-08
 ErrMax= 2.55D-08 EMaxC= 1.00D-01 BMatC= 9.47D-14 BMatP= 2.68D-12
 IDIUse=1 WtCom= 1.00D+00 WtEn= 0.00D+00
 Coeff-Com: -0.199D-03 0.812D-02-0.297D-01-0.387D-01-0.247D-01 0.109D+01
 Coeff:     -0.199D-03 0.812D-02-0.297D-01-0.387D-01-0.247D-01 0.109D+01
 Gap=     0.418 Goal=   None    Shift=    0.000
 RMSDP=4.77D-09 MaxDP=1.09D-07 DE=-5.85D-12 OVMax= 4.09D-07

 SCF Done:  E(RwB97XD) =  -151.561252070     A.U. after    6 cycles
             Convg  =    0.4774D-08             -V/T =  2.0059
 KE= 1.506795069817D+02 PE=-4.317463607479D+02 EE= 9.287370380494D+01
 Leave Link  502 at Sun May 10 13:34:04 2020, MaxMem= 1073741824 cpu:      44.8
 (Enter /home/matheus/.gaussian/g09/l122.exe)
 Restoring MOs from calculation   5 to rwf.
 Counterpoise: doing MCBS calculation for fragment   2
 Leave Link  122 at Sun May 10 13:34:04 2020, MaxMem= 1073741824 cpu:       0.0
 (Enter /home/matheus/.gaussian/g09/l301.exe)
 Basis read from rwf:  (5D, 7F)
 No pseudopotential information found on rwf file.
 There are    59 symmetry adapted basis functions of A   symmetry.
 Integral buffers will be    131072 words long.
 Raffenetti 2 integral format.
 Two-electron integral symmetry is turned on.
    59 basis functions,   217 primitive gaussians,    69 cartesian basis functions
    18 alpha electrons       18 beta electrons
       nuclear repulsion energy         0.0000000000 Hartrees.
 IExCor= 4639 DFT=T Ex+Corr=wB97XD ExCW=0 ScaHFX=  1.000000
 ScaDFX=  1.000000  1.000000  1.000000  1.000000 ScalE2=  1.000000  1.000000
 IRadAn=      5 IRanWt=     -1 IRanGd=            0 ICorTp=0
  HFx wShort=  0.000000 wLong=  0.200000 cFull=  0.222036 cShort=  0.000000 cLong=  0.777964
  DFx wShort=  0.000000 wLong=  0.200000 cFull=  0.000000 cShort=  0.000000 cLong=  1.000000
 NAtoms=    5 NActive=    1 NUniq=    1 SFac= 1.00D+00 NAtFMM=   60 NAOKFM=F Big=F
 R6Disp: Dispersion energy =         0.0000000000 Hartrees.
 Nuclear repulsion after empirical dispersion term =        0.0000000000 Hartrees.
 No density basis found on file   718.
 Leave Link  301 at Sun May 10 13:34:04 2020, MaxMem= 1073741824 cpu:       0.2
 (Enter /home/matheus/.gaussian/g09/l302.exe)
 NPDir=0 NMtPBC=     1 NCelOv=     1 NCel=       1 NClECP=     1 NCelD=      1
         NCelK=      1 NCelE2=     1 NClLst=     1 CellRange=     0.0.
 One-electron integrals computed using PRISM.
 NBasis=    59 RedAO= T  NBF=    59
 NBsUse=    59 1.00D-06 NBFU=    59
 Precomputing XC quadrature grid using
 IXCGrd= 2 IRadAn=           5 IRanWt=          -1 IRanGd=           0 AccXCQ= 0.00D+00.
 NRdTot=      81 NPtTot=       30352 NUsed=       30981 NTot=       31013
 NSgBfM=    69    69    69    69    69 NAtAll=     1     1.
 Leave Link  302 at Sun May 10 13:34:04 2020, MaxMem= 1073741824 cpu:       0.6
 (Enter /home/matheus/.gaussian/g09/l303.exe)
 DipDrv:  MaxL=1.
 Leave Link  303 at Sun May 10 13:34:04 2020, MaxMem= 1073741824 cpu:       0.1
 (Enter /home/matheus/.gaussian/g09/l401.exe)
 Initial guess read from the read-write file.
 Guess basis will be translated and rotated to current coordinates.
 Initial guess orbital symmetries:
       Occupied  (A) (A) (A) (A) (A) (A) (A) (A) (A) (A) (A) (A)
                 (A) (A) (A) (A) (A) (A)
       Virtual   (A) (A) (A) (A) (A) (A) (A) (A) (A) (A) (A) (A)
                 (A) (A) (A) (A) (A) (A) (A) (A) (A) (A) (A) (A)
                 (A) (A) (A) (A) (A) (A) (A) (A) (A) (A) (A) (A)
                 (A) (A) (A) (A) (A)
 The electronic state of the initial guess is 1-A.
 Generating alternative initial guess.
 Harris functional with IExCor= 4639 diagonalized for initial guess.
 ExpMin= 4.00D-02 ExpMax= 1.17D+07 ExpMxC= 1.33D+04 IAcc=3 IRadAn=         5 AccDes= 0.00D+00
 HarFok:  IExCor= 4639 AccDes= 0.00D+00 IRadAn=         5 IDoV= 1
 ScaDFX=  1.000000  1.000000  1.000000  1.000000
 FoFCou: FMM=F IPFlag=           0 FMFlag=      100000 FMFlg1=           0
         NFxFlg=           0 DoJE=T BraDBF=F KetDBF=T FulRan=T
         Omega=  0.000000  0.000000  1.000000  0.000000  0.000000 ICntrl=     500 IOpCl=  0
         NMat0=    1 NMatS0=    1 NMatT0=    0 NMatD0=    1 NMtDS0=    0 NMtDT0=    0
         I1Cent=           4 NGrid=           0.
 Petite list used in FoFCou.
 Harris En= -2730.20235208354    
 Leave Link  401 at Sun May 10 13:34:04 2020, MaxMem= 1073741824 cpu:       1.0
 (Enter /home/matheus/.gaussian/g09/l502.exe)
 Closed shell SCF:
 Requested convergence on RMS density matrix=1.00D-08 within 128 cycles.
 Requested convergence on MAX density matrix=1.00D-06.
 Requested convergence on             energy=1.00D-06.
 No special actions if energy rises.
 Using DIIS extrapolation, IDIIS=  1040.
 Integral symmetry usage will be decided dynamically.
        30923 words used for storage of precomputed grid.
 IEnd=       64406 IEndB=       64406 NGot=  1073741824 MDV=  1073698889
 LenX=  1073698889 LenY=  1073693687
 Fock matrices will be formed incrementally for  20 cycles.

 Cycle   1  Pass 1  IDiag  1:
 FoFJK:  IHMeth= 1 ICntrl=     0 DoSepK=T KAlg= 1 I1Cent= 0 FoldK=F
 FoFCou: FMM=F IPFlag=           0 FMFlag=      100000 FMFlg1=           0
         NFxFlg=           0 DoJE=T BraDBF=F KetDBF=F FulRan=T
         Omega=  0.000000  0.000000  1.000000  0.000000  0.000000 ICntrl=     500 IOpCl=  0
         NMat0=    1 NMatS0=    1 NMatT0=    0 NMatD0=    1 NMtDS0=    0 NMtDT0=    0
         I1Cent=           0 NGrid=           0.
 Symmetry not used in FoFCou.
 E= -2753.87421986326    
 DIIS: error= 8.60D-14 at cycle   1 NSaved=   1.
 NSaved= 1 IEnMin= 1 EnMin= -2753.87421986326     IErMin= 1 ErrMin= 8.60D-14
 ErrMax= 8.60D-14 EMaxC= 1.00D-01 BMatC= 8.33D-25 BMatP= 8.33D-25
 IDIUse=1 WtCom= 1.00D+00 WtEn= 0.00D+00
 Coeff-Com:  0.100D+01
 Coeff:      0.100D+01
 Gap=     0.562 Goal=   None    Shift=    0.000
 DSYEVD returned Info=          89 IAlg= 4 N=    59 NDim=    59 NE2=    18198197 trying DSYEV.
 RMSDP=1.10D-14 MaxDP=1.64D-13              OVMax= 1.51D-13

 SCF Done:  E(RwB97XD) =  -2753.87421986     A.U. after    1 cycles
             Convg  =    0.1100D-13             -V/T =  2.0013
 KE= 2.750300381543D+03 PE=-6.580241205809D+03 EE= 1.076066604402D+03
 Leave Link  502 at Sun May 10 13:34:06 2020, MaxMem= 1073741824 cpu:      11.7
 (Enter /home/matheus/.gaussian/g09/l122.exe)
 Restoring MOs from calculation   1 to rwf.
 Counterpoise: corrected energy =   -2905.435793495758
 Counterpoise: BSSE energy =       0.000022120963
 Leave Link  122 at Sun May 10 13:34:06 2020, MaxMem= 1073741824 cpu:       0.0
 (Enter /home/matheus/.gaussian/g09/l108.exe)
 Scan completed.

 Summary of the potential surface scan:
   N      R1          SCF    
 ----  ---------  -----------
    1     3.0000  -2753.87422
    2     3.1000  -2753.87422
    3     3.2000  -2753.87422
    4     3.3000  -2753.87422
    5     3.4000  -2753.87422
    6     3.5000  -2753.87422
    7     3.6000  -2753.87422
    8     3.7000  -2753.87422
    9     3.8000  -2753.87422
   10     3.9000  -2753.87422
   11     4.0000  -2753.87422
   12     4.1000  -2753.87422
   13     4.2000  -2753.87422
   14     4.3000  -2753.87422
   15     4.4000  -2753.87422
   16     4.5000  -2753.87422
   17     4.6000  -2753.87422
   18     4.7000  -2753.87422
   19     4.8000  -2753.87422
   20     4.9000  -2753.87422
   21     5.0000  -2753.87422
 ----  ---------  -----------
  
 Leave Link  108 at Sun May 10 13:34:06 2020, MaxMem= 1073741824 cpu:       0.0
 (Enter /home/matheus/.gaussian/g09/l9999.exe)
 1\1\GINC-REDGIANT\Scan\RwB97XD\Aug-CC-pVTZ\H2Kr1O2\MATHEUS\10-May-2020
 \1\\#p wb97xd/aug-cc-PVTz int=ultrafine counterpoise=2 Scan\\TCC\\0,1\
 O,0,0.,0.,0.725\O,0,0.,0.,-0.725\H,0,-0.9047631646,0.1595341571,1.0235
 104166\H,0,0.,0.9187205947,-1.0235104166\Kr,0,0.,R1,0.\\R1=3.,s,20,0.1
 \\Version=EM64L-G09RevC.01\State=1-A\HF=-2753.8742199,-2753.8742199,-2
 753.8742199,-2753.8742199,-2753.8742199,-2753.8742199,-2753.8742199,-2
 753.8742199,-2753.8742199,-2753.8742199,-2753.8742199,-2753.8742199,-2
 753.8742199,-2753.8742199,-2753.8742199,-2753.8742199,-2753.8742199,-2
 753.8742199,-2753.8742199,-2753.8742199,-2753.8742199\RMSD=9.120e-09,1
 .920e-10,6.363e-11,4.203e-11,2.496e-11,1.569e-11,9.715e-12,6.056e-12,3
 .770e-12,2.344e-12,1.452e-12,9.019e-13,5.692e-13,3.604e-13,2.205e-13,1
 .365e-13,8.205e-14,5.449e-14,3.589e-14,2.094e-14,1.100e-14\PG=C01 [X(H
 2Kr1O2)]\\@


 GARLIC THEN HAVE POWER TO SAVE FROM DEATH
 BEAR WITH IT THOUGH IT MAKETH UNSAVORY BREATH,
 AND SCORN NOT GARLIC LIKE SOME THAT THINK
 IT ONLY MAKETH MEN WINK AND DRINK AND STINK.
   --  SIR JOHN HARRINGTON,
       "THE ENGLISHMAN'S DOCTOR", 1609
 Job cpu time:  0 days  3 hours 13 minutes  4.0 seconds.
 File lengths (MBytes):  RWF=     33 Int=      0 D2E=      0 Chk=      8 Scr=      1
 Normal termination of Gaussian 09 at Sun May 10 13:34:06 2020.
