 Entering Gaussian System, Link 0=g09
 Input=/home/matheus/.tcc/Inputs/Inputs-wb97xd-default/H2O2-Kr_24.com
 Output=/home/matheus/.tcc/Logs/Logs-wb97xd-default/H2O2-Kr_24.log
 Initial command:
 /home/matheus/.gaussian/g09/l1.exe /home/matheus/.gaussian/g09/scratch/Gau-15967.inp -scrdir=/home/matheus/.gaussian/g09/scratch/
 Entering Link 1 = /home/matheus/.gaussian/g09/l1.exe PID=     15971.
  
 Copyright (c) 1988,1990,1992,1993,1995,1998,2003,2009,2011,
            Gaussian, Inc.  All Rights Reserved.
  
 This is part of the Gaussian(R) 09 program.  It is based on
 the Gaussian(R) 03 system (copyright 2003, Gaussian, Inc.),
 the Gaussian(R) 98 system (copyright 1998, Gaussian, Inc.),
 the Gaussian(R) 94 system (copyright 1995, Gaussian, Inc.),
 the Gaussian 92(TM) system (copyright 1992, Gaussian, Inc.),
 the Gaussian 90(TM) system (copyright 1990, Gaussian, Inc.),
 the Gaussian 88(TM) system (copyright 1988, Gaussian, Inc.),
 the Gaussian 86(TM) system (copyright 1986, Carnegie Mellon
 University), and the Gaussian 82(TM) system (copyright 1983,
 Carnegie Mellon University). Gaussian is a federally registered
 trademark of Gaussian, Inc.
  
 This software contains proprietary and confidential information,
 including trade secrets, belonging to Gaussian, Inc.
  
 This software is provided under written license and may be
 used, copied, transmitted, or stored only in accord with that
 written license.
  
 The following legend is applicable only to US Government
 contracts under FAR:
  
                    RESTRICTED RIGHTS LEGEND
  
 Use, reproduction and disclosure by the US Government is
 subject to restrictions as set forth in subparagraphs (a)
 and (c) of the Commercial Computer Software - Restricted
 Rights clause in FAR 52.227-19.
  
 Gaussian, Inc.
 340 Quinnipiac St., Bldg. 40, Wallingford CT 06492
  
  
 ---------------------------------------------------------------
 Warning -- This program may not be used in any manner that
 competes with the business of Gaussian, Inc. or will provide
 assistance to any competitor of Gaussian, Inc.  The licensee
 of this program is prohibited from giving any competitor of
 Gaussian, Inc. access to this program.  By using this program,
 the user acknowledges that Gaussian, Inc. is engaged in the
 business of creating and licensing software in the field of
 computational chemistry and represents and warrants to the
 licensee that it is not a competitor of Gaussian, Inc. and that
 it will not use this program in any manner prohibited above.
 ---------------------------------------------------------------
  

 Cite this work as:
 Gaussian 09, Revision C.01,
 M. J. Frisch, G. W. Trucks, H. B. Schlegel, G. E. Scuseria, 
 M. A. Robb, J. R. Cheeseman, G. Scalmani, V. Barone, B. Mennucci, 
 G. A. Petersson, H. Nakatsuji, M. Caricato, X. Li, H. P. Hratchian, 
 A. F. Izmaylov, J. Bloino, G. Zheng, J. L. Sonnenberg, M. Hada, 
 M. Ehara, K. Toyota, R. Fukuda, J. Hasegawa, M. Ishida, T. Nakajima, 
 Y. Honda, O. Kitao, H. Nakai, T. Vreven, J. A. Montgomery, Jr., 
 J. E. Peralta, F. Ogliaro, M. Bearpark, J. J. Heyd, E. Brothers, 
 K. N. Kudin, V. N. Staroverov, T. Keith, R. Kobayashi, J. Normand, 
 K. Raghavachari, A. Rendell, J. C. Burant, S. S. Iyengar, J. Tomasi, 
 M. Cossi, N. Rega, J. M. Millam, M. Klene, J. E. Knox, J. B. Cross, 
 V. Bakken, C. Adamo, J. Jaramillo, R. Gomperts, R. E. Stratmann, 
 O. Yazyev, A. J. Austin, R. Cammi, C. Pomelli, J. W. Ochterski, 
 R. L. Martin, K. Morokuma, V. G. Zakrzewski, G. A. Voth, 
 P. Salvador, J. J. Dannenberg, S. Dapprich, A. D. Daniels, 
 O. Farkas, J. B. Foresman, J. V. Ortiz, J. Cioslowski, 
 and D. J. Fox, Gaussian, Inc., Wallingford CT, 2010.
 
 ******************************************
 Gaussian 09:  EM64L-G09RevC.01 23-Sep-2011
                10-May-2020 
 ******************************************
 %mem=8GB
 %nproc=8
 Will use up to    8 processors via shared memory.
 -------------------------------------------------------
 #p wb97xd/aug-cc-PVTz int=ultrafine counterpoise=2 Scan
 -------------------------------------------------------
 1/38=1,60=1,62=2/1,8;
 2/12=2,17=6,18=5,29=3,40=1/2;
 1/38=1,53=5172,62=2/22;
 3/5=16,6=1,7=10,11=2,16=1,25=1,30=1,74=-58,75=-5/1,2,3;
 4//1;
 5/5=2,38=5/2;
 6/7=2,8=2,9=2,10=2,18=1,28=1/1;
 1/53=4052,62=2,63=1/22;
 3/5=7,6=11,7=10,11=2,16=1,25=1,30=1,74=-58,75=-5,82=7/1,2,3;
 4//1;
 5/5=2,38=5/2;
 6/7=2,8=2,9=2,10=2,18=1,28=1/1;
 1/53=3042,62=2,63=2/22;
 3/5=7,6=11,7=10,11=2,16=1,25=1,30=1,74=-58,75=-5,82=7/1,2,3;
 4//1;
 5/5=2,38=5/2;
 6/7=2,8=2,9=2,10=2,18=1,28=1/1;
 1/53=2032,62=2,63=3/22;
 3/5=7,6=11,7=10,11=2,16=1,25=1,30=1,74=-58,75=-5,82=7/1,2,3;
 4//1;
 5/5=2,38=5/2;
 6/7=2,8=2,9=2,10=2,18=1,28=1/1;
 1/53=1022,62=2,63=4/22;
 3/5=7,6=11,7=10,11=2,16=1,25=1,30=1,74=-58,75=-5,82=7/1,2,3;
 4//1;
 5/5=2,38=5/2;
 6/7=2,8=2,9=2,10=2,18=1,28=1/1;
 1/53=5014,62=2,63=5/22;
 1/60=1,62=2/8(1);
 99/9=1/99;
 2/29=3/2;
 1/53=5173,62=2/22;
 3/5=7,6=11,7=10,11=2,16=1,25=1,30=1,74=-58,75=-5,82=7/1,2,3;
 4/5=5,16=3/1;
 5/5=2,38=5/2;
 1/53=4053,62=2,63=1/22;
 3/5=7,6=11,7=10,11=2,16=1,25=1,30=1,74=-58,75=-5,82=7/1,2,3;
 4/5=5,16=3/1;
 5/5=2,38=5/2;
 1/53=3043,62=2,63=2/22;
 3/5=7,6=11,7=10,11=2,16=1,25=1,30=1,74=-58,75=-5,82=7/1,2,3;
 4/5=5,16=3/1;
 5/5=2,38=5/2;
 1/53=2033,62=2,63=3/22;
 3/5=7,6=11,7=10,11=2,16=1,25=1,30=1,74=-58,75=-5,82=7/1,2,3;
 4/5=5,16=3/1;
 5/5=2,38=5/2;
 1/53=1024,62=2,63=4/22;
 3/5=7,6=11,7=10,11=2,16=1,25=1,30=1,74=-58,75=-5,82=7/1,2,3;
 4/5=5,16=3/1;
 5/5=2,38=5/2;
 1/53=5014,62=2,63=5/22;
 1/60=1,62=2/8(-22);
 99/9=1/99;
 Leave Link    1 at Sun May 10 11:31:57 2020, MaxMem= 1073741824 cpu:       0.1
 (Enter /home/matheus/.gaussian/g09/l101.exe)
 ---
 TCC
 ---
 Charge =  0 Multiplicity = 1 in supermolecule
 Charge =  0 Multiplicity = 1 in fragment  1.
 Charge =  0 Multiplicity = 1 in fragment  2.
 Symbolic Z-Matrix:
 O(Fragment=1)         0.        0.        0.725 
 O(Fragment=1)         0.        0.       -0.725 
 H(Fragment=1)        -0.79564  -0.45936   1.02351 
 H(Fragment=1)         0.        0.91872  -1.02351 
 Kr(Fragment=2)        0.       R1        0. 
       Variables:
  R1                    3.     Scan 20    0.1    
 
 NAtoms=      5 NQM=        0 NQMF=       0 NMMI=      5 NMMIF=      0
                NMic=       0 NMicF=      0.
                    Isotopes and Nuclear Properties:
 (Nuclear quadrupole moments (NQMom) in fm**2, nuclear magnetic moments (NMagM)
  in nuclear magnetons)

  Atom         1           2           3           4           5
 IAtWgt=          16          16           1           1          84
 AtmWgt=  15.9949146  15.9949146   1.0078250   1.0078250  83.9115064
 NucSpn=           0           0           1           1           0
 AtZEff=   0.0000000   0.0000000   0.0000000   0.0000000   0.0000000
 NQMom=    0.0000000   0.0000000   0.0000000   0.0000000   0.0000000
 NMagM=    0.0000000   0.0000000   2.7928460   2.7928460   0.0000000
 Leave Link  101 at Sun May 10 11:31:57 2020, MaxMem= 1073741824 cpu:       0.3
 (Enter /home/matheus/.gaussian/g09/l108.exe)
 Scan the potential surface.
 Variable   Value     No. Steps Step-Size
 -------- ----------- --------- ---------
     1       3.000000      20      0.1000
 A total of     21 points will be computed.
 Leave Link  108 at Sun May 10 11:31:57 2020, MaxMem= 1073741824 cpu:       0.0
 (Enter /home/matheus/.gaussian/g09/l202.exe)
 ---------------------------------------------------------------------------------------------------
                            Z-MATRIX (ANGSTROMS AND DEGREES)
   CD    Cent   Atom    N1       Length/X        N2       Alpha/Y        N3        Beta/Z          J
 ---------------------------------------------------------------------------------------------------
      1      1  O        0   0.000000          0.000000          0.725000
      2      2  O        0   0.000000          0.000000         -0.725000
      3      3  H        0  -0.795635         -0.459360          1.023510
      4      4  H        0   0.000000          0.918721         -1.023510
      5      5  Kr       0   0.000000          3.000000          0.000000
 ---------------------------------------------------------------------------------------------------
                         Z-Matrix orientation:                         
 ---------------------------------------------------------------------
 Center     Atomic      Atomic             Coordinates (Angstroms)
 Number     Number       Type             X           Y           Z
 ---------------------------------------------------------------------
      1          8           0        0.000000    0.000000    0.725000
      2          8           0        0.000000    0.000000   -0.725000
      3          1           0       -0.795635   -0.459360    1.023510
      4          1           0        0.000000    0.918721   -1.023510
      5         36           0        0.000000    3.000000    0.000000
 ---------------------------------------------------------------------
                    Distance matrix (angstroms):
                    1          2          3          4          5
     1  O    0.000000
     2  O    1.450000   0.000000
     3  H    0.966000   1.975180   0.000000
     4  H    1.975180   0.966000   2.592766   0.000000
     5  Kr   3.086361   3.086361   3.694291   2.319331   0.000000
 Stoichiometry    H2KrO2
 Framework group  C1[X(H2KrO2)]
 Deg. of freedom     9
 Full point group                 C1      NOp   1
 Largest Abelian subgroup         C1      NOp   1
 Largest concise Abelian subgroup C1      NOp   1
                         Standard orientation:                         
 ---------------------------------------------------------------------
 Center     Atomic      Atomic             Coordinates (Angstroms)
 Number     Number       Type             X           Y           Z
 ---------------------------------------------------------------------
      1          8           0       -2.018349   -0.689087   -0.106614
      2          8           0       -1.996994    0.756239    0.007743
      3          1           0       -2.496711   -1.041750    0.654934
      4          1           0       -1.074134    1.038958    0.047181
      5         36           0        0.991489   -0.014845    0.002468
 ---------------------------------------------------------------------
 Rotational constants (GHZ):     25.8792574      2.3237795      2.1427447
 Leave Link  202 at Sun May 10 11:31:57 2020, MaxMem= 1073741824 cpu:       0.0
 (Enter /home/matheus/.gaussian/g09/l122.exe)
 Leave Link  122 at Sun May 10 11:31:57 2020, MaxMem= 1073741824 cpu:       0.0
 (Enter /home/matheus/.gaussian/g09/l301.exe)
 Standard basis: Aug-CC-pVTZ (5D, 7F)
 Ernie: Thresh=  0.10000D-02 Tol=  0.10000D-05 Strict=F.
 Ernie:  38 primitive shells out of 205 were deleted.
 There are   197 symmetry adapted basis functions of A   symmetry.
 Integral buffers will be    131072 words long.
 Raffenetti 2 integral format.
 Two-electron integral symmetry is turned on.
   197 basis functions,   415 primitive gaussians,   229 cartesian basis functions
    27 alpha electrons       27 beta electrons
       nuclear repulsion energy       148.7418288716 Hartrees.
 IExCor= 4639 DFT=T Ex+Corr=wB97XD ExCW=0 ScaHFX=  1.000000
 ScaDFX=  1.000000  1.000000  1.000000  1.000000 ScalE2=  1.000000  1.000000
 IRadAn=      5 IRanWt=     -1 IRanGd=            0 ICorTp=0
  HFx wShort=  0.000000 wLong=  0.200000 cFull=  0.222036 cShort=  0.000000 cLong=  0.777964
  DFx wShort=  0.000000 wLong=  0.200000 cFull=  0.000000 cShort=  0.000000 cLong=  1.000000
 NAtoms=    5 NActive=    5 NUniq=    5 SFac= 1.00D+00 NAtFMM=   60 NAOKFM=F Big=F
 R6Disp: Dispersion energy =        -0.0008550556 Hartrees.
 Nuclear repulsion after empirical dispersion term =      148.7409738160 Hartrees.
 Leave Link  301 at Sun May 10 11:31:57 2020, MaxMem= 1073741824 cpu:       0.2
 (Enter /home/matheus/.gaussian/g09/l302.exe)
 NPDir=0 NMtPBC=     1 NCelOv=     1 NCel=       1 NClECP=     1 NCelD=      1
         NCelK=      1 NCelE2=     1 NClLst=     1 CellRange=     0.0.
 One-electron integrals computed using PRISM.
 NBasis=   197 RedAO= T  NBF=   197
 NBsUse=   197 1.00D-06 NBFU=   197
 Precomputing XC quadrature grid using
 IXCGrd= 2 IRadAn=           5 IRanWt=          -1 IRanGd=           0 AccXCQ= 0.00D+00.
 NRdTot=     427 NPtTot=      123512 NUsed=      126579 NTot=      126611
 NSgBfM=   229   229   229   229   229 NAtAll=     5     5.
 Leave Link  302 at Sun May 10 11:31:57 2020, MaxMem= 1073741824 cpu:       0.9
 (Enter /home/matheus/.gaussian/g09/l303.exe)
 DipDrv:  MaxL=1.
 Leave Link  303 at Sun May 10 11:31:57 2020, MaxMem= 1073741824 cpu:       0.2
 (Enter /home/matheus/.gaussian/g09/l401.exe)
 Harris functional with IExCor= 4639 diagonalized for initial guess.
 ExpMin= 2.53D-02 ExpMax= 1.17D+07 ExpMxC= 1.33D+04 IAcc=3 IRadAn=         5 AccDes= 0.00D+00
 HarFok:  IExCor= 4639 AccDes= 0.00D+00 IRadAn=         5 IDoV= 1
 ScaDFX=  1.000000  1.000000  1.000000  1.000000
 FoFCou: FMM=F IPFlag=           0 FMFlag=      100000 FMFlg1=           0
         NFxFlg=           0 DoJE=T BraDBF=F KetDBF=T FulRan=T
         Omega=  0.000000  0.000000  1.000000  0.000000  0.000000 ICntrl=     500 IOpCl=  0
         NMat0=    1 NMatS0=    1 NMatT0=    0 NMatD0=    1 NMtDS0=    0 NMtDT0=    0
         I1Cent=           4 NGrid=           0.
 Petite list used in FoFCou.
 Harris En= -2876.48983508451    
 Initial guess orbital symmetries:
       Occupied  (A) (A) (A) (A) (A) (A) (A) (A) (A) (A) (A) (A)
                 (A) (A) (A) (A) (A) (A) (A) (A) (A) (A) (A) (A)
                 (A) (A) (A)
       Virtual   (A) (A) (A) (A) (A) (A) (A) (A) (A) (A) (A) (A)
                 (A) (A) (A) (A) (A) (A) (A) (A) (A) (A) (A) (A)
                 (A) (A) (A) (A) (A) (A) (A) (A) (A) (A) (A) (A)
                 (A) (A) (A) (A) (A) (A) (A) (A) (A) (A) (A) (A)
                 (A) (A) (A) (A) (A) (A) (A) (A) (A) (A) (A) (A)
                 (A) (A) (A) (A) (A) (A) (A) (A) (A) (A) (A) (A)
                 (A) (A) (A) (A) (A) (A) (A) (A) (A) (A) (A) (A)
                 (A) (A) (A) (A) (A) (A) (A) (A) (A) (A) (A) (A)
                 (A) (A) (A) (A) (A) (A) (A) (A) (A) (A) (A) (A)
                 (A) (A) (A) (A) (A) (A) (A) (A) (A) (A) (A) (A)
                 (A) (A) (A) (A) (A) (A) (A) (A) (A) (A) (A) (A)
                 (A) (A) (A) (A) (A) (A) (A) (A) (A) (A) (A) (A)
                 (A) (A) (A) (A) (A) (A) (A) (A) (A) (A) (A) (A)
                 (A) (A) (A) (A) (A) (A) (A) (A) (A) (A) (A) (A)
                 (A) (A)
 The electronic state of the initial guess is 1-A.
 Leave Link  401 at Sun May 10 11:31:57 2020, MaxMem= 1073741824 cpu:       3.8
 (Enter /home/matheus/.gaussian/g09/l502.exe)
 Closed shell SCF:
 Requested convergence on RMS density matrix=1.00D-08 within 128 cycles.
 Requested convergence on MAX density matrix=1.00D-06.
 Requested convergence on             energy=1.00D-06.
 No special actions if energy rises.
 Using DIIS extrapolation, IDIIS=  1040.
 Integral symmetry usage will be decided dynamically.
       126521 words used for storage of precomputed grid.
 IEnd=      305468 IEndB=      305468 NGot=  1073741824 MDV=  1073505667
 LenX=  1073505667 LenY=  1073452785
 Fock matrices will be formed incrementally for  20 cycles.

 Cycle   1  Pass 1  IDiag  1:
 FoFJK:  IHMeth= 1 ICntrl=     0 DoSepK=T KAlg= 1 I1Cent= 0 FoldK=F
 FoFCou: FMM=F IPFlag=           0 FMFlag=      100000 FMFlg1=           0
         NFxFlg=           0 DoJE=T BraDBF=F KetDBF=F FulRan=T
         Omega=  0.000000  0.000000  1.000000  0.000000  0.000000 ICntrl=     500 IOpCl=  0
         NMat0=    1 NMatS0=    1 NMatT0=    0 NMatD0=    1 NMtDS0=    0 NMtDT0=    0
         I1Cent=           0 NGrid=           0.
 Symmetry not used in FoFCou.
 E= -2904.93654480924    
 DIIS: error= 6.14D-02 at cycle   1 NSaved=   1.
 NSaved= 1 IEnMin= 1 EnMin= -2904.93654480924     IErMin= 1 ErrMin= 6.14D-02
 ErrMax= 6.14D-02 EMaxC= 1.00D-01 BMatC= 2.17D+00 BMatP= 2.17D+00
 IDIUse=3 WtCom= 3.86D-01 WtEn= 6.14D-01
 Coeff-Com:  0.100D+01
 Coeff-En:   0.100D+01
 Coeff:      0.100D+01
 Gap=     0.518 Goal=   None    Shift=    0.000
 GapD=    0.518 DampG=2.000 DampE=0.500 DampFc=1.0000 IDamp=-1.
 RMSDP=6.14D-03 MaxDP=3.67D-01              OVMax= 1.77D-01

 Cycle   2  Pass 1  IDiag  1:
 RMSU=  4.31D-03    CP:  1.03D+00
 FoFJK:  IHMeth= 1 ICntrl=     0 DoSepK=T KAlg= 1 I1Cent= 0 FoldK=F
 E= -2905.22922982410     Delta-E=       -0.292685014855 Rises=F Damp=F
 DIIS: error= 3.00D-02 at cycle   2 NSaved=   2.
 NSaved= 2 IEnMin= 2 EnMin= -2905.22922982410     IErMin= 2 ErrMin= 3.00D-02
 ErrMax= 3.00D-02 EMaxC= 1.00D-01 BMatC= 5.64D-01 BMatP= 2.17D+00
 IDIUse=3 WtCom= 7.00D-01 WtEn= 3.00D-01
 Coeff-Com:  0.330D+00 0.670D+00
 Coeff-En:   0.218D+00 0.782D+00
 Coeff:      0.296D+00 0.704D+00
 Gap=     0.461 Goal=   None    Shift=    0.000
 RMSDP=2.70D-03 MaxDP=1.56D-01 DE=-2.93D-01 OVMax= 7.63D-02

 Cycle   3  Pass 1  IDiag  1:
 RMSU=  5.53D-04    CP:  1.02D+00  5.79D-01
 FoFJK:  IHMeth= 1 ICntrl=     0 DoSepK=T KAlg= 1 I1Cent= 0 FoldK=F
 E= -2905.42222782549     Delta-E=       -0.192998001388 Rises=F Damp=F
 DIIS: error= 6.23D-03 at cycle   3 NSaved=   3.
 NSaved= 3 IEnMin= 3 EnMin= -2905.42222782549     IErMin= 3 ErrMin= 6.23D-03
 ErrMax= 6.23D-03 EMaxC= 1.00D-01 BMatC= 1.78D-02 BMatP= 5.64D-01
 IDIUse=3 WtCom= 9.38D-01 WtEn= 6.23D-02
 Coeff-Com:  0.367D-01 0.189D+00 0.774D+00
 Coeff-En:   0.000D+00 0.000D+00 0.100D+01
 Coeff:      0.344D-01 0.177D+00 0.788D+00
 Gap=     0.423 Goal=   None    Shift=    0.000
 RMSDP=4.90D-04 MaxDP=2.17D-02 DE=-1.93D-01 OVMax= 2.60D-02

 Cycle   4  Pass 1  IDiag  1:
 RMSU=  2.40D-04    CP:  1.02D+00  6.34D-01  8.75D-01
 FoFJK:  IHMeth= 1 ICntrl=     0 DoSepK=T KAlg= 1 I1Cent= 0 FoldK=F
 E= -2905.43025508461     Delta-E=       -0.008027259129 Rises=F Damp=F
 DIIS: error= 2.63D-03 at cycle   4 NSaved=   4.
 NSaved= 4 IEnMin= 4 EnMin= -2905.43025508461     IErMin= 4 ErrMin= 2.63D-03
 ErrMax= 2.63D-03 EMaxC= 1.00D-01 BMatC= 2.06D-03 BMatP= 1.78D-02
 IDIUse=3 WtCom= 9.74D-01 WtEn= 2.63D-02
 Coeff-Com: -0.846D-03 0.517D-01 0.382D+00 0.567D+00
 Coeff-En:   0.000D+00 0.000D+00 0.000D+00 0.100D+01
 Coeff:     -0.824D-03 0.504D-01 0.372D+00 0.578D+00
 Gap=     0.408 Goal=   None    Shift=    0.000
 RMSDP=1.30D-04 MaxDP=7.80D-03 DE=-8.03D-03 OVMax= 7.62D-03

 Cycle   5  Pass 1  IDiag  1:
 RMSU=  4.01D-05    CP:  1.02D+00  6.33D-01  9.21D-01  6.78D-01
 FoFJK:  IHMeth= 1 ICntrl=     0 DoSepK=T KAlg= 1 I1Cent= 0 FoldK=F
 E= -2905.43149440634     Delta-E=       -0.001239321723 Rises=F Damp=F
 DIIS: error= 3.05D-04 at cycle   5 NSaved=   5.
 NSaved= 5 IEnMin= 5 EnMin= -2905.43149440634     IErMin= 5 ErrMin= 3.05D-04
 ErrMax= 3.05D-04 EMaxC= 1.00D-01 BMatC= 3.72D-05 BMatP= 2.06D-03
 IDIUse=3 WtCom= 9.97D-01 WtEn= 3.05D-03
 Coeff-Com: -0.107D-02 0.174D-01 0.145D+00 0.240D+00 0.599D+00
 Coeff-En:   0.000D+00 0.000D+00 0.000D+00 0.000D+00 0.100D+01
 Coeff:     -0.106D-02 0.174D-01 0.145D+00 0.239D+00 0.600D+00
 Gap=     0.407 Goal=   None    Shift=    0.000
 RMSDP=2.24D-05 MaxDP=1.04D-03 DE=-1.24D-03 OVMax= 1.71D-03

 Cycle   6  Pass 1  IDiag  1:
 RMSU=  1.53D-05    CP:  1.02D+00  6.32D-01  9.25D-01  6.91D-01  9.77D-01
 FoFJK:  IHMeth= 1 ICntrl=     0 DoSepK=T KAlg= 1 I1Cent= 0 FoldK=F
 E= -2905.43151448940     Delta-E=       -0.000020083062 Rises=F Damp=F
 DIIS: error= 1.54D-04 at cycle   6 NSaved=   6.
 NSaved= 6 IEnMin= 6 EnMin= -2905.43151448940     IErMin= 6 ErrMin= 1.54D-04
 ErrMax= 1.54D-04 EMaxC= 1.00D-01 BMatC= 8.09D-06 BMatP= 3.72D-05
 IDIUse=3 WtCom= 9.98D-01 WtEn= 1.54D-03
 Coeff-Com: -0.380D-03-0.522D-02-0.262D-01-0.326D-01 0.309D+00 0.755D+00
 Coeff-En:   0.000D+00 0.000D+00 0.000D+00 0.000D+00 0.130D+00 0.870D+00
 Coeff:     -0.379D-03-0.521D-02-0.262D-01-0.326D-01 0.309D+00 0.756D+00
 Gap=     0.407 Goal=   None    Shift=    0.000
 RMSDP=1.20D-05 MaxDP=4.39D-04 DE=-2.01D-05 OVMax= 6.24D-04

 Cycle   7  Pass 1  IDiag  1:
 RMSU=  4.09D-06    CP:  1.02D+00  6.32D-01  9.32D-01  6.98D-01  1.13D+00
                    CP:  9.26D-01
 FoFJK:  IHMeth= 1 ICntrl=     0 DoSepK=T KAlg= 1 I1Cent= 0 FoldK=F
 E= -2905.43152043268     Delta-E=       -0.000005943276 Rises=F Damp=F
 DIIS: error= 1.19D-05 at cycle   7 NSaved=   7.
 NSaved= 7 IEnMin= 7 EnMin= -2905.43152043268     IErMin= 7 ErrMin= 1.19D-05
 ErrMax= 1.19D-05 EMaxC= 1.00D-01 BMatC= 5.58D-08 BMatP= 8.09D-06
 IDIUse=1 WtCom= 1.00D+00 WtEn= 0.00D+00
 Coeff-Com:  0.996D-05-0.109D-02-0.785D-02-0.113D-01-0.104D-02 0.677D-01
 Coeff-Com:  0.954D+00
 Coeff:      0.996D-05-0.109D-02-0.785D-02-0.113D-01-0.104D-02 0.677D-01
 Coeff:      0.954D+00
 Gap=     0.407 Goal=   None    Shift=    0.000
 RMSDP=2.30D-06 MaxDP=5.82D-05 DE=-5.94D-06 OVMax= 1.71D-04

 Cycle   8  Pass 1  IDiag  1:
 RMSU=  9.08D-07    CP:  1.02D+00  6.32D-01  9.32D-01  6.99D-01  1.15D+00
                    CP:  9.71D-01  1.16D+00
 FoFJK:  IHMeth= 1 ICntrl=     0 DoSepK=T KAlg= 1 I1Cent= 0 FoldK=F
 E= -2905.43152054204     Delta-E=       -0.000000109362 Rises=F Damp=F
 DIIS: error= 2.64D-06 at cycle   8 NSaved=   8.
 NSaved= 8 IEnMin= 8 EnMin= -2905.43152054204     IErMin= 8 ErrMin= 2.64D-06
 ErrMax= 2.64D-06 EMaxC= 1.00D-01 BMatC= 3.37D-09 BMatP= 5.58D-08
 IDIUse=1 WtCom= 1.00D+00 WtEn= 0.00D+00
 Coeff-Com:  0.156D-04 0.115D-03 0.421D-03 0.292D-03-0.151D-01-0.293D-01
 Coeff-Com:  0.602D-01 0.983D+00
 Coeff:      0.156D-04 0.115D-03 0.421D-03 0.292D-03-0.151D-01-0.293D-01
 Coeff:      0.602D-01 0.983D+00
 Gap=     0.407 Goal=   None    Shift=    0.000
 RMSDP=6.38D-07 MaxDP=1.41D-05 DE=-1.09D-07 OVMax= 5.84D-05

 Cycle   9  Pass 1  IDiag  1:
 RMSU=  1.90D-07    CP:  1.02D+00  6.32D-01  9.32D-01  6.99D-01  1.16D+00
                    CP:  9.78D-01  1.22D+00  1.27D+00
 FoFJK:  IHMeth= 1 ICntrl=     0 DoSepK=T KAlg= 1 I1Cent= 0 FoldK=F
 E= -2905.43152055051     Delta-E=       -0.000000008476 Rises=F Damp=F
 DIIS: error= 1.00D-06 at cycle   9 NSaved=   9.
 NSaved= 9 IEnMin= 9 EnMin= -2905.43152055051     IErMin= 9 ErrMin= 1.00D-06
 ErrMax= 1.00D-06 EMaxC= 1.00D-01 BMatC= 3.04D-10 BMatP= 3.37D-09
 IDIUse=1 WtCom= 1.00D+00 WtEn= 0.00D+00
 Coeff-Com: -0.859D-06 0.662D-04 0.489D-03 0.548D-03-0.603D-03-0.414D-02
 Coeff-Com: -0.541D-01-0.166D-01 0.107D+01
 Coeff:     -0.859D-06 0.662D-04 0.489D-03 0.548D-03-0.603D-03-0.414D-02
 Coeff:     -0.541D-01-0.166D-01 0.107D+01
 Gap=     0.407 Goal=   None    Shift=    0.000
 RMSDP=2.03D-07 MaxDP=5.43D-06 DE=-8.48D-09 OVMax= 2.57D-05

 Cycle  10  Pass 1  IDiag  1:
 RMSU=  7.55D-08    CP:  1.02D+00  6.32D-01  9.32D-01  6.99D-01  1.16D+00
                    CP:  9.80D-01  1.23D+00  1.36D+00  1.34D+00
 FoFJK:  IHMeth= 1 ICntrl=     0 DoSepK=T KAlg= 1 I1Cent= 0 FoldK=F
 E= -2905.43152055153     Delta-E=       -0.000000001020 Rises=F Damp=F
 DIIS: error= 3.72D-07 at cycle  10 NSaved=  10.
 NSaved=10 IEnMin=10 EnMin= -2905.43152055153     IErMin=10 ErrMin= 3.72D-07
 ErrMax= 3.72D-07 EMaxC= 1.00D-01 BMatC= 3.70D-11 BMatP= 3.04D-10
 IDIUse=1 WtCom= 1.00D+00 WtEn= 0.00D+00
 Coeff-Com: -0.844D-06-0.436D-05-0.128D-04-0.126D-04 0.131D-02 0.274D-02
 Coeff-Com: -0.361D-02-0.111D+00 0.996D-01 0.101D+01
 Coeff:     -0.844D-06-0.436D-05-0.128D-04-0.126D-04 0.131D-02 0.274D-02
 Coeff:     -0.361D-02-0.111D+00 0.996D-01 0.101D+01
 Gap=     0.407 Goal=   None    Shift=    0.000
 RMSDP=6.95D-08 MaxDP=1.52D-06 DE=-1.02D-09 OVMax= 1.01D-05

 Cycle  11  Pass 1  IDiag  1:
 RMSU=  1.94D-08    CP:  1.02D+00  6.32D-01  9.32D-01  6.99D-01  1.16D+00
                    CP:  9.79D-01  1.23D+00  1.37D+00  1.51D+00  1.36D+00
 FoFJK:  IHMeth= 1 ICntrl=     0 DoSepK=T KAlg= 1 I1Cent= 0 FoldK=F
 E= -2905.43152055167     Delta-E=       -0.000000000135 Rises=F Damp=F
 DIIS: error= 1.29D-07 at cycle  11 NSaved=  11.
 NSaved=11 IEnMin=11 EnMin= -2905.43152055167     IErMin=11 ErrMin= 1.29D-07
 ErrMax= 1.29D-07 EMaxC= 1.00D-01 BMatC= 4.36D-12 BMatP= 3.70D-11
 IDIUse=1 WtCom= 1.00D+00 WtEn= 0.00D+00
 Coeff-Com:  0.347D-06-0.657D-05-0.559D-04-0.470D-04-0.178D-04 0.325D-03
 Coeff-Com:  0.763D-02-0.230D-02-0.110D+00-0.645D-01 0.117D+01
 Coeff:      0.347D-06-0.657D-05-0.559D-04-0.470D-04-0.178D-04 0.325D-03
 Coeff:      0.763D-02-0.230D-02-0.110D+00-0.645D-01 0.117D+01
 Gap=     0.407 Goal=   None    Shift=    0.000
 RMSDP=3.02D-08 MaxDP=6.84D-07 DE=-1.35D-10 OVMax= 4.41D-06

 Cycle  12  Pass 1  IDiag  1:
 RMSU=  5.91D-09    CP:  1.02D+00  6.32D-01  9.32D-01  6.99D-01  1.16D+00
                    CP:  9.79D-01  1.23D+00  1.38D+00  1.57D+00  1.56D+00
                    CP:  1.39D+00
 FoFJK:  IHMeth= 1 ICntrl=     0 DoSepK=T KAlg= 1 I1Cent= 0 FoldK=F
 E= -2905.43152055170     Delta-E=       -0.000000000030 Rises=F Damp=F
 DIIS: error= 3.51D-08 at cycle  12 NSaved=  12.
 NSaved=12 IEnMin=12 EnMin= -2905.43152055170     IErMin=12 ErrMin= 3.51D-08
 ErrMax= 3.51D-08 EMaxC= 1.00D-01 BMatC= 2.19D-13 BMatP= 4.36D-12
 IDIUse=1 WtCom= 1.00D+00 WtEn= 0.00D+00
 Coeff-Com:  0.742D-08-0.273D-06-0.121D-05-0.404D-05-0.111D-03-0.224D-03
 Coeff-Com:  0.504D-03 0.712D-02-0.360D-03-0.704D-01-0.753D-01 0.114D+01
 Coeff:      0.742D-08-0.273D-06-0.121D-05-0.404D-05-0.111D-03-0.224D-03
 Coeff:      0.504D-03 0.712D-02-0.360D-03-0.704D-01-0.753D-01 0.114D+01
 Gap=     0.407 Goal=   None    Shift=    0.000
 RMSDP=8.22D-09 MaxDP=1.93D-07 DE=-3.00D-11 OVMax= 1.06D-06

 SCF Done:  E(RwB97XD) =  -2905.43152055     A.U. after   12 cycles
             Convg  =    0.8220D-08             -V/T =  2.0015
 KE= 2.900978281012D+03 PE=-7.235861276588D+03 EE= 1.280710501208D+03
 Leave Link  502 at Sun May 10 11:32:41 2020, MaxMem= 1073741824 cpu:     347.4
 (Enter /home/matheus/.gaussian/g09/l601.exe)
 Copying SCF densities to generalized density rwf, IOpCl= 0 IROHF=0.

 **********************************************************************

            Population analysis using the SCF density.

 **********************************************************************

 Orbital symmetries:
       Occupied  (A) (A) (A) (A) (A) (A) (A) (A) (A) (A) (A) (A)
                 (A) (A) (A) (A) (A) (A) (A) (A) (A) (A) (A) (A)
                 (A) (A) (A)
       Virtual   (A) (A) (A) (A) (A) (A) (A) (A) (A) (A) (A) (A)
                 (A) (A) (A) (A) (A) (A) (A) (A) (A) (A) (A) (A)
                 (A) (A) (A) (A) (A) (A) (A) (A) (A) (A) (A) (A)
                 (A) (A) (A) (A) (A) (A) (A) (A) (A) (A) (A) (A)
                 (A) (A) (A) (A) (A) (A) (A) (A) (A) (A) (A) (A)
                 (A) (A) (A) (A) (A) (A) (A) (A) (A) (A) (A) (A)
                 (A) (A) (A) (A) (A) (A) (A) (A) (A) (A) (A) (A)
                 (A) (A) (A) (A) (A) (A) (A) (A) (A) (A) (A) (A)
                 (A) (A) (A) (A) (A) (A) (A) (A) (A) (A) (A) (A)
                 (A) (A) (A) (A) (A) (A) (A) (A) (A) (A) (A) (A)
                 (A) (A) (A) (A) (A) (A) (A) (A) (A) (A) (A) (A)
                 (A) (A) (A) (A) (A) (A) (A) (A) (A) (A) (A) (A)
                 (A) (A) (A) (A) (A) (A) (A) (A) (A) (A) (A) (A)
                 (A) (A) (A) (A) (A) (A) (A) (A) (A) (A) (A) (A)
                 (A) (A)
 The electronic state is 1-A.
 Alpha  occ. eigenvalues -- -513.06974 -67.33659 -60.88544 -60.88531 -60.88523
 Alpha  occ. eigenvalues --  -19.31761 -19.31368  -9.78968  -7.48302  -7.48256
 Alpha  occ. eigenvalues --   -7.48231  -3.35039  -3.35030  -3.35011  -3.34974
 Alpha  occ. eigenvalues --   -3.34972  -1.22056  -1.01069  -0.99593  -0.64236
 Alpha  occ. eigenvalues --   -0.58577  -0.51249  -0.48045  -0.47641  -0.46886
 Alpha  occ. eigenvalues --   -0.41365  -0.37158
 Alpha virt. eigenvalues --    0.03496   0.04213   0.07854   0.09648   0.10512
 Alpha virt. eigenvalues --    0.11766   0.13520   0.13876   0.16828   0.17821
 Alpha virt. eigenvalues --    0.17914   0.18934   0.20512   0.22076   0.23453
 Alpha virt. eigenvalues --    0.24081   0.25483   0.27830   0.30837   0.32945
 Alpha virt. eigenvalues --    0.33788   0.34670   0.35466   0.38172   0.39097
 Alpha virt. eigenvalues --    0.40402   0.41678   0.47170   0.51325   0.54585
 Alpha virt. eigenvalues --    0.55193   0.57798   0.60379   0.65200   0.66342
 Alpha virt. eigenvalues --    0.68952   0.70155   0.70868   0.73410   0.74140
 Alpha virt. eigenvalues --    0.74389   0.76444   0.76683   0.78767   0.80675
 Alpha virt. eigenvalues --    0.83778   0.84414   0.86747   0.88119   0.88657
 Alpha virt. eigenvalues --    0.91328   0.92472   0.93945   0.95415   0.98947
 Alpha virt. eigenvalues --    0.99575   1.00922   1.02803   1.04939   1.06043
 Alpha virt. eigenvalues --    1.07815   1.13415   1.14021   1.16503   1.21289
 Alpha virt. eigenvalues --    1.23727   1.29362   1.31195   1.35472   1.39142
 Alpha virt. eigenvalues --    1.40749   1.47982   1.50583   1.51962   1.57416
 Alpha virt. eigenvalues --    1.63945   1.71200   1.80537   1.84745   1.91490
 Alpha virt. eigenvalues --    1.95361   1.98455   2.07949   2.09863   2.12884
 Alpha virt. eigenvalues --    2.12992   2.15495   2.17241   2.19135   2.22409
 Alpha virt. eigenvalues --    2.24142   2.27531   2.28694   2.29100   2.33411
 Alpha virt. eigenvalues --    2.35333   2.36788   2.41269   2.42078   2.45530
 Alpha virt. eigenvalues --    2.45908   2.47011   2.51956   2.52358   2.55065
 Alpha virt. eigenvalues --    2.57357   2.59370   2.61018   2.64399   2.69095
 Alpha virt. eigenvalues --    2.70238   2.74325   2.76568   2.83564   2.85538
 Alpha virt. eigenvalues --    2.88090   3.02368   3.08330   3.11509   3.58641
 Alpha virt. eigenvalues --    3.64663   3.85768   3.93017   3.99726   4.05267
 Alpha virt. eigenvalues --    4.08566   4.13753   4.19563   4.23413   4.25647
 Alpha virt. eigenvalues --    4.39995   4.48104   4.48781   4.52440   4.66847
 Alpha virt. eigenvalues --    4.86095   4.94295   5.03055   5.09553   5.10230
 Alpha virt. eigenvalues --    5.19733   5.41652   5.81816   6.04029   6.08397
 Alpha virt. eigenvalues --    6.10503   6.28542   6.32313   6.40648   6.52296
 Alpha virt. eigenvalues --    6.57225   6.75278   6.76292   6.79410   6.81760
 Alpha virt. eigenvalues --    6.85023   6.86118   6.86879   6.95273   6.99805
 Alpha virt. eigenvalues --    7.03257   7.15730   7.23549   7.40719   7.70600
 Alpha virt. eigenvalues --    7.78912   8.05771   8.09891  13.94862  14.65213
          Condensed to atoms (all electrons):
              1          2          3          4          5
     1  O    8.164487  -0.175634   0.223496   0.003302  -0.021957
     2  O   -0.175634   8.279195   0.007689   0.178767  -0.017543
     3  H    0.223496   0.007689   0.555470   0.003113   0.002210
     4  H    0.003302   0.178767   0.003113   0.566075  -0.004598
     5  Kr  -0.021957  -0.017543   0.002210  -0.004598  36.037082
 Mulliken atomic charges:
              1
     1  O   -0.193693
     2  O   -0.272474
     3  H    0.208022
     4  H    0.253340
     5  Kr   0.004805
 Sum of Mulliken atomic charges =   0.00000
 Mulliken charges with hydrogens summed into heavy atoms:
              1
     1  O    0.014328
     2  O   -0.019133
     5  Kr   0.004805
 Sum of Mulliken charges with hydrogens summed into heavy atoms =   0.00000
          Condensed to fragments (all electrons):
     1      -0.004805
     2       0.004805
 Electronic spatial extent (au):  <R**2>=            488.2356
 Charge=              0.0000 electrons
 Dipole moment (field-independent basis, Debye):
    X=              0.9256    Y=             -0.3914    Z=              1.3073  Tot=              1.6489
 Quadrupole moment (field-independent basis, Debye-Ang):
   XX=            -30.8573   YY=            -28.0024   ZZ=            -29.4218
   XY=              3.1946   XZ=             -3.5677   YZ=             -1.5161
 Traceless Quadrupole moment (field-independent basis, Debye-Ang):
   XX=             -1.4302   YY=              1.4248   ZZ=              0.0054
   XY=              3.1946   XZ=             -3.5677   YZ=             -1.5161
 Octapole moment (field-independent basis, Debye-Ang**2):
  XXX=             19.9709  YYY=             -1.0005  ZZZ=              0.8938  XYY=              4.2563
  XXY=            -11.7913  XXZ=              9.1566  XZZ=              5.7593  YZZ=             -1.4663
  YYZ=              1.8414  XYZ=              4.0254
 Hexadecapole moment (field-independent basis, Debye-Ang**3):
 XXXX=           -411.8366 YYYY=            -63.1767 ZZZZ=            -29.8771 XXXY=             31.5730
 XXXZ=            -24.5474 YYYX=              5.3092 YYYZ=             -2.0791 ZZZX=             -2.7397
 ZZZY=             -1.3853 XXYY=            -76.7946 XXZZ=            -72.3372 YYZZ=            -16.3710
 XXYZ=            -10.5836 YYXZ=             -4.6804 ZZXY=              3.1848
 N-N= 1.487409738160D+02 E-N=-7.235861273948D+03  KE= 2.900978281012D+03
 No NMR shielding tensors so no spin-rotation constants.
 Leave Link  601 at Sun May 10 11:32:41 2020, MaxMem= 1073741824 cpu:       0.8
 (Enter /home/matheus/.gaussian/g09/l122.exe)
 Counterpoise: doing DCBS calculation for fragment   1 NewBq=T
 Leave Link  122 at Sun May 10 11:32:41 2020, MaxMem= 1073741824 cpu:       0.0
 (Enter /home/matheus/.gaussian/g09/l301.exe)
 Basis read from rwf:  (5D, 7F)
 No pseudopotential information found on rwf file.
 There are   197 symmetry adapted basis functions of A   symmetry.
 Integral buffers will be    131072 words long.
 Raffenetti 2 integral format.
 Two-electron integral symmetry is turned on.
   197 basis functions,   415 primitive gaussians,   229 cartesian basis functions
     9 alpha electrons        9 beta electrons
       nuclear repulsion energy        36.6123390277 Hartrees.
 IExCor= 4639 DFT=T Ex+Corr=wB97XD ExCW=0 ScaHFX=  1.000000
 ScaDFX=  1.000000  1.000000  1.000000  1.000000 ScalE2=  1.000000  1.000000
 IRadAn=      5 IRanWt=     -1 IRanGd=            0 ICorTp=0
  HFx wShort=  0.000000 wLong=  0.200000 cFull=  0.222036 cShort=  0.000000 cLong=  0.777964
  DFx wShort=  0.000000 wLong=  0.200000 cFull=  0.000000 cShort=  0.000000 cLong=  1.000000
 NAtoms=    5 NActive=    5 NUniq=    5 SFac= 1.00D+00 NAtFMM=   60 NAOKFM=F Big=F
 R6Disp: Dispersion energy =        -0.0002268130 Hartrees.
 Nuclear repulsion after empirical dispersion term =       36.6121122147 Hartrees.
 No density basis found on file   718.
 Leave Link  301 at Sun May 10 11:32:41 2020, MaxMem= 1073741824 cpu:       0.2
 (Enter /home/matheus/.gaussian/g09/l302.exe)
 NPDir=0 NMtPBC=     1 NCelOv=     1 NCel=       1 NClECP=     1 NCelD=      1
         NCelK=      1 NCelE2=     1 NClLst=     1 CellRange=     0.0.
 One-electron integrals computed using PRISM.
 NBasis=   197 RedAO= T  NBF=   197
 NBsUse=   197 1.00D-06 NBFU=   197
 Precomputing XC quadrature grid using
 IXCGrd= 2 IRadAn=           5 IRanWt=          -1 IRanGd=           0 AccXCQ= 0.00D+00.
 NRdTot=     427 NPtTot=      123512 NUsed=      126579 NTot=      126611
 NSgBfM=   229   229   229   229   229 NAtAll=     5     5.
 Leave Link  302 at Sun May 10 11:32:41 2020, MaxMem= 1073741824 cpu:       1.0
 (Enter /home/matheus/.gaussian/g09/l303.exe)
 DipDrv:  MaxL=1.
 Leave Link  303 at Sun May 10 11:32:41 2020, MaxMem= 1073741824 cpu:       0.2
 (Enter /home/matheus/.gaussian/g09/l401.exe)
 Harris functional with IExCor= 4639 diagonalized for initial guess.
 ExpMin= 2.53D-02 ExpMax= 1.17D+07 ExpMxC= 1.33D+04 IAcc=3 IRadAn=         5 AccDes= 0.00D+00
 HarFok:  IExCor= 4639 AccDes= 0.00D+00 IRadAn=         5 IDoV= 1
 ScaDFX=  1.000000  1.000000  1.000000  1.000000
 FoFCou: FMM=F IPFlag=           0 FMFlag=      100000 FMFlg1=           0
         NFxFlg=           0 DoJE=T BraDBF=F KetDBF=T FulRan=T
         Omega=  0.000000  0.000000  1.000000  0.000000  0.000000 ICntrl=     500 IOpCl=  0
         NMat0=    1 NMatS0=    1 NMatT0=    0 NMatD0=    1 NMtDS0=    0 NMtDT0=    0
         I1Cent=           4 NGrid=           0.
 Petite list used in FoFCou.
 Harris En= -146.294761392259    
 Initial guess orbital symmetries:
       Occupied  (A) (A) (A) (A) (A) (A) (A) (A) (A)
       Virtual   (A) (A) (A) (A) (A) (A) (A) (A) (A) (A) (A) (A)
                 (A) (A) (A) (A) (A) (A) (A) (A) (A) (A) (A) (A)
                 (A) (A) (A) (A) (A) (A) (A) (A) (A) (A) (A) (A)
                 (A) (A) (A) (A) (A) (A) (A) (A) (A) (A) (A) (A)
                 (A) (A) (A) (A) (A) (A) (A) (A) (A) (A) (A) (A)
                 (A) (A) (A) (A) (A) (A) (A) (A) (A) (A) (A) (A)
                 (A) (A) (A) (A) (A) (A) (A) (A) (A) (A) (A) (A)
                 (A) (A) (A) (A) (A) (A) (A) (A) (A) (A) (A) (A)
                 (A) (A) (A) (A) (A) (A) (A) (A) (A) (A) (A) (A)
                 (A) (A) (A) (A) (A) (A) (A) (A) (A) (A) (A) (A)
                 (A) (A) (A) (A) (A) (A) (A) (A) (A) (A) (A) (A)
                 (A) (A) (A) (A) (A) (A) (A) (A) (A) (A) (A) (A)
                 (A) (A) (A) (A) (A) (A) (A) (A) (A) (A) (A) (A)
                 (A) (A) (A) (A) (A) (A) (A) (A) (A) (A) (A) (A)
                 (A) (A) (A) (A) (A) (A) (A) (A) (A) (A) (A) (A)
                 (A) (A) (A) (A) (A) (A) (A) (A)
 The electronic state of the initial guess is 1-A.
 Leave Link  401 at Sun May 10 11:32:42 2020, MaxMem= 1073741824 cpu:       4.1
 (Enter /home/matheus/.gaussian/g09/l502.exe)
 Closed shell SCF:
 Requested convergence on RMS density matrix=1.00D-08 within 128 cycles.
 Requested convergence on MAX density matrix=1.00D-06.
 Requested convergence on             energy=1.00D-06.
 No special actions if energy rises.
 Using DIIS extrapolation, IDIIS=  1040.
 Integral symmetry usage will be decided dynamically.
       126521 words used for storage of precomputed grid.
 IEnd=      305468 IEndB=      305468 NGot=  1073741824 MDV=  1073505667
 LenX=  1073505667 LenY=  1073452785
 Fock matrices will be formed incrementally for  20 cycles.

 Cycle   1  Pass 1  IDiag  1:
 FoFJK:  IHMeth= 1 ICntrl=     0 DoSepK=T KAlg= 1 I1Cent= 0 FoldK=F
 FoFCou: FMM=F IPFlag=           0 FMFlag=      100000 FMFlg1=           0
         NFxFlg=           0 DoJE=T BraDBF=F KetDBF=F FulRan=T
         Omega=  0.000000  0.000000  1.000000  0.000000  0.000000 ICntrl=     500 IOpCl=  0
         NMat0=    1 NMatS0=    1 NMatT0=    0 NMatD0=    1 NMtDS0=    0 NMtDT0=    0
         I1Cent=           0 NGrid=           0.
 Symmetry not used in FoFCou.
 E= -151.478196640967    
 DIIS: error= 2.44D-02 at cycle   1 NSaved=   1.
 NSaved= 1 IEnMin= 1 EnMin= -151.478196640967     IErMin= 1 ErrMin= 2.44D-02
 ErrMax= 2.44D-02 EMaxC= 1.00D-01 BMatC= 3.01D-01 BMatP= 3.01D-01
 IDIUse=3 WtCom= 7.56D-01 WtEn= 2.44D-01
 Coeff-Com:  0.100D+01
 Coeff-En:   0.100D+01
 Coeff:      0.100D+01
 Gap=     0.516 Goal=   None    Shift=    0.000
 GapD=    0.516 DampG=2.000 DampE=0.500 DampFc=1.0000 IDamp=-1.
 RMSDP=2.42D-03 MaxDP=1.13D-01              OVMax= 1.09D-01

 Cycle   2  Pass 1  IDiag  1:
 RMSU=  1.67D-03    CP:  9.50D-01
 FoFJK:  IHMeth= 1 ICntrl=     0 DoSepK=T KAlg= 1 I1Cent= 0 FoldK=F
 E= -151.507934610876     Delta-E=       -0.029737969909 Rises=F Damp=F
 DIIS: error= 1.49D-02 at cycle   2 NSaved=   2.
 NSaved= 2 IEnMin= 2 EnMin= -151.507934610876     IErMin= 2 ErrMin= 1.49D-02
 ErrMax= 1.49D-02 EMaxC= 1.00D-01 BMatC= 9.11D-02 BMatP= 3.01D-01
 IDIUse=3 WtCom= 8.51D-01 WtEn= 1.49D-01
 Coeff-Com:  0.332D+00 0.668D+00
 Coeff-En:   0.366D+00 0.634D+00
 Coeff:      0.337D+00 0.663D+00
 Gap=     0.458 Goal=   None    Shift=    0.000
 RMSDP=1.02D-03 MaxDP=5.07D-02 DE=-2.97D-02 OVMax= 5.92D-02

 Cycle   3  Pass 1  IDiag  1:
 RMSU=  3.65D-04    CP:  9.72D-01  6.41D-01
 FoFJK:  IHMeth= 1 ICntrl=     0 DoSepK=T KAlg= 1 I1Cent= 0 FoldK=F
 E= -151.556917154513     Delta-E=       -0.048982543637 Rises=F Damp=F
 DIIS: error= 4.96D-03 at cycle   3 NSaved=   3.
 NSaved= 3 IEnMin= 3 EnMin= -151.556917154513     IErMin= 3 ErrMin= 4.96D-03
 ErrMax= 4.96D-03 EMaxC= 1.00D-01 BMatC= 6.66D-03 BMatP= 9.11D-02
 IDIUse=3 WtCom= 9.50D-01 WtEn= 4.96D-02
 Coeff-Com:  0.132D-01 0.221D+00 0.766D+00
 Coeff-En:   0.000D+00 0.000D+00 0.100D+01
 Coeff:      0.125D-01 0.210D+00 0.777D+00
 Gap=     0.408 Goal=   None    Shift=    0.000
 RMSDP=2.84D-04 MaxDP=1.25D-02 DE=-4.90D-02 OVMax= 1.68D-02

 Cycle   4  Pass 1  IDiag  1:
 RMSU=  6.41D-05    CP:  9.66D-01  7.44D-01  8.13D-01
 FoFJK:  IHMeth= 1 ICntrl=     0 DoSepK=T KAlg= 1 I1Cent= 0 FoldK=F
 E= -151.561181570826     Delta-E=       -0.004264416313 Rises=F Damp=F
 DIIS: error= 4.80D-04 at cycle   4 NSaved=   4.
 NSaved= 4 IEnMin= 4 EnMin= -151.561181570826     IErMin= 4 ErrMin= 4.80D-04
 ErrMax= 4.80D-04 EMaxC= 1.00D-01 BMatC= 6.24D-05 BMatP= 6.66D-03
 IDIUse=3 WtCom= 9.95D-01 WtEn= 4.80D-03
 Coeff-Com: -0.235D-03 0.145D-01 0.130D+00 0.855D+00
 Coeff-En:   0.000D+00 0.000D+00 0.000D+00 0.100D+01
 Coeff:     -0.234D-03 0.145D-01 0.130D+00 0.856D+00
 Gap=     0.405 Goal=   None    Shift=    0.000
 RMSDP=3.62D-05 MaxDP=2.10D-03 DE=-4.26D-03 OVMax= 1.61D-03

 Cycle   5  Pass 1  IDiag  1:
 RMSU=  1.22D-05    CP:  9.67D-01  7.37D-01  8.57D-01  1.11D+00
 FoFJK:  IHMeth= 1 ICntrl=     0 DoSepK=T KAlg= 1 I1Cent= 0 FoldK=F
 E= -151.561225853631     Delta-E=       -0.000044282805 Rises=F Damp=F
 DIIS: error= 3.77D-05 at cycle   5 NSaved=   5.
 NSaved= 5 IEnMin= 5 EnMin= -151.561225853631     IErMin= 5 ErrMin= 3.77D-05
 ErrMax= 3.77D-05 EMaxC= 1.00D-01 BMatC= 5.64D-07 BMatP= 6.24D-05
 IDIUse=1 WtCom= 1.00D+00 WtEn= 0.00D+00
 Coeff-Com: -0.572D-03-0.103D-01-0.351D-01-0.355D-01 0.108D+01
 Coeff:     -0.572D-03-0.103D-01-0.351D-01-0.355D-01 0.108D+01
 Gap=     0.404 Goal=   None    Shift=    0.000
 RMSDP=9.67D-06 MaxDP=3.74D-04 DE=-4.43D-05 OVMax= 6.70D-04

 Cycle   6  Pass 1  IDiag  1:
 RMSU=  2.41D-06    CP:  9.67D-01  7.37D-01  8.66D-01  1.18D+00  1.26D+00
 FoFJK:  IHMeth= 1 ICntrl=     0 DoSepK=T KAlg= 1 I1Cent= 0 FoldK=F
 E= -151.561227168585     Delta-E=       -0.000001314954 Rises=F Damp=F
 DIIS: error= 8.02D-06 at cycle   6 NSaved=   6.
 NSaved= 6 IEnMin= 6 EnMin= -151.561227168585     IErMin= 6 ErrMin= 8.02D-06
 ErrMax= 8.02D-06 EMaxC= 1.00D-01 BMatC= 2.34D-08 BMatP= 5.64D-07
 IDIUse=1 WtCom= 1.00D+00 WtEn= 0.00D+00
 Coeff-Com:  0.996D-05-0.585D-03-0.506D-02-0.268D-01 0.383D-01 0.994D+00
 Coeff:      0.996D-05-0.585D-03-0.506D-02-0.268D-01 0.383D-01 0.994D+00
 Gap=     0.404 Goal=   None    Shift=    0.000
 RMSDP=1.60D-06 MaxDP=6.04D-05 DE=-1.31D-06 OVMax= 1.65D-04

 Cycle   7  Pass 1  IDiag  1:
 RMSU=  4.71D-07    CP:  9.67D-01  7.37D-01  8.66D-01  1.19D+00  1.31D+00
                    CP:  1.32D+00
 FoFJK:  IHMeth= 1 ICntrl=     0 DoSepK=T KAlg= 1 I1Cent= 0 FoldK=F
 E= -151.561227231978     Delta-E=       -0.000000063393 Rises=F Damp=F
 DIIS: error= 3.22D-06 at cycle   7 NSaved=   7.
 NSaved= 7 IEnMin= 7 EnMin= -151.561227231978     IErMin= 7 ErrMin= 3.22D-06
 ErrMax= 3.22D-06 EMaxC= 1.00D-01 BMatC= 1.86D-09 BMatP= 2.34D-08
 IDIUse=1 WtCom= 1.00D+00 WtEn= 0.00D+00
 Coeff-Com:  0.139D-04 0.408D-03 0.198D-02 0.372D-02-0.440D-01-0.202D+00
 Coeff-Com:  0.124D+01
 Coeff:      0.139D-04 0.408D-03 0.198D-02 0.372D-02-0.440D-01-0.202D+00
 Coeff:      0.124D+01
 Gap=     0.404 Goal=   None    Shift=    0.000
 RMSDP=5.81D-07 MaxDP=1.77D-05 DE=-6.34D-08 OVMax= 7.60D-05

 Cycle   8  Pass 1  IDiag  1:
 RMSU=  1.67D-07    CP:  9.67D-01  7.37D-01  8.66D-01  1.19D+00  1.32D+00
                    CP:  1.42D+00  1.45D+00
 FoFJK:  IHMeth= 1 ICntrl=     0 DoSepK=T KAlg= 1 I1Cent= 0 FoldK=F
 E= -151.561227239248     Delta-E=       -0.000000007270 Rises=F Damp=F
 DIIS: error= 1.26D-06 at cycle   8 NSaved=   8.
 NSaved= 8 IEnMin= 8 EnMin= -151.561227239248     IErMin= 8 ErrMin= 1.26D-06
 ErrMax= 1.26D-06 EMaxC= 1.00D-01 BMatC= 4.60D-10 BMatP= 1.86D-09
 IDIUse=1 WtCom= 1.00D+00 WtEn= 0.00D+00
 Coeff-Com:  0.412D-05 0.161D-03 0.900D-03 0.223D-02-0.135D-01-0.134D+00
 Coeff-Com:  0.454D+00 0.690D+00
 Coeff:      0.412D-05 0.161D-03 0.900D-03 0.223D-02-0.135D-01-0.134D+00
 Coeff:      0.454D+00 0.690D+00
 Gap=     0.404 Goal=   None    Shift=    0.000
 RMSDP=1.21D-07 MaxDP=4.58D-06 DE=-7.27D-09 OVMax= 1.58D-05

 Cycle   9  Pass 1  IDiag  1:
 RMSU=  6.46D-08    CP:  9.67D-01  7.37D-01  8.66D-01  1.19D+00  1.32D+00
                    CP:  1.42D+00  1.53D+00  1.21D+00
 FoFJK:  IHMeth= 1 ICntrl=     0 DoSepK=T KAlg= 1 I1Cent= 0 FoldK=F
 E= -151.561227239800     Delta-E=       -0.000000000551 Rises=F Damp=F
 DIIS: error= 7.57D-07 at cycle   9 NSaved=   9.
 NSaved= 9 IEnMin= 9 EnMin= -151.561227239800     IErMin= 9 ErrMin= 7.57D-07
 ErrMax= 7.57D-07 EMaxC= 1.00D-01 BMatC= 1.73D-10 BMatP= 4.60D-10
 IDIUse=1 WtCom= 1.00D+00 WtEn= 0.00D+00
 Coeff-Com: -0.112D-05-0.189D-04-0.485D-04-0.259D-06 0.621D-02-0.280D-01
 Coeff-Com: -0.722D-01 0.389D+00 0.705D+00
 Coeff:     -0.112D-05-0.189D-04-0.485D-04-0.259D-06 0.621D-02-0.280D-01
 Coeff:     -0.722D-01 0.389D+00 0.705D+00
 Gap=     0.404 Goal=   None    Shift=    0.000
 RMSDP=7.79D-08 MaxDP=2.04D-06 DE=-5.51D-10 OVMax= 1.08D-05

 Cycle  10  Pass 1  IDiag  1:
 RMSU=  1.94D-08    CP:  9.67D-01  7.37D-01  8.66D-01  1.19D+00  1.32D+00
                    CP:  1.42D+00  1.59D+00  1.49D+00  9.85D-01
 FoFJK:  IHMeth= 1 ICntrl=     0 DoSepK=T KAlg= 1 I1Cent= 0 FoldK=F
 E= -151.561227240029     Delta-E=       -0.000000000230 Rises=F Damp=F
 DIIS: error= 1.95D-07 at cycle  10 NSaved=  10.
 NSaved=10 IEnMin=10 EnMin= -151.561227240029     IErMin=10 ErrMin= 1.95D-07
 ErrMax= 1.95D-07 EMaxC= 1.00D-01 BMatC= 9.49D-12 BMatP= 1.73D-10
 IDIUse=1 WtCom= 1.00D+00 WtEn= 0.00D+00
 Coeff-Com: -0.269D-06-0.206D-04-0.148D-03-0.494D-03 0.286D-02 0.160D-01
 Coeff-Com: -0.655D-01-0.122D+00-0.347D-01 0.120D+01
 Coeff:     -0.269D-06-0.206D-04-0.148D-03-0.494D-03 0.286D-02 0.160D-01
 Coeff:     -0.655D-01-0.122D+00-0.347D-01 0.120D+01
 Gap=     0.404 Goal=   None    Shift=    0.000
 RMSDP=4.59D-08 MaxDP=9.96D-07 DE=-2.30D-10 OVMax= 6.77D-06

 Cycle  11  Pass 1  IDiag  1:
 RMSU=  7.53D-09    CP:  9.67D-01  7.37D-01  8.66D-01  1.19D+00  1.32D+00
                    CP:  1.42D+00  1.61D+00  1.63D+00  1.18D+00  1.51D+00
 FoFJK:  IHMeth= 1 ICntrl=     0 DoSepK=T KAlg= 1 I1Cent= 0 FoldK=F
 E= -151.561227240063     Delta-E=       -0.000000000034 Rises=F Damp=F
 DIIS: error= 3.94D-08 at cycle  11 NSaved=  11.
 NSaved=11 IEnMin=11 EnMin= -151.561227240063     IErMin=11 ErrMin= 3.94D-08
 ErrMax= 3.94D-08 EMaxC= 1.00D-01 BMatC= 3.29D-13 BMatP= 9.49D-12
 IDIUse=1 WtCom= 1.00D+00 WtEn= 0.00D+00
 Coeff-Com: -0.712D-07-0.132D-05-0.449D-05-0.281D-04-0.120D-03 0.121D-02
 Coeff-Com:  0.722D-02-0.242D-01-0.492D-01-0.697D-03 0.107D+01
 Coeff:     -0.712D-07-0.132D-05-0.449D-05-0.281D-04-0.120D-03 0.121D-02
 Coeff:      0.722D-02-0.242D-01-0.492D-01-0.697D-03 0.107D+01
 Gap=     0.404 Goal=   None    Shift=    0.000
 RMSDP=9.93D-09 MaxDP=2.83D-07 DE=-3.40D-11 OVMax= 1.15D-06

 SCF Done:  E(RwB97XD) =  -151.561227240     A.U. after   11 cycles
             Convg  =    0.9933D-08             -V/T =  2.0059
 KE= 1.506703683238D+02 PE=-4.317274158410D+02 EE= 9.288370806243D+01
 Leave Link  502 at Sun May 10 11:33:19 2020, MaxMem= 1073741824 cpu:     299.8
 (Enter /home/matheus/.gaussian/g09/l601.exe)
 Copying SCF densities to generalized density rwf, IOpCl= 0 IROHF=0.

 **********************************************************************

            Population analysis using the SCF density.

 **********************************************************************

 Orbital symmetries:
       Occupied  (A) (A) (A) (A) (A) (A) (A) (A) (A)
       Virtual   (A) (A) (A) (A) (A) (A) (A) (A) (A) (A) (A) (A)
                 (A) (A) (A) (A) (A) (A) (A) (A) (A) (A) (A) (A)
                 (A) (A) (A) (A) (A) (A) (A) (A) (A) (A) (A) (A)
                 (A) (A) (A) (A) (A) (A) (A) (A) (A) (A) (A) (A)
                 (A) (A) (A) (A) (A) (A) (A) (A) (A) (A) (A) (A)
                 (A) (A) (A) (A) (A) (A) (A) (A) (A) (A) (A) (A)
                 (A) (A) (A) (A) (A) (A) (A) (A) (A) (A) (A) (A)
                 (A) (A) (A) (A) (A) (A) (A) (A) (A) (A) (A) (A)
                 (A) (A) (A) (A) (A) (A) (A) (A) (A) (A) (A) (A)
                 (A) (A) (A) (A) (A) (A) (A) (A) (A) (A) (A) (A)
                 (A) (A) (A) (A) (A) (A) (A) (A) (A) (A) (A) (A)
                 (A) (A) (A) (A) (A) (A) (A) (A) (A) (A) (A) (A)
                 (A) (A) (A) (A) (A) (A) (A) (A) (A) (A) (A) (A)
                 (A) (A) (A) (A) (A) (A) (A) (A) (A) (A) (A) (A)
                 (A) (A) (A) (A) (A) (A) (A) (A) (A) (A) (A) (A)
                 (A) (A) (A) (A) (A) (A) (A) (A)
 The electronic state is 1-A.
 Alpha  occ. eigenvalues --  -19.31883 -19.31877  -1.22241  -1.01165  -0.64339
 Alpha  occ. eigenvalues --   -0.58142  -0.51081  -0.41681  -0.37393
 Alpha virt. eigenvalues --    0.03048   0.03722   0.07071   0.08845   0.09420
 Alpha virt. eigenvalues --    0.10749   0.11068   0.13914   0.16782   0.17312
 Alpha virt. eigenvalues --    0.18332   0.19399   0.21170   0.23264   0.24978
 Alpha virt. eigenvalues --    0.26980   0.30832   0.31687   0.33149   0.33439
 Alpha virt. eigenvalues --    0.34602   0.37686   0.38738   0.39376   0.40597
 Alpha virt. eigenvalues --    0.42981   0.44576   0.46914   0.48671   0.49966
 Alpha virt. eigenvalues --    0.53945   0.57468   0.59133   0.61159   0.66439
 Alpha virt. eigenvalues --    0.69932   0.71621   0.72934   0.75585   0.76912
 Alpha virt. eigenvalues --    0.79008   0.80483   0.86707   0.88640   0.89549
 Alpha virt. eigenvalues --    0.89797   0.92515   0.93593   0.95997   0.97652
 Alpha virt. eigenvalues --    0.99178   1.02194   1.04443   1.08148   1.10280
 Alpha virt. eigenvalues --    1.13089   1.15519   1.18120   1.21593   1.24797
 Alpha virt. eigenvalues --    1.25172   1.29264   1.30194   1.32878   1.33697
 Alpha virt. eigenvalues --    1.34245   1.35560   1.37086   1.37816   1.38796
 Alpha virt. eigenvalues --    1.44563   1.49213   1.50062   1.51565   1.55168
 Alpha virt. eigenvalues --    1.57752   1.63532   1.65645   1.67964   1.77631
 Alpha virt. eigenvalues --    1.80905   1.84375   1.87040   1.93201   1.99286
 Alpha virt. eigenvalues --    2.05674   2.09735   2.13175   2.14974   2.18927
 Alpha virt. eigenvalues --    2.25407   2.28157   2.29785   2.34332   2.40824
 Alpha virt. eigenvalues --    2.42383   2.48993   2.50802   2.59912   2.62304
 Alpha virt. eigenvalues --    2.63371   2.71318   2.80909   2.83761   2.86733
 Alpha virt. eigenvalues --    3.01675   3.06279   3.09269   3.26911   3.31103
 Alpha virt. eigenvalues --    3.40401   3.54663   3.61146   3.66340   3.79261
 Alpha virt. eigenvalues --    3.79495   3.81721   3.82880   3.83449   3.83792
 Alpha virt. eigenvalues --    3.86903   3.87543   3.91635   3.93595   3.95769
 Alpha virt. eigenvalues --    3.98648   4.00576   4.06293   4.07852   4.10147
 Alpha virt. eigenvalues --    4.15899   4.21653   4.24434   4.26929   4.33188
 Alpha virt. eigenvalues --    4.43899   4.48952   4.53651   4.66911   4.86590
 Alpha virt. eigenvalues --    4.94313   5.02887   5.09622   5.10324   5.20059
 Alpha virt. eigenvalues --    5.41474   5.81653   6.03990   6.08280   6.10250
 Alpha virt. eigenvalues --    6.28576   6.32325   6.40581   6.52232   6.57083
 Alpha virt. eigenvalues --    6.75095   6.75972   6.79313   6.81336   6.84756
 Alpha virt. eigenvalues --    6.86028   6.86687   6.95093   6.99755   7.03109
 Alpha virt. eigenvalues --    7.15566   7.23200   7.40618   7.70402   7.78745
 Alpha virt. eigenvalues --    8.05640   8.09159  10.90852  13.94689  14.63618
 Alpha virt. eigenvalues --   14.84465  14.89402  15.11281  29.04267  29.04646
 Alpha virt. eigenvalues --   29.09173  29.14796  29.24206  49.11862 148.32512
 Alpha virt. eigenvalues --  148.39339 148.71562 752.52519
          Condensed to atoms (all electrons):
              1          2          3          4          5
     1  O    8.169486  -0.168733   0.210283  -0.000141   0.000809
     2  O   -0.168733   8.212194   0.008111   0.194638  -0.001815
     3  H    0.210283   0.008111   0.563019   0.004650  -0.001126
     4  H   -0.000141   0.194638   0.004650   0.569298  -0.004433
     5  Kr   0.000809  -0.001815  -0.001126  -0.004433   0.001513
 Mulliken atomic charges:
              1
     1  O   -0.211705
     2  O   -0.244396
     3  H    0.215062
     4  H    0.235987
     5  Kr   0.005052
 Sum of Mulliken atomic charges =   0.00000
 Mulliken charges with hydrogens summed into heavy atoms:
              1
     1  O    0.003357
     2  O   -0.008409
     5  Kr   0.005052
 Sum of Mulliken charges with hydrogens summed into heavy atoms =   0.00000
          Condensed to fragments (all electrons):
     1      -0.005052
     2       0.005052
 Electronic spatial extent (au):  <R**2>=            322.5710
 Charge=              0.0000 electrons
 Dipole moment (field-independent basis, Debye):
    X=              0.7599    Y=             -0.1194    Z=              1.3671  Tot=              1.5686
 Quadrupole moment (field-independent basis, Debye-Ang):
   XX=            -13.2336   YY=            -10.3851   ZZ=            -11.8619
   XY=              3.3525   XZ=             -3.5235   YZ=             -1.5191
 Traceless Quadrupole moment (field-independent basis, Debye-Ang):
   XX=             -1.4067   YY=              1.4417   ZZ=             -0.0350
   XY=              3.3525   XZ=             -3.5235   YZ=             -1.5191
 Octapole moment (field-independent basis, Debye-Ang**2):
  XXX=             71.3643  YYY=             -1.4067  ZZZ=              1.1311  XYY=             21.5700
  XXY=            -11.6906  XXZ=              9.2787  XZZ=             23.1135  YZZ=             -1.6007
  YYZ=              1.9194  XYZ=              4.0282
 Hexadecapole moment (field-independent basis, Debye-Ang**3):
 XXXX=           -288.6517 YYYY=            -44.8963 ZZZZ=            -11.7027 XXXY=             30.9951
 XXXZ=            -24.3310 YYYX=              4.8787 YYYZ=             -2.0873 ZZZX=             -2.5283
 ZZZY=             -1.3937 XXYY=            -53.2738 XXZZ=            -48.9365 YYZZ=            -10.2871
 XXYZ=            -10.5999 YYXZ=             -4.6037 ZZXY=              3.0011
 N-N= 3.661211221474D+01 E-N=-4.317274159648D+02  KE= 1.506703683238D+02
 No NMR shielding tensors so no spin-rotation constants.
 Leave Link  601 at Sun May 10 11:33:19 2020, MaxMem= 1073741824 cpu:       0.8
 (Enter /home/matheus/.gaussian/g09/l122.exe)
 Counterpoise: doing DCBS calculation for fragment   2 NewBq=T
 Leave Link  122 at Sun May 10 11:33:19 2020, MaxMem= 1073741824 cpu:       0.0
 (Enter /home/matheus/.gaussian/g09/l301.exe)
 Basis read from rwf:  (5D, 7F)
 No pseudopotential information found on rwf file.
 There are   197 symmetry adapted basis functions of A   symmetry.
 Integral buffers will be    131072 words long.
 Raffenetti 2 integral format.
 Two-electron integral symmetry is turned on.
   197 basis functions,   415 primitive gaussians,   229 cartesian basis functions
    18 alpha electrons       18 beta electrons
       nuclear repulsion energy         0.0000000000 Hartrees.
 IExCor= 4639 DFT=T Ex+Corr=wB97XD ExCW=0 ScaHFX=  1.000000
 ScaDFX=  1.000000  1.000000  1.000000  1.000000 ScalE2=  1.000000  1.000000
 IRadAn=      5 IRanWt=     -1 IRanGd=            0 ICorTp=0
  HFx wShort=  0.000000 wLong=  0.200000 cFull=  0.222036 cShort=  0.000000 cLong=  0.777964
  DFx wShort=  0.000000 wLong=  0.200000 cFull=  0.000000 cShort=  0.000000 cLong=  1.000000
 NAtoms=    5 NActive=    5 NUniq=    5 SFac= 1.00D+00 NAtFMM=   60 NAOKFM=F Big=F
 R6Disp: Dispersion energy =         0.0000000000 Hartrees.
 Nuclear repulsion after empirical dispersion term =        0.0000000000 Hartrees.
 No density basis found on file   718.
 Leave Link  301 at Sun May 10 11:33:19 2020, MaxMem= 1073741824 cpu:       0.2
 (Enter /home/matheus/.gaussian/g09/l302.exe)
 NPDir=0 NMtPBC=     1 NCelOv=     1 NCel=       1 NClECP=     1 NCelD=      1
         NCelK=      1 NCelE2=     1 NClLst=     1 CellRange=     0.0.
 One-electron integrals computed using PRISM.
 NBasis=   197 RedAO= T  NBF=   197
 NBsUse=   197 1.00D-06 NBFU=   197
 Precomputing XC quadrature grid using
 IXCGrd= 2 IRadAn=           5 IRanWt=          -1 IRanGd=           0 AccXCQ= 0.00D+00.
 NRdTot=     427 NPtTot=      123512 NUsed=      126579 NTot=      126611
 NSgBfM=   229   229   229   229   229 NAtAll=     5     5.
 Leave Link  302 at Sun May 10 11:33:20 2020, MaxMem= 1073741824 cpu:       1.0
 (Enter /home/matheus/.gaussian/g09/l303.exe)
 DipDrv:  MaxL=1.
 Leave Link  303 at Sun May 10 11:33:20 2020, MaxMem= 1073741824 cpu:       0.2
 (Enter /home/matheus/.gaussian/g09/l401.exe)
 Harris functional with IExCor= 4639 diagonalized for initial guess.
 ExpMin= 2.53D-02 ExpMax= 1.17D+07 ExpMxC= 1.33D+04 IAcc=3 IRadAn=         5 AccDes= 0.00D+00
 HarFok:  IExCor= 4639 AccDes= 0.00D+00 IRadAn=         5 IDoV= 1
 ScaDFX=  1.000000  1.000000  1.000000  1.000000
 FoFCou: FMM=F IPFlag=           0 FMFlag=      100000 FMFlg1=           0
         NFxFlg=           0 DoJE=T BraDBF=F KetDBF=T FulRan=T
         Omega=  0.000000  0.000000  1.000000  0.000000  0.000000 ICntrl=     500 IOpCl=  0
         NMat0=    1 NMatS0=    1 NMatT0=    0 NMatD0=    1 NMtDS0=    0 NMtDT0=    0
         I1Cent=           4 NGrid=           0.
 Petite list used in FoFCou.
 Harris En= -2730.20433289775    
 Initial guess orbital symmetries:
       Occupied  (A) (A) (A) (A) (A) (A) (A) (A) (A) (A) (A) (A)
                 (A) (A) (A) (A) (A) (A)
       Virtual   (A) (A) (A) (A) (A) (A) (A) (A) (A) (A) (A) (A)
                 (A) (A) (A) (A) (A) (A) (A) (A) (A) (A) (A) (A)
                 (A) (A) (A) (A) (A) (A) (A) (A) (A) (A) (A) (A)
                 (A) (A) (A) (A) (A) (A) (A) (A) (A) (A) (A) (A)
                 (A) (A) (A) (A) (A) (A) (A) (A) (A) (A) (A) (A)
                 (A) (A) (A) (A) (A) (A) (A) (A) (A) (A) (A) (A)
                 (A) (A) (A) (A) (A) (A) (A) (A) (A) (A) (A) (A)
                 (A) (A) (A) (A) (A) (A) (A) (A) (A) (A) (A) (A)
                 (A) (A) (A) (A) (A) (A) (A) (A) (A) (A) (A) (A)
                 (A) (A) (A) (A) (A) (A) (A) (A) (A) (A) (A) (A)
                 (A) (A) (A) (A) (A) (A) (A) (A) (A) (A) (A) (A)
                 (A) (A) (A) (A) (A) (A) (A) (A) (A) (A) (A) (A)
                 (A) (A) (A) (A) (A) (A) (A) (A) (A) (A) (A) (A)
                 (A) (A) (A) (A) (A) (A) (A) (A) (A) (A) (A) (A)
                 (A) (A) (A) (A) (A) (A) (A) (A) (A) (A) (A)
 The electronic state of the initial guess is 1-A.
 Leave Link  401 at Sun May 10 11:33:20 2020, MaxMem= 1073741824 cpu:       4.2
 (Enter /home/matheus/.gaussian/g09/l502.exe)
 Closed shell SCF:
 Requested convergence on RMS density matrix=1.00D-08 within 128 cycles.
 Requested convergence on MAX density matrix=1.00D-06.
 Requested convergence on             energy=1.00D-06.
 No special actions if energy rises.
 Using DIIS extrapolation, IDIIS=  1040.
 Integral symmetry usage will be decided dynamically.
       126521 words used for storage of precomputed grid.
 IEnd=      305468 IEndB=      305468 NGot=  1073741824 MDV=  1073505667
 LenX=  1073505667 LenY=  1073452785
 Fock matrices will be formed incrementally for  20 cycles.

 Cycle   1  Pass 1  IDiag  1:
 FoFJK:  IHMeth= 1 ICntrl=     0 DoSepK=T KAlg= 1 I1Cent= 0 FoldK=F
 FoFCou: FMM=F IPFlag=           0 FMFlag=      100000 FMFlg1=           0
         NFxFlg=           0 DoJE=T BraDBF=F KetDBF=F FulRan=T
         Omega=  0.000000  0.000000  1.000000  0.000000  0.000000 ICntrl=     500 IOpCl=  0
         NMat0=    1 NMatS0=    1 NMatT0=    0 NMatD0=    1 NMtDS0=    0 NMtDT0=    0
         I1Cent=           0 NGrid=           0.
 Symmetry not used in FoFCou.
 E= -2753.46464011151    
 DIIS: error= 6.14D-02 at cycle   1 NSaved=   1.
 NSaved= 1 IEnMin= 1 EnMin= -2753.46464011151     IErMin= 1 ErrMin= 6.14D-02
 ErrMax= 6.14D-02 EMaxC= 1.00D-01 BMatC= 1.87D+00 BMatP= 1.87D+00
 IDIUse=3 WtCom= 3.86D-01 WtEn= 6.14D-01
 Coeff-Com:  0.100D+01
 Coeff-En:   0.100D+01
 Coeff:      0.100D+01
 Gap=     0.634 Goal=   None    Shift=    0.000
 GapD=    0.634 DampG=2.000 DampE=0.500 DampFc=1.0000 IDamp=-1.
 RMSDP=5.63D-03 MaxDP=3.67D-01              OVMax= 1.78D-01

 Cycle   2  Pass 1  IDiag  1:
 RMSU=  3.92D-03    CP:  1.04D+00
 FoFJK:  IHMeth= 1 ICntrl=     0 DoSepK=T KAlg= 1 I1Cent= 0 FoldK=F
 E= -2753.72412877517     Delta-E=       -0.259488663669 Rises=F Damp=F
 DIIS: error= 3.00D-02 at cycle   2 NSaved=   2.
 NSaved= 2 IEnMin= 2 EnMin= -2753.72412877517     IErMin= 2 ErrMin= 3.00D-02
 ErrMax= 3.00D-02 EMaxC= 1.00D-01 BMatC= 4.75D-01 BMatP= 1.87D+00
 IDIUse=3 WtCom= 7.00D-01 WtEn= 3.00D-01
 Coeff-Com:  0.330D+00 0.670D+00
 Coeff-En:   0.183D+00 0.817D+00
 Coeff:      0.286D+00 0.714D+00
 Gap=     0.474 Goal=   None    Shift=    0.000
 RMSDP=2.53D-03 MaxDP=1.59D-01 DE=-2.59D-01 OVMax= 7.87D-02

 Cycle   3  Pass 1  IDiag  1:
 RMSU=  3.70D-04    CP:  1.03D+00  5.60D-01
 FoFJK:  IHMeth= 1 ICntrl=     0 DoSepK=T KAlg= 1 I1Cent= 0 FoldK=F
 E= -2753.87134037359     Delta-E=       -0.147211598412 Rises=F Damp=F
 DIIS: error= 4.13D-03 at cycle   3 NSaved=   3.
 NSaved= 3 IEnMin= 3 EnMin= -2753.87134037359     IErMin= 3 ErrMin= 4.13D-03
 ErrMax= 4.13D-03 EMaxC= 1.00D-01 BMatC= 9.35D-03 BMatP= 4.75D-01
 IDIUse=3 WtCom= 9.59D-01 WtEn= 4.13D-02
 Coeff-Com: -0.506D-02 0.115D+00 0.890D+00
 Coeff-En:   0.000D+00 0.000D+00 0.100D+01
 Coeff:     -0.485D-02 0.110D+00 0.895D+00
 Gap=     0.501 Goal=   None    Shift=    0.000
 RMSDP=2.88D-04 MaxDP=1.62D-02 DE=-1.47D-01 OVMax= 1.21D-02

 Cycle   4  Pass 1  IDiag  1:
 RMSU=  4.56D-05    CP:  1.03D+00  6.09D-01  9.46D-01
 FoFJK:  IHMeth= 1 ICntrl=     0 DoSepK=T KAlg= 1 I1Cent= 0 FoldK=F
 E= -2753.87434526279     Delta-E=       -0.003004889207 Rises=F Damp=F
 DIIS: error= 1.91D-04 at cycle   4 NSaved=   4.
 NSaved= 4 IEnMin= 4 EnMin= -2753.87434526279     IErMin= 4 ErrMin= 1.91D-04
 ErrMax= 1.91D-04 EMaxC= 1.00D-01 BMatC= 1.64D-05 BMatP= 9.35D-03
 IDIUse=3 WtCom= 9.98D-01 WtEn= 1.91D-03
 Coeff-Com: -0.856D-03-0.146D-01-0.509D-01 0.107D+01
 Coeff-En:   0.000D+00 0.000D+00 0.000D+00 0.100D+01
 Coeff:     -0.854D-03-0.146D-01-0.508D-01 0.107D+01
 Gap=     0.499 Goal=   None    Shift=    0.000
 RMSDP=2.29D-05 MaxDP=8.94D-04 DE=-3.00D-03 OVMax= 7.90D-04

 Cycle   5  Pass 1  IDiag  1:
 RMSU=  1.10D-05    CP:  1.03D+00  6.07D-01  9.66D-01  1.13D+00
 FoFJK:  IHMeth= 1 ICntrl=     0 DoSepK=T KAlg= 1 I1Cent= 0 FoldK=F
 E= -2753.87435378172     Delta-E=       -0.000008518922 Rises=F Damp=F
 DIIS: error= 1.26D-05 at cycle   5 NSaved=   5.
 NSaved= 5 IEnMin= 5 EnMin= -2753.87435378172     IErMin= 5 ErrMin= 1.26D-05
 ErrMax= 1.26D-05 EMaxC= 1.00D-01 BMatC= 3.80D-08 BMatP= 1.64D-05
 IDIUse=1 WtCom= 1.00D+00 WtEn= 0.00D+00
 Coeff-Com:  0.115D-03-0.987D-03-0.999D-02-0.175D-01 0.103D+01
 Coeff:      0.115D-03-0.987D-03-0.999D-02-0.175D-01 0.103D+01
 Gap=     0.499 Goal=   None    Shift=    0.000
 RMSDP=2.45D-06 MaxDP=1.10D-04 DE=-8.52D-06 OVMax= 1.82D-04

 Cycle   6  Pass 1  IDiag  1:
 RMSU=  9.62D-07    CP:  1.03D+00  6.07D-01  9.67D-01  1.15D+00  1.08D+00
 FoFJK:  IHMeth= 1 ICntrl=     0 DoSepK=T KAlg= 1 I1Cent= 0 FoldK=F
 E= -2753.87435389854     Delta-E=       -0.000000116821 Rises=F Damp=F
 DIIS: error= 3.72D-06 at cycle   6 NSaved=   6.
 NSaved= 6 IEnMin= 6 EnMin= -2753.87435389854     IErMin= 6 ErrMin= 3.72D-06
 ErrMax= 3.72D-06 EMaxC= 1.00D-01 BMatC= 3.83D-09 BMatP= 3.80D-08
 IDIUse=1 WtCom= 1.00D+00 WtEn= 0.00D+00
 Coeff-Com:  0.631D-05 0.203D-03 0.400D-03-0.353D-01 0.387D-01 0.996D+00
 Coeff:      0.631D-05 0.203D-03 0.400D-03-0.353D-01 0.387D-01 0.996D+00
 Gap=     0.499 Goal=   None    Shift=    0.000
 RMSDP=6.08D-07 MaxDP=2.62D-05 DE=-1.17D-07 OVMax= 2.78D-05

 Cycle   7  Pass 1  IDiag  1:
 RMSU=  9.47D-08    CP:  1.03D+00  6.07D-01  9.67D-01  1.15D+00  1.11D+00
                    CP:  1.20D+00
 FoFJK:  IHMeth= 1 ICntrl=     0 DoSepK=T KAlg= 1 I1Cent= 0 FoldK=F
 E= -2753.87435390271     Delta-E=       -0.000000004172 Rises=F Damp=F
 DIIS: error= 2.19D-07 at cycle   7 NSaved=   7.
 NSaved= 7 IEnMin= 7 EnMin= -2753.87435390271     IErMin= 7 ErrMin= 2.19D-07
 ErrMax= 2.19D-07 EMaxC= 1.00D-01 BMatC= 3.23D-11 BMatP= 3.83D-09
 IDIUse=1 WtCom= 1.00D+00 WtEn= 0.00D+00
 Coeff-Com:  0.507D-06 0.646D-04 0.222D-03-0.841D-02 0.698D-03 0.229D+00
 Coeff-Com:  0.779D+00
 Coeff:      0.507D-06 0.646D-04 0.222D-03-0.841D-02 0.698D-03 0.229D+00
 Coeff:      0.779D+00
 Gap=     0.499 Goal=   None    Shift=    0.000
 RMSDP=4.35D-08 MaxDP=1.40D-06 DE=-4.17D-09 OVMax= 2.43D-06

 Cycle   8  Pass 1  IDiag  1:
 RMSU=  1.77D-08    CP:  1.03D+00  6.07D-01  9.67D-01  1.15D+00  1.11D+00
                    CP:  1.22D+00  1.06D+00
 FoFJK:  IHMeth= 1 ICntrl=     0 DoSepK=T KAlg= 1 I1Cent= 0 FoldK=F
 E= -2753.87435390273     Delta-E=       -0.000000000022 Rises=F Damp=F
 DIIS: error= 5.68D-08 at cycle   8 NSaved=   8.
 NSaved= 8 IEnMin= 8 EnMin= -2753.87435390273     IErMin= 8 ErrMin= 5.68D-08
 ErrMax= 5.68D-08 EMaxC= 1.00D-01 BMatC= 1.44D-12 BMatP= 3.23D-11
 IDIUse=1 WtCom= 1.00D+00 WtEn= 0.00D+00
 Coeff-Com: -0.140D-06-0.373D-05 0.101D-04 0.157D-02-0.207D-02-0.456D-01
 Coeff-Com:  0.479D-01 0.998D+00
 Coeff:     -0.140D-06-0.373D-05 0.101D-04 0.157D-02-0.207D-02-0.456D-01
 Coeff:      0.479D-01 0.998D+00
 Gap=     0.499 Goal=   None    Shift=    0.000
 RMSDP=2.04D-08 MaxDP=8.62D-07 DE=-2.18D-11 OVMax= 5.18D-07

 Cycle   9  Pass 1  IDiag  1:
 RMSU=  3.43D-09    CP:  1.03D+00  6.07D-01  9.67D-01  1.15D+00  1.11D+00
                    CP:  1.23D+00  1.12D+00  1.14D+00
 FoFJK:  IHMeth= 1 ICntrl=     0 DoSepK=T KAlg= 1 I1Cent= 0 FoldK=F
 E= -2753.87435390274     Delta-E=       -0.000000000006 Rises=F Damp=F
 DIIS: error= 5.83D-09 at cycle   9 NSaved=   9.
 NSaved= 9 IEnMin= 9 EnMin= -2753.87435390274     IErMin= 9 ErrMin= 5.83D-09
 ErrMax= 5.83D-09 EMaxC= 1.00D-01 BMatC= 5.92D-15 BMatP= 1.44D-12
 IDIUse=1 WtCom= 1.00D+00 WtEn= 0.00D+00
 Coeff-Com:  0.102D-07 0.133D-06-0.123D-05-0.130D-03 0.165D-04 0.469D-02
 Coeff-Com: -0.113D-01-0.137D+00 0.114D+01
 Coeff:      0.102D-07 0.133D-06-0.123D-05-0.130D-03 0.165D-04 0.469D-02
 Coeff:     -0.113D-01-0.137D+00 0.114D+01
 Gap=     0.499 Goal=   None    Shift=    0.000
 RMSDP=1.68D-09 MaxDP=6.74D-08 DE=-5.91D-12 OVMax= 8.98D-08

 SCF Done:  E(RwB97XD) =  -2753.87435390     A.U. after    9 cycles
             Convg  =    0.1679D-08             -V/T =  2.0013
 KE= 2.750260359060D+03 PE=-6.580198695570D+03 EE= 1.076063982608D+03
 Leave Link  502 at Sun May 10 11:33:52 2020, MaxMem= 1073741824 cpu:     255.9
 (Enter /home/matheus/.gaussian/g09/l601.exe)
 Copying SCF densities to generalized density rwf, IOpCl= 0 IROHF=0.

 **********************************************************************

            Population analysis using the SCF density.

 **********************************************************************

 Orbital symmetries:
       Occupied  (A) (A) (A) (A) (A) (A) (A) (A) (A) (A) (A) (A)
                 (A) (A) (A) (A) (A) (A)
       Virtual   (A) (A) (A) (A) (A) (A) (A) (A) (A) (A) (A) (A)
                 (A) (A) (A) (A) (A) (A) (A) (A) (A) (A) (A) (A)
                 (A) (A) (A) (A) (A) (A) (A) (A) (A) (A) (A) (A)
                 (A) (A) (A) (A) (A) (A) (A) (A) (A) (A) (A) (A)
                 (A) (A) (A) (A) (A) (A) (A) (A) (A) (A) (A) (A)
                 (A) (A) (A) (A) (A) (A) (A) (A) (A) (A) (A) (A)
                 (A) (A) (A) (A) (A) (A) (A) (A) (A) (A) (A) (A)
                 (A) (A) (A) (A) (A) (A) (A) (A) (A) (A) (A) (A)
                 (A) (A) (A) (A) (A) (A) (A) (A) (A) (A) (A) (A)
                 (A) (A) (A) (A) (A) (A) (A) (A) (A) (A) (A) (A)
                 (A) (A) (A) (A) (A) (A) (A) (A) (A) (A) (A) (A)
                 (A) (A) (A) (A) (A) (A) (A) (A) (A) (A) (A) (A)
                 (A) (A) (A) (A) (A) (A) (A) (A) (A) (A) (A) (A)
                 (A) (A) (A) (A) (A) (A) (A) (A) (A) (A) (A) (A)
                 (A) (A) (A) (A) (A) (A) (A) (A) (A) (A) (A)
 The electronic state is 1-A.
 Alpha  occ. eigenvalues -- -513.05922 -67.32596 -60.87472 -60.87471 -60.87471
 Alpha  occ. eigenvalues --   -9.77892  -7.47187  -7.47186  -7.47186  -3.33929
 Alpha  occ. eigenvalues --   -3.33929  -3.33929  -3.33928  -3.33928  -0.98489
 Alpha  occ. eigenvalues --   -0.46647  -0.46643  -0.46642
 Alpha virt. eigenvalues --    0.03212   0.05163   0.08727   0.09750   0.11768
 Alpha virt. eigenvalues --    0.12552   0.13479   0.14273   0.16583   0.17312
 Alpha virt. eigenvalues --    0.17991   0.19789   0.20823   0.25201   0.26362
 Alpha virt. eigenvalues --    0.26631   0.28257   0.30860   0.32748   0.34296
 Alpha virt. eigenvalues --    0.35790   0.37065   0.38011   0.39014   0.41480
 Alpha virt. eigenvalues --    0.41675   0.42739   0.52050   0.52824   0.56793
 Alpha virt. eigenvalues --    0.58592   0.66399   0.67306   0.69911   0.71601
 Alpha virt. eigenvalues --    0.74015   0.74237   0.75401   0.76051   0.78569
 Alpha virt. eigenvalues --    0.79058   0.79631   0.83144   0.85681   0.86239
 Alpha virt. eigenvalues --    0.87258   0.88456   0.89143   0.91132   0.94370
 Alpha virt. eigenvalues --    0.96226   0.98105   0.98756   1.00461   1.01243
 Alpha virt. eigenvalues --    1.03561   1.05811   1.07143   1.09967   1.11027
 Alpha virt. eigenvalues --    1.14172   1.19231   1.21475   1.23077   1.28845
 Alpha virt. eigenvalues --    1.32252   1.34723   1.39711   1.42879   1.43633
 Alpha virt. eigenvalues --    1.53712   1.57561   1.58768   1.73060   1.78812
 Alpha virt. eigenvalues --    1.79097   1.84093   1.86675   1.96369   2.14408
 Alpha virt. eigenvalues --    2.17980   2.24331   2.26618   2.28638   2.29218
 Alpha virt. eigenvalues --    2.30966   2.31907   2.34955   2.37389   2.41024
 Alpha virt. eigenvalues --    2.43366   2.45998   2.46227   2.46949   2.47763
 Alpha virt. eigenvalues --    2.51363   2.51935   2.54040   2.55313   2.57233
 Alpha virt. eigenvalues --    2.61324   2.62474   2.62706   2.66719   2.69319
 Alpha virt. eigenvalues --    2.72553   2.75693   2.84874   2.86602   2.88568
 Alpha virt. eigenvalues --    2.93037   2.96261   3.04212   3.13406   3.21135
 Alpha virt. eigenvalues --    3.23169   3.27016   3.31900   3.34842   3.50384
 Alpha virt. eigenvalues --    3.61777   3.66355   3.83078   3.87763   4.04256
 Alpha virt. eigenvalues --    4.35051   4.45796   4.53244   4.57720   4.63261
 Alpha virt. eigenvalues --    4.72909   4.87930   4.89890   4.94672   5.00895
 Alpha virt. eigenvalues --    5.16830   5.18728   5.59151   5.65861   5.75674
 Alpha virt. eigenvalues --    5.93494   6.01740   6.19115   6.74737   6.90377
 Alpha virt. eigenvalues --    7.37432   7.41363   7.62011   7.65192   7.72833
 Alpha virt. eigenvalues --    7.88960   7.92577   8.11566   8.17930   8.22143
 Alpha virt. eigenvalues --    8.40117   8.44809   8.60977   8.87832   9.64607
 Alpha virt. eigenvalues --    9.73968   9.83810   9.89617   9.94504  10.01652
 Alpha virt. eigenvalues --   10.15821  10.30891  10.41612  10.97078  11.52060
 Alpha virt. eigenvalues --   11.65693  11.72163  12.05191  12.10590  13.27482
 Alpha virt. eigenvalues --   13.61533  14.54142  62.71031  64.64936
          Condensed to atoms (all electrons):
              1          2          3          4          5
     1  O    0.003929  -0.002471  -0.002595   0.001624  -0.013066
     2  O   -0.002471   0.006668   0.000802  -0.004431  -0.001310
     3  H   -0.002595   0.000802   0.002120  -0.000567   0.004392
     4  H    0.001624  -0.004431  -0.000567   0.004297  -0.022136
     5  Kr  -0.013066  -0.001310   0.004392  -0.022136  36.062503
 Mulliken atomic charges:
              1
     1  O    0.012579
     2  O    0.000742
     3  H   -0.004151
     4  H    0.021213
     5  Kr  -0.030383
 Sum of Mulliken atomic charges =   0.00000
 Mulliken charges with hydrogens summed into heavy atoms:
              1
     1  O    0.008428
     2  O    0.021955
     5  Kr  -0.030383
 Sum of Mulliken charges with hydrogens summed into heavy atoms =   0.00000
          Condensed to fragments (all electrons):
     1       0.030383
     2      -0.030383
 Electronic spatial extent (au):  <R**2>=            165.7498
 Charge=              0.0000 electrons
 Dipole moment (field-independent basis, Debye):
    X=             -0.0002    Y=              0.0004    Z=              0.0001  Tot=              0.0005
 Quadrupole moment (field-independent basis, Debye-Ang):
   XX=            -17.6270   YY=            -17.6406   ZZ=            -17.6481
   XY=             -0.0050   XZ=              0.0002   YZ=              0.0004
 Traceless Quadrupole moment (field-independent basis, Debye-Ang):
   XX=              0.0116   YY=             -0.0021   ZZ=             -0.0095
   XY=             -0.0050   XZ=              0.0002   YZ=              0.0004
 Octapole moment (field-independent basis, Debye-Ang**2):
  XXX=            -52.4264  YYY=              0.7848  ZZZ=             -0.1290  XYY=            -17.4902
  XXY=              0.2519  XXZ=             -0.0434  XZZ=            -17.4944  YZZ=              0.2628
  YYZ=             -0.0426  XYZ=              0.0003
 Hexadecapole moment (field-independent basis, Debye-Ang**3):
 XXXX=           -122.3659 YYYY=            -18.4551 ZZZZ=            -18.4543 XXXY=              0.7571
 XXXZ=             -0.1293 YYYX=              0.7640 YYYZ=              0.0011 ZZZX=             -0.1290
 ZZZY=              0.0032 XXYY=            -23.4846 XXZZ=            -23.4859 YYZZ=             -6.1500
 XXYZ=              0.0012 YYXZ=             -0.0427 ZZXY=              0.2527
 N-N= 0.000000000000D+00 E-N=-6.580198696325D+03  KE= 2.750260359060D+03
 No NMR shielding tensors so no spin-rotation constants.
 Leave Link  601 at Sun May 10 11:33:52 2020, MaxMem= 1073741824 cpu:       0.8
 (Enter /home/matheus/.gaussian/g09/l122.exe)
 Counterpoise: doing MCBS calculation for fragment   1
 Leave Link  122 at Sun May 10 11:33:52 2020, MaxMem= 1073741824 cpu:       0.0
 (Enter /home/matheus/.gaussian/g09/l301.exe)
 Basis read from rwf:  (5D, 7F)
 No pseudopotential information found on rwf file.
 There are   138 symmetry adapted basis functions of A   symmetry.
 Integral buffers will be    131072 words long.
 Raffenetti 2 integral format.
 Two-electron integral symmetry is turned on.
   138 basis functions,   198 primitive gaussians,   160 cartesian basis functions
     9 alpha electrons        9 beta electrons
       nuclear repulsion energy        36.6123390277 Hartrees.
 IExCor= 4639 DFT=T Ex+Corr=wB97XD ExCW=0 ScaHFX=  1.000000
 ScaDFX=  1.000000  1.000000  1.000000  1.000000 ScalE2=  1.000000  1.000000
 IRadAn=      5 IRanWt=     -1 IRanGd=            0 ICorTp=0
  HFx wShort=  0.000000 wLong=  0.200000 cFull=  0.222036 cShort=  0.000000 cLong=  0.777964
  DFx wShort=  0.000000 wLong=  0.200000 cFull=  0.000000 cShort=  0.000000 cLong=  1.000000
 NAtoms=    5 NActive=    4 NUniq=    4 SFac= 1.00D+00 NAtFMM=   60 NAOKFM=F Big=F
 R6Disp: Dispersion energy =        -0.0002268130 Hartrees.
 Nuclear repulsion after empirical dispersion term =       36.6121122147 Hartrees.
 No density basis found on file   718.
 Leave Link  301 at Sun May 10 11:33:52 2020, MaxMem= 1073741824 cpu:       0.2
 (Enter /home/matheus/.gaussian/g09/l302.exe)
 NPDir=0 NMtPBC=     1 NCelOv=     1 NCel=       1 NClECP=     1 NCelD=      1
         NCelK=      1 NCelE2=     1 NClLst=     1 CellRange=     0.0.
 One-electron integrals computed using PRISM.
 NBasis=   138 RedAO= T  NBF=   138
 NBsUse=   138 1.00D-06 NBFU=   138
 Precomputing XC quadrature grid using
 IXCGrd= 2 IRadAn=           5 IRanWt=          -1 IRanGd=           0 AccXCQ= 0.00D+00.
 NRdTot=     344 NPtTot=       92556 NUsed=       95038 NTot=       95070
 NSgBfM=   160   160   160   160   160 NAtAll=     4     4.
 Leave Link  302 at Sun May 10 11:33:53 2020, MaxMem= 1073741824 cpu:       0.9
 (Enter /home/matheus/.gaussian/g09/l303.exe)
 DipDrv:  MaxL=1.
 Leave Link  303 at Sun May 10 11:33:53 2020, MaxMem= 1073741824 cpu:       0.2
 (Enter /home/matheus/.gaussian/g09/l401.exe)
 Harris functional with IExCor= 4639 diagonalized for initial guess.
 ExpMin= 2.53D-02 ExpMax= 1.53D+04 ExpMxC= 5.22D+02 IAcc=3 IRadAn=         5 AccDes= 0.00D+00
 HarFok:  IExCor= 4639 AccDes= 0.00D+00 IRadAn=         5 IDoV= 1
 ScaDFX=  1.000000  1.000000  1.000000  1.000000
 FoFCou: FMM=F IPFlag=           0 FMFlag=      100000 FMFlg1=           0
         NFxFlg=           0 DoJE=T BraDBF=F KetDBF=T FulRan=T
         Omega=  0.000000  0.000000  1.000000  0.000000  0.000000 ICntrl=     500 IOpCl=  0
         NMat0=    1 NMatS0=    1 NMatT0=    0 NMatD0=    1 NMtDS0=    0 NMtDT0=    0
         I1Cent=           4 NGrid=           0.
 Petite list used in FoFCou.
 Harris En= -146.294653301590    
 Initial guess orbital symmetries:
       Occupied  (A) (A) (A) (A) (A) (A) (A) (A) (A)
       Virtual   (A) (A) (A) (A) (A) (A) (A) (A) (A) (A) (A) (A)
                 (A) (A) (A) (A) (A) (A) (A) (A) (A) (A) (A) (A)
                 (A) (A) (A) (A) (A) (A) (A) (A) (A) (A) (A) (A)
                 (A) (A) (A) (A) (A) (A) (A) (A) (A) (A) (A) (A)
                 (A) (A) (A) (A) (A) (A) (A) (A) (A) (A) (A) (A)
                 (A) (A) (A) (A) (A) (A) (A) (A) (A) (A) (A) (A)
                 (A) (A) (A) (A) (A) (A) (A) (A) (A) (A) (A) (A)
                 (A) (A) (A) (A) (A) (A) (A) (A) (A) (A) (A) (A)
                 (A) (A) (A) (A) (A) (A) (A) (A) (A) (A) (A) (A)
                 (A) (A) (A) (A) (A) (A) (A) (A) (A) (A) (A) (A)
                 (A) (A) (A) (A) (A) (A) (A) (A) (A)
 The electronic state of the initial guess is 1-A.
 Leave Link  401 at Sun May 10 11:33:53 2020, MaxMem= 1073741824 cpu:       2.5
 (Enter /home/matheus/.gaussian/g09/l502.exe)
 Closed shell SCF:
 Requested convergence on RMS density matrix=1.00D-08 within 128 cycles.
 Requested convergence on MAX density matrix=1.00D-06.
 Requested convergence on             energy=1.00D-06.
 No special actions if energy rises.
 Using DIIS extrapolation, IDIIS=  1040.
 Integral symmetry usage will be decided dynamically.
        94980 words used for storage of precomputed grid.
 IEnd=      192360 IEndB=      192360 NGot=  1073741824 MDV=  1073591865
 LenX=  1073591865 LenY=  1073565824
 Fock matrices will be formed incrementally for  20 cycles.

 Cycle   1  Pass 1  IDiag  1:
 FoFJK:  IHMeth= 1 ICntrl=     0 DoSepK=T KAlg= 1 I1Cent= 0 FoldK=F
 FoFCou: FMM=F IPFlag=           0 FMFlag=      100000 FMFlg1=           0
         NFxFlg=           0 DoJE=T BraDBF=F KetDBF=F FulRan=T
         Omega=  0.000000  0.000000  1.000000  0.000000  0.000000 ICntrl=     500 IOpCl=  0
         NMat0=    1 NMatS0=    1 NMatT0=    0 NMatD0=    1 NMtDS0=    0 NMtDT0=    0
         I1Cent=           0 NGrid=           0.
 Symmetry not used in FoFCou.
 E= -151.478240253760    
 DIIS: error= 4.43D-02 at cycle   1 NSaved=   1.
 NSaved= 1 IEnMin= 1 EnMin= -151.478240253760     IErMin= 1 ErrMin= 4.43D-02
 ErrMax= 4.43D-02 EMaxC= 1.00D-01 BMatC= 3.00D-01 BMatP= 3.00D-01
 IDIUse=3 WtCom= 5.57D-01 WtEn= 4.43D-01
 Coeff-Com:  0.100D+01
 Coeff-En:   0.100D+01
 Coeff:      0.100D+01
 Gap=     0.518 Goal=   None    Shift=    0.000
 GapD=    0.518 DampG=2.000 DampE=0.500 DampFc=1.0000 IDamp=-1.
 RMSDP=3.40D-03 MaxDP=1.07D-01              OVMax= 1.09D-01

 Cycle   2  Pass 1  IDiag  1:
 RMSU=  2.35D-03    CP:  9.52D-01
 FoFJK:  IHMeth= 1 ICntrl=     0 DoSepK=T KAlg= 1 I1Cent= 0 FoldK=F
 E= -151.507901480720     Delta-E=       -0.029661226960 Rises=F Damp=F
 DIIS: error= 2.58D-02 at cycle   2 NSaved=   2.
 NSaved= 2 IEnMin= 2 EnMin= -151.507901480720     IErMin= 2 ErrMin= 2.58D-02
 ErrMax= 2.58D-02 EMaxC= 1.00D-01 BMatC= 9.10D-02 BMatP= 3.00D-01
 IDIUse=3 WtCom= 7.42D-01 WtEn= 2.58D-01
 Coeff-Com:  0.333D+00 0.667D+00
 Coeff-En:   0.367D+00 0.633D+00
 Coeff:      0.342D+00 0.658D+00
 Gap=     0.458 Goal=   None    Shift=    0.000
 RMSDP=1.43D-03 MaxDP=4.90D-02 DE=-2.97D-02 OVMax= 5.88D-02

 Cycle   3  Pass 1  IDiag  1:
 RMSU=  5.12D-04    CP:  9.73D-01  6.41D-01
 FoFJK:  IHMeth= 1 ICntrl=     0 DoSepK=T KAlg= 1 I1Cent= 0 FoldK=F
 E= -151.557082810286     Delta-E=       -0.049181329566 Rises=F Damp=F
 DIIS: error= 7.08D-03 at cycle   3 NSaved=   3.
 NSaved= 3 IEnMin= 3 EnMin= -151.557082810286     IErMin= 3 ErrMin= 7.08D-03
 ErrMax= 7.08D-03 EMaxC= 1.00D-01 BMatC= 6.27D-03 BMatP= 9.10D-02
 IDIUse=3 WtCom= 9.29D-01 WtEn= 7.08D-02
 Coeff-Com:  0.131D-01 0.216D+00 0.771D+00
 Coeff-En:   0.000D+00 0.000D+00 0.100D+01
 Coeff:      0.122D-01 0.201D+00 0.787D+00
[...]
 E= -2753.87423844186     Delta-E=       -0.000000561329 Rises=F Damp=F
 DIIS: error= 3.53D-06 at cycle   2 NSaved=   2.
 NSaved= 2 IEnMin= 2 EnMin= -2753.87423844186     IErMin= 2 ErrMin= 3.53D-06
 ErrMax= 3.53D-06 EMaxC= 1.00D-01 BMatC= 3.97D-09 BMatP= 3.70D-06
 IDIUse=1 WtCom= 1.00D+00 WtEn= 0.00D+00
 Coeff-Com: -0.100D-01 0.101D+01
 Coeff:     -0.100D-01 0.101D+01
 Gap=     0.496 Goal=   None    Shift=    0.000
 RMSDP=1.99D-06 MaxDP=7.58D-05 DE=-5.61D-07 OVMax= 5.10D-05

 Cycle   3  Pass 1  IDiag  1:
 RMSU=  5.10D-07    CP:  1.00D+00  1.09D+00
 FoFJK:  IHMeth= 1 ICntrl=     0 DoSepK=T KAlg= 1 I1Cent= 0 FoldK=F
 E= -2753.87423844924     Delta-E=       -0.000000007381 Rises=F Damp=F
 DIIS: error= 6.17D-07 at cycle   3 NSaved=   3.
 NSaved= 3 IEnMin= 3 EnMin= -2753.87423844924     IErMin= 3 ErrMin= 6.17D-07
 ErrMax= 6.17D-07 EMaxC= 1.00D-01 BMatC= 1.08D-10 BMatP= 3.97D-09
 IDIUse=1 WtCom= 1.00D+00 WtEn= 0.00D+00
 Coeff-Com: -0.801D-05-0.953D-01 0.110D+01
 Coeff:     -0.801D-05-0.953D-01 0.110D+01
 Gap=     0.496 Goal=   None    Shift=    0.000
 RMSDP=2.23D-07 MaxDP=7.70D-06 DE=-7.38D-09 OVMax= 9.84D-06

 Cycle   4  Pass 1  IDiag  1:
 RMSU=  5.45D-08    CP:  1.00D+00  1.10D+00  1.20D+00
 FoFJK:  IHMeth= 1 ICntrl=     0 DoSepK=T KAlg= 1 I1Cent= 0 FoldK=F
 E= -2753.87423844943     Delta-E=       -0.000000000189 Rises=F Damp=F
 DIIS: error= 3.75D-07 at cycle   4 NSaved=   4.
 NSaved= 4 IEnMin= 4 EnMin= -2753.87423844943     IErMin= 4 ErrMin= 3.75D-07
 ErrMax= 3.75D-07 EMaxC= 1.00D-01 BMatC= 1.83D-11 BMatP= 1.08D-10
 IDIUse=1 WtCom= 1.00D+00 WtEn= 0.00D+00
 Coeff-Com:  0.210D-03-0.523D-01 0.341D+00 0.712D+00
 Coeff:      0.210D-03-0.523D-01 0.341D+00 0.712D+00
 Gap=     0.496 Goal=   None    Shift=    0.000
 RMSDP=2.22D-08 MaxDP=9.26D-07 DE=-1.89D-10 OVMax= 1.36D-06

 Cycle   5  Pass 1  IDiag  1:
 RMSU=  1.08D-08    CP:  1.00D+00  1.10D+00  1.22D+00  1.07D+00
 FoFJK:  IHMeth= 1 ICntrl=     0 DoSepK=T KAlg= 1 I1Cent= 0 FoldK=F
 E= -2753.87423844942     Delta-E=        0.000000000002 Rises=F Damp=F
 DIIS: error= 2.18D-08 at cycle   5 NSaved=   5.
 NSaved= 5 IEnMin= 4 EnMin= -2753.87423844943     IErMin= 5 ErrMin= 2.18D-08
 ErrMax= 2.18D-08 EMaxC= 1.00D-01 BMatC= 1.43D-13 BMatP= 1.83D-11
 IDIUse=1 WtCom= 1.00D+00 WtEn= 0.00D+00
 Coeff-Com: -0.778D-06 0.326D-02-0.341D-01-0.157D-01 0.105D+01
 Coeff:     -0.778D-06 0.326D-02-0.341D-01-0.157D-01 0.105D+01
 Gap=     0.496 Goal=   None    Shift=    0.000
 RMSDP=9.34D-09 MaxDP=5.70D-07 DE= 1.82D-12 OVMax= 3.59D-07

 SCF Done:  E(RwB97XD) =  -2753.87423845     A.U. after    5 cycles
             Convg  =    0.9342D-08             -V/T =  2.0013
 KE= 2.750294711722D+03 PE=-6.580235378405D+03 EE= 1.076066428233D+03
 Leave Link  502 at Sun May 10 11:56:36 2020, MaxMem= 1073741824 cpu:      95.0
 (Enter /home/matheus/.gaussian/g09/l122.exe)
 Restoring MOs from calculation   4 to rwf.
 Counterpoise: doing MCBS calculation for fragment   1
 Leave Link  122 at Sun May 10 11:56:36 2020, MaxMem= 1073741824 cpu:       0.0
 (Enter /home/matheus/.gaussian/g09/l301.exe)
 Basis read from rwf:  (5D, 7F)
 No pseudopotential information found on rwf file.
 There are   138 symmetry adapted basis functions of A   symmetry.
 Integral buffers will be    131072 words long.
 Raffenetti 2 integral format.
 Two-electron integral symmetry is turned on.
   138 basis functions,   198 primitive gaussians,   160 cartesian basis functions
     9 alpha electrons        9 beta electrons
       nuclear repulsion energy        36.6123390277 Hartrees.
 IExCor= 4639 DFT=T Ex+Corr=wB97XD ExCW=0 ScaHFX=  1.000000
 ScaDFX=  1.000000  1.000000  1.000000  1.000000 ScalE2=  1.000000  1.000000
 IRadAn=      5 IRanWt=     -1 IRanGd=            0 ICorTp=0
  HFx wShort=  0.000000 wLong=  0.200000 cFull=  0.222036 cShort=  0.000000 cLong=  0.777964
  DFx wShort=  0.000000 wLong=  0.200000 cFull=  0.000000 cShort=  0.000000 cLong=  1.000000
 NAtoms=    5 NActive=    4 NUniq=    4 SFac= 1.00D+00 NAtFMM=   60 NAOKFM=F Big=F
 R6Disp: Dispersion energy =        -0.0002268130 Hartrees.
 Nuclear repulsion after empirical dispersion term =       36.6121122147 Hartrees.
 No density basis found on file   718.
 Leave Link  301 at Sun May 10 11:56:36 2020, MaxMem= 1073741824 cpu:       0.2
 (Enter /home/matheus/.gaussian/g09/l302.exe)
 NPDir=0 NMtPBC=     1 NCelOv=     1 NCel=       1 NClECP=     1 NCelD=      1
         NCelK=      1 NCelE2=     1 NClLst=     1 CellRange=     0.0.
 One-electron integrals computed using PRISM.
 NBasis=   138 RedAO= T  NBF=   138
 NBsUse=   138 1.00D-06 NBFU=   138
 Precomputing XC quadrature grid using
 IXCGrd= 2 IRadAn=           5 IRanWt=          -1 IRanGd=           0 AccXCQ= 0.00D+00.
 NRdTot=     344 NPtTot=       92556 NUsed=       95038 NTot=       95070
 NSgBfM=   160   160   160   160   160 NAtAll=     4     4.
 Leave Link  302 at Sun May 10 11:56:37 2020, MaxMem= 1073741824 cpu:       0.8
 (Enter /home/matheus/.gaussian/g09/l303.exe)
 DipDrv:  MaxL=1.
 Leave Link  303 at Sun May 10 11:56:37 2020, MaxMem= 1073741824 cpu:       0.1
 (Enter /home/matheus/.gaussian/g09/l401.exe)
 Initial guess read from the read-write file.
 Guess basis will be translated and rotated to current coordinates.
 Initial guess orbital symmetries:
       Occupied  (A) (A) (A) (A) (A) (A) (A) (A) (A)
       Virtual   (A) (A) (A) (A) (A) (A) (A) (A) (A) (A) (A) (A)
                 (A) (A) (A) (A) (A) (A) (A) (A) (A) (A) (A) (A)
                 (A) (A) (A) (A) (A) (A) (A) (A) (A) (A) (A) (A)
                 (A) (A) (A) (A) (A) (A) (A) (A) (A) (A) (A) (A)
                 (A) (A) (A) (A) (A) (A) (A) (A) (A) (A) (A) (A)
                 (A) (A) (A) (A) (A) (A) (A) (A) (A) (A) (A) (A)
                 (A) (A) (A) (A) (A) (A) (A) (A) (A) (A) (A) (A)
                 (A) (A) (A) (A) (A) (A) (A) (A) (A) (A) (A) (A)
                 (A) (A) (A) (A) (A) (A) (A) (A) (A) (A) (A) (A)
                 (A) (A) (A) (A) (A) (A) (A) (A) (A) (A) (A) (A)
                 (A) (A) (A) (A) (A) (A) (A) (A) (A)
 The electronic state of the initial guess is 1-A.
 Generating alternative initial guess.
 Harris functional with IExCor= 4639 diagonalized for initial guess.
 ExpMin= 2.53D-02 ExpMax= 1.53D+04 ExpMxC= 5.22D+02 IAcc=3 IRadAn=         5 AccDes= 0.00D+00
 HarFok:  IExCor= 4639 AccDes= 0.00D+00 IRadAn=         5 IDoV= 1
 ScaDFX=  1.000000  1.000000  1.000000  1.000000
 FoFCou: FMM=F IPFlag=           0 FMFlag=      100000 FMFlg1=           0
         NFxFlg=           0 DoJE=T BraDBF=F KetDBF=T FulRan=T
         Omega=  0.000000  0.000000  1.000000  0.000000  0.000000 ICntrl=     500 IOpCl=  0
         NMat0=    1 NMatS0=    1 NMatT0=    0 NMatD0=    1 NMtDS0=    0 NMtDT0=    0
         I1Cent=           4 NGrid=           0.
 Petite list used in FoFCou.
 Harris En= -146.294653301923    
 Leave Link  401 at Sun May 10 11:56:37 2020, MaxMem= 1073741824 cpu:       2.5
 (Enter /home/matheus/.gaussian/g09/l502.exe)
 Closed shell SCF:
 Requested convergence on RMS density matrix=1.00D-08 within 128 cycles.
 Requested convergence on MAX density matrix=1.00D-06.
 Requested convergence on             energy=1.00D-06.
 No special actions if energy rises.
 Using DIIS extrapolation, IDIIS=  1040.
 Integral symmetry usage will be decided dynamically.
        94980 words used for storage of precomputed grid.
 IEnd=      192360 IEndB=      192360 NGot=  1073741824 MDV=  1073591865
 LenX=  1073591865 LenY=  1073565824
 Fock matrices will be formed incrementally for  20 cycles.

 Cycle   1  Pass 1  IDiag  1:
 FoFJK:  IHMeth= 1 ICntrl=     0 DoSepK=T KAlg= 1 I1Cent= 0 FoldK=F
 FoFCou: FMM=F IPFlag=           0 FMFlag=      100000 FMFlg1=           0
         NFxFlg=           0 DoJE=T BraDBF=F KetDBF=F FulRan=T
         Omega=  0.000000  0.000000  1.000000  0.000000  0.000000 ICntrl=     500 IOpCl=  0
         NMat0=    1 NMatS0=    1 NMatT0=    0 NMatD0=    1 NMtDS0=    0 NMtDT0=    0
         I1Cent=           0 NGrid=           0.
 Symmetry not used in FoFCou.
 E= -151.561148877534    
 DIIS: error= 1.55D-05 at cycle   1 NSaved=   1.
 NSaved= 1 IEnMin= 1 EnMin= -151.561148877534     IErMin= 1 ErrMin= 1.55D-05
 ErrMax= 1.55D-05 EMaxC= 1.00D-01 BMatC= 3.97D-08 BMatP= 3.97D-08
 IDIUse=1 WtCom= 1.00D+00 WtEn= 0.00D+00
 Coeff-Com:  0.100D+01
 Coeff:      0.100D+01
 Gap=     0.408 Goal=   None    Shift=    0.000
 RMSDP=1.26D-06 MaxDP=2.49D-05              OVMax= 7.36D-05

 Cycle   2  Pass 1  IDiag  1:
 RMSU=  8.88D-07    CP:  1.00D+00
 FoFJK:  IHMeth= 1 ICntrl=     0 DoSepK=T KAlg= 1 I1Cent= 0 FoldK=F
 E= -151.561148919494     Delta-E=       -0.000000041961 Rises=F Damp=F
 DIIS: error= 2.53D-06 at cycle   2 NSaved=   2.
 NSaved= 2 IEnMin= 2 EnMin= -151.561148919494     IErMin= 2 ErrMin= 2.53D-06
 ErrMax= 2.53D-06 EMaxC= 1.00D-01 BMatC= 1.30D-09 BMatP= 3.97D-08
 IDIUse=1 WtCom= 1.00D+00 WtEn= 0.00D+00
 Coeff-Com: -0.101D+00 0.110D+01
 Coeff:     -0.101D+00 0.110D+01
 Gap=     0.408 Goal=   None    Shift=    0.000
 RMSDP=3.84D-07 MaxDP=8.06D-06 DE=-4.20D-08 OVMax= 2.54D-05

 Cycle   3  Pass 1  IDiag  1:
 RMSU=  1.69D-07    CP:  1.00D+00  1.24D+00
 FoFJK:  IHMeth= 1 ICntrl=     0 DoSepK=T KAlg= 1 I1Cent= 0 FoldK=F
 E= -151.561148922122     Delta-E=       -0.000000002628 Rises=F Damp=F
 DIIS: error= 1.51D-06 at cycle   3 NSaved=   3.
 NSaved= 3 IEnMin= 3 EnMin= -151.561148922122     IErMin= 3 ErrMin= 1.51D-06
 ErrMax= 1.51D-06 EMaxC= 1.00D-01 BMatC= 3.36D-10 BMatP= 1.30D-09
 IDIUse=1 WtCom= 1.00D+00 WtEn= 0.00D+00
 Coeff-Com: -0.457D-01 0.319D+00 0.726D+00
 Coeff:     -0.457D-01 0.319D+00 0.726D+00
 Gap=     0.408 Goal=   None    Shift=    0.000
 RMSDP=1.25D-07 MaxDP=4.09D-06 DE=-2.63D-09 OVMax= 7.30D-06

 Cycle   4  Pass 1  IDiag  1:
 RMSU=  7.95D-08    CP:  1.00D+00  1.28D+00  1.04D+00
 FoFJK:  IHMeth= 1 ICntrl=     0 DoSepK=T KAlg= 1 I1Cent= 0 FoldK=F
 E= -151.561148922359     Delta-E=       -0.000000000237 Rises=F Damp=F
 DIIS: error= 1.00D-06 at cycle   4 NSaved=   4.
 NSaved= 4 IEnMin= 4 EnMin= -151.561148922359     IErMin= 4 ErrMin= 1.00D-06
 ErrMax= 1.00D-06 EMaxC= 1.00D-01 BMatC= 1.82D-10 BMatP= 3.36D-10
 IDIUse=1 WtCom= 1.00D+00 WtEn= 0.00D+00
 Coeff-Com: -0.865D-03-0.930D-01 0.431D+00 0.663D+00
 Coeff:     -0.865D-03-0.930D-01 0.431D+00 0.663D+00
 Gap=     0.408 Goal=   None    Shift=    0.000
 RMSDP=6.84D-08 MaxDP=1.70D-06 DE=-2.37D-10 OVMax= 4.00D-06

 Cycle   5  Pass 1  IDiag  1:
 RMSU=  1.77D-08    CP:  1.00D+00  1.30D+00  1.26D+00  8.08D-01
 FoFJK:  IHMeth= 1 ICntrl=     0 DoSepK=T KAlg= 1 I1Cent= 0 FoldK=F
 E= -151.561148922514     Delta-E=       -0.000000000155 Rises=F Damp=F
 DIIS: error= 1.65D-07 at cycle   5 NSaved=   5.
 NSaved= 5 IEnMin= 5 EnMin= -151.561148922514     IErMin= 5 ErrMin= 1.65D-07
 ErrMax= 1.65D-07 EMaxC= 1.00D-01 BMatC= 3.86D-12 BMatP= 1.82D-10
 IDIUse=1 WtCom= 1.00D+00 WtEn= 0.00D+00
 Coeff-Com:  0.429D-02-0.491D-01-0.203D-01 0.844D-01 0.981D+00
 Coeff:      0.429D-02-0.491D-01-0.203D-01 0.844D-01 0.981D+00
 Gap=     0.408 Goal=   None    Shift=    0.000
 RMSDP=2.38D-08 MaxDP=4.24D-07 DE=-1.55D-10 OVMax= 2.07D-06

 Cycle   6  Pass 1  IDiag  1:
 RMSU=  6.67D-09    CP:  1.00D+00  1.31D+00  1.32D+00  9.07D-01  1.38D+00
 FoFJK:  IHMeth= 1 ICntrl=     0 DoSepK=T KAlg= 1 I1Cent= 0 FoldK=F
 E= -151.561148922523     Delta-E=       -0.000000000009 Rises=F Damp=F
 DIIS: error= 5.55D-08 at cycle   6 NSaved=   6.
 NSaved= 6 IEnMin= 6 EnMin= -151.561148922523     IErMin= 6 ErrMin= 5.55D-08
 ErrMax= 5.55D-08 EMaxC= 1.00D-01 BMatC= 3.80D-13 BMatP= 3.86D-12
 IDIUse=1 WtCom= 1.00D+00 WtEn= 0.00D+00
 Coeff-Com:  0.684D-03-0.131D-02-0.274D-01-0.251D-01 0.148D+00 0.905D+00
 Coeff:      0.684D-03-0.131D-02-0.274D-01-0.251D-01 0.148D+00 0.905D+00
 Gap=     0.408 Goal=   None    Shift=    0.000
 RMSDP=7.79D-09 MaxDP=1.87D-07 DE=-9.49D-12 OVMax= 7.17D-07

 SCF Done:  E(RwB97XD) =  -151.561148923     A.U. after    6 cycles
             Convg  =    0.7788D-08             -V/T =  2.0059
 KE= 1.506696423549D+02 PE=-4.317251506139D+02 EE= 9.288224712175D+01
 Leave Link  502 at Sun May 10 11:56:43 2020, MaxMem= 1073741824 cpu:      48.8
 (Enter /home/matheus/.gaussian/g09/l122.exe)
 Restoring MOs from calculation   5 to rwf.
 Counterpoise: doing MCBS calculation for fragment   2
 Leave Link  122 at Sun May 10 11:56:43 2020, MaxMem= 1073741824 cpu:       0.0
 (Enter /home/matheus/.gaussian/g09/l301.exe)
 Basis read from rwf:  (5D, 7F)
 No pseudopotential information found on rwf file.
 There are    59 symmetry adapted basis functions of A   symmetry.
 Integral buffers will be    131072 words long.
 Raffenetti 2 integral format.
 Two-electron integral symmetry is turned on.
    59 basis functions,   217 primitive gaussians,    69 cartesian basis functions
    18 alpha electrons       18 beta electrons
       nuclear repulsion energy         0.0000000000 Hartrees.
 IExCor= 4639 DFT=T Ex+Corr=wB97XD ExCW=0 ScaHFX=  1.000000
 ScaDFX=  1.000000  1.000000  1.000000  1.000000 ScalE2=  1.000000  1.000000
 IRadAn=      5 IRanWt=     -1 IRanGd=            0 ICorTp=0
  HFx wShort=  0.000000 wLong=  0.200000 cFull=  0.222036 cShort=  0.000000 cLong=  0.777964
  DFx wShort=  0.000000 wLong=  0.200000 cFull=  0.000000 cShort=  0.000000 cLong=  1.000000
 NAtoms=    5 NActive=    1 NUniq=    1 SFac= 1.00D+00 NAtFMM=   60 NAOKFM=F Big=F
 R6Disp: Dispersion energy =         0.0000000000 Hartrees.
 Nuclear repulsion after empirical dispersion term =        0.0000000000 Hartrees.
 No density basis found on file   718.
 Leave Link  301 at Sun May 10 11:56:43 2020, MaxMem= 1073741824 cpu:       0.2
 (Enter /home/matheus/.gaussian/g09/l302.exe)
 NPDir=0 NMtPBC=     1 NCelOv=     1 NCel=       1 NClECP=     1 NCelD=      1
         NCelK=      1 NCelE2=     1 NClLst=     1 CellRange=     0.0.
 One-electron integrals computed using PRISM.
 NBasis=    59 RedAO= T  NBF=    59
 NBsUse=    59 1.00D-06 NBFU=    59
 Precomputing XC quadrature grid using
 IXCGrd= 2 IRadAn=           5 IRanWt=          -1 IRanGd=           0 AccXCQ= 0.00D+00.
 NRdTot=      81 NPtTot=       30352 NUsed=       30981 NTot=       31013
 NSgBfM=    69    69    69    69    69 NAtAll=     1     1.
 Leave Link  302 at Sun May 10 11:56:43 2020, MaxMem= 1073741824 cpu:       0.6
 (Enter /home/matheus/.gaussian/g09/l303.exe)
 DipDrv:  MaxL=1.
 Leave Link  303 at Sun May 10 11:56:43 2020, MaxMem= 1073741824 cpu:       0.1
 (Enter /home/matheus/.gaussian/g09/l401.exe)
 Initial guess read from the read-write file.
 Guess basis will be translated and rotated to current coordinates.
 Initial guess orbital symmetries:
       Occupied  (A) (A) (A) (A) (A) (A) (A) (A) (A) (A) (A) (A)
                 (A) (A) (A) (A) (A) (A)
       Virtual   (A) (A) (A) (A) (A) (A) (A) (A) (A) (A) (A) (A)
                 (A) (A) (A) (A) (A) (A) (A) (A) (A) (A) (A) (A)
                 (A) (A) (A) (A) (A) (A) (A) (A) (A) (A) (A) (A)
                 (A) (A) (A) (A) (A)
 The electronic state of the initial guess is 1-A.
 Generating alternative initial guess.
 Harris functional with IExCor= 4639 diagonalized for initial guess.
 ExpMin= 4.00D-02 ExpMax= 1.17D+07 ExpMxC= 1.33D+04 IAcc=3 IRadAn=         5 AccDes= 0.00D+00
 HarFok:  IExCor= 4639 AccDes= 0.00D+00 IRadAn=         5 IDoV= 1
 ScaDFX=  1.000000  1.000000  1.000000  1.000000
 FoFCou: FMM=F IPFlag=           0 FMFlag=      100000 FMFlg1=           0
         NFxFlg=           0 DoJE=T BraDBF=F KetDBF=T FulRan=T
         Omega=  0.000000  0.000000  1.000000  0.000000  0.000000 ICntrl=     500 IOpCl=  0
         NMat0=    1 NMatS0=    1 NMatT0=    0 NMatD0=    1 NMtDS0=    0 NMtDT0=    0
         I1Cent=           4 NGrid=           0.
 Petite list used in FoFCou.
 Harris En= -2730.20235208354    
 Leave Link  401 at Sun May 10 11:56:43 2020, MaxMem= 1073741824 cpu:       1.1
 (Enter /home/matheus/.gaussian/g09/l502.exe)
 Closed shell SCF:
 Requested convergence on RMS density matrix=1.00D-08 within 128 cycles.
 Requested convergence on MAX density matrix=1.00D-06.
 Requested convergence on             energy=1.00D-06.
 No special actions if energy rises.
 Using DIIS extrapolation, IDIIS=  1040.
 Integral symmetry usage will be decided dynamically.
        30923 words used for storage of precomputed grid.
 IEnd=       64406 IEndB=       64406 NGot=  1073741824 MDV=  1073698889
 LenX=  1073698889 LenY=  1073693687
 Fock matrices will be formed incrementally for  20 cycles.

 Cycle   1  Pass 1  IDiag  1:
 FoFJK:  IHMeth= 1 ICntrl=     0 DoSepK=T KAlg= 1 I1Cent= 0 FoldK=F
 FoFCou: FMM=F IPFlag=           0 FMFlag=      100000 FMFlg1=           0
         NFxFlg=           0 DoJE=T BraDBF=F KetDBF=F FulRan=T
         Omega=  0.000000  0.000000  1.000000  0.000000  0.000000 ICntrl=     500 IOpCl=  0
         NMat0=    1 NMatS0=    1 NMatT0=    0 NMatD0=    1 NMtDS0=    0 NMtDT0=    0
         I1Cent=           0 NGrid=           0.
 Symmetry not used in FoFCou.
 E= -2753.87421986326    
 DIIS: error= 9.77D-14 at cycle   1 NSaved=   1.
 NSaved= 1 IEnMin= 1 EnMin= -2753.87421986326     IErMin= 1 ErrMin= 9.77D-14
 ErrMax= 9.77D-14 EMaxC= 1.00D-01 BMatC= 1.07D-24 BMatP= 1.07D-24
 IDIUse=1 WtCom= 1.00D+00 WtEn= 0.00D+00
 Coeff-Com:  0.100D+01
 Coeff:      0.100D+01
 Gap=     0.562 Goal=   None    Shift=    0.000
 RMSDP=1.59D-14 MaxDP=2.69D-13              OVMax= 1.79D-13

 SCF Done:  E(RwB97XD) =  -2753.87421986     A.U. after    1 cycles
             Convg  =    0.1586D-13             -V/T =  2.0013
 KE= 2.750300381543D+03 PE=-6.580241205809D+03 EE= 1.076066604402D+03
 Leave Link  502 at Sun May 10 11:56:45 2020, MaxMem= 1073741824 cpu:      12.2
 (Enter /home/matheus/.gaussian/g09/l122.exe)
 Restoring MOs from calculation   1 to rwf.
 Counterpoise: corrected energy =   -2905.435659240808
 Counterpoise: BSSE energy =       0.000022248754
 Leave Link  122 at Sun May 10 11:56:45 2020, MaxMem= 1073741824 cpu:       0.0
 (Enter /home/matheus/.gaussian/g09/l108.exe)
 Scan completed.

 Summary of the potential surface scan:
   N      R1          SCF    
 ----  ---------  -----------
    1     3.0000  -2753.87422
    2     3.1000  -2753.87422
    3     3.2000  -2753.87422
    4     3.3000  -2753.87422
    5     3.4000  -2753.87422
    6     3.5000  -2753.87422
    7     3.6000  -2753.87422
    8     3.7000  -2753.87422
    9     3.8000  -2753.87422
   10     3.9000  -2753.87422
   11     4.0000  -2753.87422
   12     4.1000  -2753.87422
   13     4.2000  -2753.87422
   14     4.3000  -2753.87422
   15     4.4000  -2753.87422
   16     4.5000  -2753.87422
   17     4.6000  -2753.87422
   18     4.7000  -2753.87422
   19     4.8000  -2753.87422
   20     4.9000  -2753.87422
   21     5.0000  -2753.87422
 ----  ---------  -----------
  
 Leave Link  108 at Sun May 10 11:56:45 2020, MaxMem= 1073741824 cpu:       0.0
 (Enter /home/matheus/.gaussian/g09/l9999.exe)
 1\1\GINC-REDGIANT\Scan\RwB97XD\Aug-CC-pVTZ\H2Kr1O2\MATHEUS\10-May-2020
 \1\\#p wb97xd/aug-cc-PVTz int=ultrafine counterpoise=2 Scan\\TCC\\0,1\
 O,0,0.,0.,0.725\O,0,0.,0.,-0.725\H,0,-0.795635374,-0.4593602974,1.0235
 104166\H,0,0.,0.9187205947,-1.0235104166\Kr,0,0.,R1,0.\\R1=3.,s,20,0.1
 \\Version=EM64L-G09RevC.01\State=1-A\HF=-2753.8742199,-2753.8742199,-2
 753.8742199,-2753.8742199,-2753.8742199,-2753.8742199,-2753.8742199,-2
 753.8742199,-2753.8742199,-2753.8742199,-2753.8742199,-2753.8742199,-2
 753.8742199,-2753.8742199,-2753.8742199,-2753.8742199,-2753.8742199,-2
 753.8742199,-2753.8742199,-2753.8742199,-2753.8742199\RMSD=9.120e-09,1
 .920e-10,6.363e-11,4.203e-11,2.496e-11,1.570e-11,9.723e-12,6.061e-12,3
 .770e-12,2.340e-12,1.450e-12,9.008e-13,5.598e-13,3.514e-13,2.194e-13,1
 .380e-13,8.249e-14,5.223e-14,3.604e-14,2.231e-14,1.586e-14\PG=C01 [X(H
 2Kr1O2)]\\@


 BE CAREFUL NOT TO BECOME TOO GOOD OF A SONGBIRD OR 
 THEY'LL THROW YOU INTO A CAGE.

                                    -- SNOOPY TO WOODSTOCK
 Job cpu time:  0 days  3 hours 17 minutes 13.0 seconds.
 File lengths (MBytes):  RWF=     33 Int=      0 D2E=      0 Chk=      8 Scr=      1
 Normal termination of Gaussian 09 at Sun May 10 11:56:45 2020.
