 Entering Gaussian System, Link 0=g09
 Input=/home/matheus/.tcc/Inputs/Inputs-wb97xd-default/H2O2-Kr_34.com
 Output=/home/matheus/.tcc/Logs/Logs-wb97xd-default/H2O2-Kr_34.log
 Initial command:
 /home/matheus/.gaussian/g09/l1.exe /home/matheus/.gaussian/g09/scratch/Gau-8625.inp -scrdir=/home/matheus/.gaussian/g09/scratch/
 Entering Link 1 = /home/matheus/.gaussian/g09/l1.exe PID=      8629.
  
 Copyright (c) 1988,1990,1992,1993,1995,1998,2003,2009,2011,
            Gaussian, Inc.  All Rights Reserved.
  
 This is part of the Gaussian(R) 09 program.  It is based on
 the Gaussian(R) 03 system (copyright 2003, Gaussian, Inc.),
 the Gaussian(R) 98 system (copyright 1998, Gaussian, Inc.),
 the Gaussian(R) 94 system (copyright 1995, Gaussian, Inc.),
 the Gaussian 92(TM) system (copyright 1992, Gaussian, Inc.),
 the Gaussian 90(TM) system (copyright 1990, Gaussian, Inc.),
 the Gaussian 88(TM) system (copyright 1988, Gaussian, Inc.),
 the Gaussian 86(TM) system (copyright 1986, Carnegie Mellon
 University), and the Gaussian 82(TM) system (copyright 1983,
 Carnegie Mellon University). Gaussian is a federally registered
 trademark of Gaussian, Inc.
  
 This software contains proprietary and confidential information,
 including trade secrets, belonging to Gaussian, Inc.
  
 This software is provided under written license and may be
 used, copied, transmitted, or stored only in accord with that
 written license.
  
 The following legend is applicable only to US Government
 contracts under FAR:
  
                    RESTRICTED RIGHTS LEGEND
  
 Use, reproduction and disclosure by the US Government is
 subject to restrictions as set forth in subparagraphs (a)
 and (c) of the Commercial Computer Software - Restricted
 Rights clause in FAR 52.227-19.
  
 Gaussian, Inc.
 340 Quinnipiac St., Bldg. 40, Wallingford CT 06492
  
  
 ---------------------------------------------------------------
 Warning -- This program may not be used in any manner that
 competes with the business of Gaussian, Inc. or will provide
 assistance to any competitor of Gaussian, Inc.  The licensee
 of this program is prohibited from giving any competitor of
 Gaussian, Inc. access to this program.  By using this program,
 the user acknowledges that Gaussian, Inc. is engaged in the
 business of creating and licensing software in the field of
 computational chemistry and represents and warrants to the
 licensee that it is not a competitor of Gaussian, Inc. and that
 it will not use this program in any manner prohibited above.
 ---------------------------------------------------------------
  

 Cite this work as:
 Gaussian 09, Revision C.01,
 M. J. Frisch, G. W. Trucks, H. B. Schlegel, G. E. Scuseria, 
 M. A. Robb, J. R. Cheeseman, G. Scalmani, V. Barone, B. Mennucci, 
 G. A. Petersson, H. Nakatsuji, M. Caricato, X. Li, H. P. Hratchian, 
 A. F. Izmaylov, J. Bloino, G. Zheng, J. L. Sonnenberg, M. Hada, 
 M. Ehara, K. Toyota, R. Fukuda, J. Hasegawa, M. Ishida, T. Nakajima, 
 Y. Honda, O. Kitao, H. Nakai, T. Vreven, J. A. Montgomery, Jr., 
 J. E. Peralta, F. Ogliaro, M. Bearpark, J. J. Heyd, E. Brothers, 
 K. N. Kudin, V. N. Staroverov, T. Keith, R. Kobayashi, J. Normand, 
 K. Raghavachari, A. Rendell, J. C. Burant, S. S. Iyengar, J. Tomasi, 
 M. Cossi, N. Rega, J. M. Millam, M. Klene, J. E. Knox, J. B. Cross, 
 V. Bakken, C. Adamo, J. Jaramillo, R. Gomperts, R. E. Stratmann, 
 O. Yazyev, A. J. Austin, R. Cammi, C. Pomelli, J. W. Ochterski, 
 R. L. Martin, K. Morokuma, V. G. Zakrzewski, G. A. Voth, 
 P. Salvador, J. J. Dannenberg, S. Dapprich, A. D. Daniels, 
 O. Farkas, J. B. Foresman, J. V. Ortiz, J. Cioslowski, 
 and D. J. Fox, Gaussian, Inc., Wallingford CT, 2010.
 
 ******************************************
 Gaussian 09:  EM64L-G09RevC.01 23-Sep-2011
                10-May-2020 
 ******************************************
 %mem=8GB
 %nproc=8
 Will use up to    8 processors via shared memory.
 -------------------------------------------------------
 #p wb97xd/aug-cc-PVTz int=ultrafine counterpoise=2 Scan
 -------------------------------------------------------
 1/38=1,60=1,62=2/1,8;
 2/12=2,17=6,18=5,29=3,40=1/2;
 1/38=1,53=5172,62=2/22;
 3/5=16,6=1,7=10,11=2,16=1,25=1,30=1,74=-58,75=-5/1,2,3;
 4//1;
 5/5=2,38=5/2;
 6/7=2,8=2,9=2,10=2,18=1,28=1/1;
 1/53=4052,62=2,63=1/22;
 3/5=7,6=11,7=10,11=2,16=1,25=1,30=1,74=-58,75=-5,82=7/1,2,3;
 4//1;
 5/5=2,38=5/2;
 6/7=2,8=2,9=2,10=2,18=1,28=1/1;
 1/53=3042,62=2,63=2/22;
 3/5=7,6=11,7=10,11=2,16=1,25=1,30=1,74=-58,75=-5,82=7/1,2,3;
 4//1;
 5/5=2,38=5/2;
 6/7=2,8=2,9=2,10=2,18=1,28=1/1;
 1/53=2032,62=2,63=3/22;
 3/5=7,6=11,7=10,11=2,16=1,25=1,30=1,74=-58,75=-5,82=7/1,2,3;
 4//1;
 5/5=2,38=5/2;
 6/7=2,8=2,9=2,10=2,18=1,28=1/1;
 1/53=1022,62=2,63=4/22;
 3/5=7,6=11,7=10,11=2,16=1,25=1,30=1,74=-58,75=-5,82=7/1,2,3;
 4//1;
 5/5=2,38=5/2;
 6/7=2,8=2,9=2,10=2,18=1,28=1/1;
 1/53=5014,62=2,63=5/22;
 1/60=1,62=2/8(1);
 99/9=1/99;
 2/29=3/2;
 1/53=5173,62=2/22;
 3/5=7,6=11,7=10,11=2,16=1,25=1,30=1,74=-58,75=-5,82=7/1,2,3;
 4/5=5,16=3/1;
 5/5=2,38=5/2;
 1/53=4053,62=2,63=1/22;
 3/5=7,6=11,7=10,11=2,16=1,25=1,30=1,74=-58,75=-5,82=7/1,2,3;
 4/5=5,16=3/1;
 5/5=2,38=5/2;
 1/53=3043,62=2,63=2/22;
 3/5=7,6=11,7=10,11=2,16=1,25=1,30=1,74=-58,75=-5,82=7/1,2,3;
 4/5=5,16=3/1;
 5/5=2,38=5/2;
 1/53=2033,62=2,63=3/22;
 3/5=7,6=11,7=10,11=2,16=1,25=1,30=1,74=-58,75=-5,82=7/1,2,3;
 4/5=5,16=3/1;
 5/5=2,38=5/2;
 1/53=1024,62=2,63=4/22;
 3/5=7,6=11,7=10,11=2,16=1,25=1,30=1,74=-58,75=-5,82=7/1,2,3;
 4/5=5,16=3/1;
 5/5=2,38=5/2;
 1/53=5014,62=2,63=5/22;
 1/60=1,62=2/8(-22);
 99/9=1/99;
 Leave Link    1 at Sun May 10 15:33:02 2020, MaxMem= 1073741824 cpu:       0.1
 (Enter /home/matheus/.gaussian/g09/l101.exe)
 ---
 TCC
 ---
 Charge =  0 Multiplicity = 1 in supermolecule
 Charge =  0 Multiplicity = 1 in fragment  1.
 Charge =  0 Multiplicity = 1 in fragment  2.
 Symbolic Z-Matrix:
 O(Fragment=1)         0.        0.        0.725 
 O(Fragment=1)         0.        0.       -0.725 
 H(Fragment=1)        -0.31422   0.86331   1.02351 
 H(Fragment=1)         0.        0.91872  -1.02351 
 Kr(Fragment=2)        0.       R1        0. 
       Variables:
  R1                    3.     Scan 20    0.1    
 
 NAtoms=      5 NQM=        0 NQMF=       0 NMMI=      5 NMMIF=      0
                NMic=       0 NMicF=      0.
                    Isotopes and Nuclear Properties:
 (Nuclear quadrupole moments (NQMom) in fm**2, nuclear magnetic moments (NMagM)
  in nuclear magnetons)

  Atom         1           2           3           4           5
 IAtWgt=          16          16           1           1          84
 AtmWgt=  15.9949146  15.9949146   1.0078250   1.0078250  83.9115064
 NucSpn=           0           0           1           1           0
 AtZEff=   0.0000000   0.0000000   0.0000000   0.0000000   0.0000000
 NQMom=    0.0000000   0.0000000   0.0000000   0.0000000   0.0000000
 NMagM=    0.0000000   0.0000000   2.7928460   2.7928460   0.0000000
 Leave Link  101 at Sun May 10 15:33:02 2020, MaxMem= 1073741824 cpu:       0.3
 (Enter /home/matheus/.gaussian/g09/l108.exe)
 Scan the potential surface.
 Variable   Value     No. Steps Step-Size
 -------- ----------- --------- ---------
     1       3.000000      20      0.1000
 A total of     21 points will be computed.
 Leave Link  108 at Sun May 10 15:33:02 2020, MaxMem= 1073741824 cpu:       0.0
 (Enter /home/matheus/.gaussian/g09/l202.exe)
 ---------------------------------------------------------------------------------------------------
                            Z-MATRIX (ANGSTROMS AND DEGREES)
   CD    Cent   Atom    N1       Length/X        N2       Alpha/Y        N3        Beta/Z          J
 ---------------------------------------------------------------------------------------------------
      1      1  O        0   0.000000          0.000000          0.725000
      2      2  O        0   0.000000          0.000000         -0.725000
      3      3  H        0  -0.314221          0.863315          1.023510
      4      4  H        0   0.000000          0.918721         -1.023510
      5      5  Kr       0   0.000000          3.000000          0.000000
 ---------------------------------------------------------------------------------------------------
                         Z-Matrix orientation:                         
 ---------------------------------------------------------------------
 Center     Atomic      Atomic             Coordinates (Angstroms)
 Number     Number       Type             X           Y           Z
 ---------------------------------------------------------------------
      1          8           0        0.000000    0.000000    0.725000
      2          8           0        0.000000    0.000000   -0.725000
      3          1           0       -0.314221    0.863315    1.023510
      4          1           0        0.000000    0.918721   -1.023510
      5         36           0        0.000000    3.000000    0.000000
 ---------------------------------------------------------------------
                    Distance matrix (angstroms):
                    1          2          3          4          5
     1  O    0.000000
     2  O    1.450000   0.000000
     3  H    0.966000   1.975180   0.000000
     4  H    1.975180   0.966000   2.071738   0.000000
     5  Kr   3.086361   3.086361   2.389923   2.319331   0.000000
 Stoichiometry    H2KrO2
 Framework group  C1[X(H2KrO2)]
 Deg. of freedom     9
 Full point group                 C1      NOp   1
 Largest Abelian subgroup         C1      NOp   1
 Largest concise Abelian subgroup C1      NOp   1
                         Standard orientation:                         
 ---------------------------------------------------------------------
 Center     Atomic      Atomic             Coordinates (Angstroms)
 Number     Number       Type             X           Y           Z
 ---------------------------------------------------------------------
      1          8           0       -2.033423   -0.722971   -0.035434
      2          8           0       -2.032510    0.726339    0.009272
      3          1           0       -1.171431   -1.031666    0.272517
      4          1           0       -1.113607    1.024028    0.021759
      5         36           0        0.967014   -0.000536   -0.002361
 ---------------------------------------------------------------------
 Rotational constants (GHZ):     26.5652681      2.3862430      2.1913165
 Leave Link  202 at Sun May 10 15:33:02 2020, MaxMem= 1073741824 cpu:       0.0
 (Enter /home/matheus/.gaussian/g09/l122.exe)
 Leave Link  122 at Sun May 10 15:33:02 2020, MaxMem= 1073741824 cpu:       0.0
 (Enter /home/matheus/.gaussian/g09/l301.exe)
 Standard basis: Aug-CC-pVTZ (5D, 7F)
 Ernie: Thresh=  0.10000D-02 Tol=  0.10000D-05 Strict=F.
 Ernie:  38 primitive shells out of 205 were deleted.
 There are   197 symmetry adapted basis functions of A   symmetry.
 Integral buffers will be    131072 words long.
 Raffenetti 2 integral format.
 Two-electron integral symmetry is turned on.
   197 basis functions,   415 primitive gaussians,   229 cartesian basis functions
    27 alpha electrons       27 beta electrons
       nuclear repulsion energy       151.6075768884 Hartrees.
 IExCor= 4639 DFT=T Ex+Corr=wB97XD ExCW=0 ScaHFX=  1.000000
 ScaDFX=  1.000000  1.000000  1.000000  1.000000 ScalE2=  1.000000  1.000000
 IRadAn=      5 IRanWt=     -1 IRanGd=            0 ICorTp=0
  HFx wShort=  0.000000 wLong=  0.200000 cFull=  0.222036 cShort=  0.000000 cLong=  0.777964
  DFx wShort=  0.000000 wLong=  0.200000 cFull=  0.000000 cShort=  0.000000 cLong=  1.000000
 NAtoms=    5 NActive=    5 NUniq=    5 SFac= 1.00D+00 NAtFMM=   60 NAOKFM=F Big=F
 R6Disp: Dispersion energy =        -0.0007717585 Hartrees.
 Nuclear repulsion after empirical dispersion term =      151.6068051300 Hartrees.
 Leave Link  301 at Sun May 10 15:33:02 2020, MaxMem= 1073741824 cpu:       0.2
 (Enter /home/matheus/.gaussian/g09/l302.exe)
 NPDir=0 NMtPBC=     1 NCelOv=     1 NCel=       1 NClECP=     1 NCelD=      1
         NCelK=      1 NCelE2=     1 NClLst=     1 CellRange=     0.0.
 One-electron integrals computed using PRISM.
 NBasis=   197 RedAO= T  NBF=   197
 NBsUse=   197 1.00D-06 NBFU=   197
 Precomputing XC quadrature grid using
 IXCGrd= 2 IRadAn=           5 IRanWt=          -1 IRanGd=           0 AccXCQ= 0.00D+00.
 NRdTot=     427 NPtTot=      123512 NUsed=      126579 NTot=      126611
 NSgBfM=   229   229   229   229   229 NAtAll=     5     5.
 Leave Link  302 at Sun May 10 15:33:02 2020, MaxMem= 1073741824 cpu:       1.1
 (Enter /home/matheus/.gaussian/g09/l303.exe)
 DipDrv:  MaxL=1.
 Leave Link  303 at Sun May 10 15:33:02 2020, MaxMem= 1073741824 cpu:       0.2
 (Enter /home/matheus/.gaussian/g09/l401.exe)
 Harris functional with IExCor= 4639 diagonalized for initial guess.
 ExpMin= 2.53D-02 ExpMax= 1.17D+07 ExpMxC= 1.33D+04 IAcc=3 IRadAn=         5 AccDes= 0.00D+00
 HarFok:  IExCor= 4639 AccDes= 0.00D+00 IRadAn=         5 IDoV= 1
 ScaDFX=  1.000000  1.000000  1.000000  1.000000
 FoFCou: FMM=F IPFlag=           0 FMFlag=      100000 FMFlg1=           0
         NFxFlg=           0 DoJE=T BraDBF=F KetDBF=T FulRan=T
         Omega=  0.000000  0.000000  1.000000  0.000000  0.000000 ICntrl=     500 IOpCl=  0
         NMat0=    1 NMatS0=    1 NMatT0=    0 NMatD0=    1 NMtDS0=    0 NMtDT0=    0
         I1Cent=           4 NGrid=           0.
 Petite list used in FoFCou.
 Harris En= -2876.48021465508    
 Initial guess orbital symmetries:
       Occupied  (A) (A) (A) (A) (A) (A) (A) (A) (A) (A) (A) (A)
                 (A) (A) (A) (A) (A) (A) (A) (A) (A) (A) (A) (A)
                 (A) (A) (A)
       Virtual   (A) (A) (A) (A) (A) (A) (A) (A) (A) (A) (A) (A)
                 (A) (A) (A) (A) (A) (A) (A) (A) (A) (A) (A) (A)
                 (A) (A) (A) (A) (A) (A) (A) (A) (A) (A) (A) (A)
                 (A) (A) (A) (A) (A) (A) (A) (A) (A) (A) (A) (A)
                 (A) (A) (A) (A) (A) (A) (A) (A) (A) (A) (A) (A)
                 (A) (A) (A) (A) (A) (A) (A) (A) (A) (A) (A) (A)
                 (A) (A) (A) (A) (A) (A) (A) (A) (A) (A) (A) (A)
                 (A) (A) (A) (A) (A) (A) (A) (A) (A) (A) (A) (A)
                 (A) (A) (A) (A) (A) (A) (A) (A) (A) (A) (A) (A)
                 (A) (A) (A) (A) (A) (A) (A) (A) (A) (A) (A) (A)
                 (A) (A) (A) (A) (A) (A) (A) (A) (A) (A) (A) (A)
                 (A) (A) (A) (A) (A) (A) (A) (A) (A) (A) (A) (A)
                 (A) (A) (A) (A) (A) (A) (A) (A) (A) (A) (A) (A)
                 (A) (A) (A) (A) (A) (A) (A) (A) (A) (A) (A) (A)
                 (A) (A)
 The electronic state of the initial guess is 1-A.
 Leave Link  401 at Sun May 10 15:33:03 2020, MaxMem= 1073741824 cpu:       4.4
 (Enter /home/matheus/.gaussian/g09/l502.exe)
 Closed shell SCF:
 Requested convergence on RMS density matrix=1.00D-08 within 128 cycles.
 Requested convergence on MAX density matrix=1.00D-06.
 Requested convergence on             energy=1.00D-06.
 No special actions if energy rises.
 Using DIIS extrapolation, IDIIS=  1040.
 Integral symmetry usage will be decided dynamically.
       126521 words used for storage of precomputed grid.
 IEnd=      305468 IEndB=      305468 NGot=  1073741824 MDV=  1073505667
 LenX=  1073505667 LenY=  1073452785
 Fock matrices will be formed incrementally for  20 cycles.

 Cycle   1  Pass 1  IDiag  1:
 FoFJK:  IHMeth= 1 ICntrl=     0 DoSepK=T KAlg= 1 I1Cent= 0 FoldK=F
 FoFCou: FMM=F IPFlag=           0 FMFlag=      100000 FMFlg1=           0
         NFxFlg=           0 DoJE=T BraDBF=F KetDBF=F FulRan=T
         Omega=  0.000000  0.000000  1.000000  0.000000  0.000000 ICntrl=     500 IOpCl=  0
         NMat0=    1 NMatS0=    1 NMatT0=    0 NMatD0=    1 NMtDS0=    0 NMtDT0=    0
         I1Cent=           0 NGrid=           0.
 Symmetry not used in FoFCou.
 E= -2904.92264193238    
 DIIS: error= 8.82D-02 at cycle   1 NSaved=   1.
 NSaved= 1 IEnMin= 1 EnMin= -2904.92264193238     IErMin= 1 ErrMin= 8.82D-02
 ErrMax= 8.82D-02 EMaxC= 1.00D-01 BMatC= 2.19D+00 BMatP= 2.19D+00
 IDIUse=3 WtCom= 1.18D-01 WtEn= 8.82D-01
 Coeff-Com:  0.100D+01
 Coeff-En:   0.100D+01
 Coeff:      0.100D+01
 Gap=     0.487 Goal=   None    Shift=    0.000
 GapD=    0.487 DampG=2.000 DampE=0.500 DampFc=1.0000 IDamp=-1.
 RMSDP=6.38D-03 MaxDP=3.78D-01              OVMax= 1.84D-01

 Cycle   2  Pass 1  IDiag  1:
 RMSU=  4.49D-03    CP:  1.02D+00
 FoFJK:  IHMeth= 1 ICntrl=     0 DoSepK=T KAlg= 1 I1Cent= 0 FoldK=F
 E= -2905.22487959412     Delta-E=       -0.302237661735 Rises=F Damp=F
 DIIS: error= 3.54D-02 at cycle   2 NSaved=   2.
 NSaved= 2 IEnMin= 2 EnMin= -2905.22487959412     IErMin= 2 ErrMin= 3.54D-02
 ErrMax= 3.54D-02 EMaxC= 1.00D-01 BMatC= 5.64D-01 BMatP= 2.19D+00
 IDIUse=3 WtCom= 6.46D-01 WtEn= 3.54D-01
 Coeff-Com:  0.329D+00 0.671D+00
 Coeff-En:   0.206D+00 0.794D+00
 Coeff:      0.285D+00 0.715D+00
 Gap=     0.437 Goal=   None    Shift=    0.000
 RMSDP=2.81D-03 MaxDP=1.64D-01 DE=-3.02D-01 OVMax= 7.72D-02

 Cycle   3  Pass 1  IDiag  1:
 RMSU=  5.66D-04    CP:  1.01D+00  5.79D-01
 FoFJK:  IHMeth= 1 ICntrl=     0 DoSepK=T KAlg= 1 I1Cent= 0 FoldK=F
 E= -2905.41357668983     Delta-E=       -0.188697095714 Rises=F Damp=F
 DIIS: error= 5.65D-03 at cycle   3 NSaved=   3.
 NSaved= 3 IEnMin= 3 EnMin= -2905.41357668983     IErMin= 3 ErrMin= 5.65D-03
 ErrMax= 5.65D-03 EMaxC= 1.00D-01 BMatC= 1.97D-02 BMatP= 5.64D-01
 IDIUse=3 WtCom= 9.43D-01 WtEn= 5.65D-02
 Coeff-Com:  0.306D-01 0.190D+00 0.780D+00
 Coeff-En:   0.000D+00 0.000D+00 0.100D+01
 Coeff:      0.289D-01 0.179D+00 0.792D+00
 Gap=     0.401 Goal=   None    Shift=    0.000
 RMSDP=5.32D-04 MaxDP=1.80D-02 DE=-1.89D-01 OVMax= 2.54D-02

 Cycle   4  Pass 1  IDiag  1:
 RMSU=  2.43D-04    CP:  1.01D+00  6.42D-01  9.21D-01
 FoFJK:  IHMeth= 1 ICntrl=     0 DoSepK=T KAlg= 1 I1Cent= 0 FoldK=F
 E= -2905.42200930918     Delta-E=       -0.008432619351 Rises=F Damp=F
 DIIS: error= 2.29D-03 at cycle   4 NSaved=   4.
 NSaved= 4 IEnMin= 4 EnMin= -2905.42200930918     IErMin= 4 ErrMin= 2.29D-03
 ErrMax= 2.29D-03 EMaxC= 1.00D-01 BMatC= 1.91D-03 BMatP= 1.97D-02
 IDIUse=3 WtCom= 9.77D-01 WtEn= 2.29D-02
 Coeff-Com: -0.156D-02 0.563D-01 0.386D+00 0.560D+00
 Coeff-En:   0.000D+00 0.000D+00 0.000D+00 0.100D+01
 Coeff:     -0.153D-02 0.550D-01 0.377D+00 0.570D+00
 Gap=     0.385 Goal=   None    Shift=    0.000
 RMSDP=1.40D-04 MaxDP=6.39D-03 DE=-8.43D-03 OVMax= 7.67D-03

 Cycle   5  Pass 1  IDiag  1:
 RMSU=  3.79D-05    CP:  1.01D+00  6.37D-01  9.41D-01  6.41D-01
 FoFJK:  IHMeth= 1 ICntrl=     0 DoSepK=T KAlg= 1 I1Cent= 0 FoldK=F
 E= -2905.42320737835     Delta-E=       -0.001198069171 Rises=F Damp=F
 DIIS: error= 9.17D-05 at cycle   5 NSaved=   5.
 NSaved= 5 IEnMin= 5 EnMin= -2905.42320737835     IErMin= 5 ErrMin= 9.17D-05
 ErrMax= 9.17D-05 EMaxC= 1.00D-01 BMatC= 4.54D-06 BMatP= 1.91D-03
 IDIUse=1 WtCom= 1.00D+00 WtEn= 0.00D+00
 Coeff-Com: -0.731D-03-0.278D-02-0.132D-02 0.167D-01 0.988D+00
 Coeff:     -0.731D-03-0.278D-02-0.132D-02 0.167D-01 0.988D+00
 Gap=     0.385 Goal=   None    Shift=    0.000
 RMSDP=1.83D-05 MaxDP=5.09D-04 DE=-1.20D-03 OVMax= 9.81D-04

 Cycle   6  Pass 1  IDiag  1:
 RMSU=  7.62D-06    CP:  1.01D+00  6.37D-01  9.52D-01  6.52D-01  1.21D+00
 FoFJK:  IHMeth= 1 ICntrl=     0 DoSepK=T KAlg= 1 I1Cent= 0 FoldK=F
 E= -2905.42321165354     Delta-E=       -0.000004275184 Rises=F Damp=F
 DIIS: error= 8.55D-05 at cycle   6 NSaved=   6.
 NSaved= 6 IEnMin= 6 EnMin= -2905.42321165354     IErMin= 6 ErrMin= 8.55D-05
 ErrMax= 8.55D-05 EMaxC= 1.00D-01 BMatC= 2.06D-06 BMatP= 4.54D-06
 IDIUse=1 WtCom= 1.00D+00 WtEn= 0.00D+00
 Coeff-Com: -0.270D-03-0.408D-02-0.193D-01-0.199D-01 0.446D+00 0.598D+00
 Coeff:     -0.270D-03-0.408D-02-0.193D-01-0.199D-01 0.446D+00 0.598D+00
 Gap=     0.385 Goal=   None    Shift=    0.000
 RMSDP=5.59D-06 MaxDP=2.24D-04 DE=-4.28D-06 OVMax= 3.89D-04

 Cycle   7  Pass 1  IDiag  1:
 RMSU=  3.26D-06    CP:  1.01D+00  6.37D-01  9.53D-01  6.53D-01  1.26D+00
                    CP:  8.88D-01
 FoFJK:  IHMeth= 1 ICntrl=     0 DoSepK=T KAlg= 1 I1Cent= 0 FoldK=F
 E= -2905.42321296023     Delta-E=       -0.000001306697 Rises=F Damp=F
 DIIS: error= 3.83D-05 at cycle   7 NSaved=   7.
 NSaved= 7 IEnMin= 7 EnMin= -2905.42321296023     IErMin= 7 ErrMin= 3.83D-05
 ErrMax= 3.83D-05 EMaxC= 1.00D-01 BMatC= 3.45D-07 BMatP= 2.06D-06
 IDIUse=1 WtCom= 1.00D+00 WtEn= 0.00D+00
 Coeff-Com: -0.711D-05-0.153D-02-0.926D-02-0.125D-01 0.389D-01 0.303D+00
 Coeff-Com:  0.682D+00
 Coeff:     -0.711D-05-0.153D-02-0.926D-02-0.125D-01 0.389D-01 0.303D+00
 Coeff:      0.682D+00
 Gap=     0.385 Goal=   None    Shift=    0.000
 RMSDP=2.28D-06 MaxDP=7.93D-05 DE=-1.31D-06 OVMax= 1.46D-04

 Cycle   8  Pass 1  IDiag  1:
 RMSU=  9.26D-07    CP:  1.01D+00  6.37D-01  9.54D-01  6.53D-01  1.28D+00
                    CP:  1.02D+00  9.30D-01
 FoFJK:  IHMeth= 1 ICntrl=     0 DoSepK=T KAlg= 1 I1Cent= 0 FoldK=F
 E= -2905.42321323188     Delta-E=       -0.000000271643 Rises=F Damp=F
 DIIS: error= 5.30D-06 at cycle   8 NSaved=   8.
 NSaved= 8 IEnMin= 8 EnMin= -2905.42321323188     IErMin= 8 ErrMin= 5.30D-06
 ErrMax= 5.30D-06 EMaxC= 1.00D-01 BMatC= 5.96D-09 BMatP= 3.45D-07
 IDIUse=1 WtCom= 1.00D+00 WtEn= 0.00D+00
 Coeff-Com:  0.207D-04 0.944D-04 0.171D-03-0.457D-03-0.324D-01-0.888D-02
 Coeff-Com:  0.809D-01 0.961D+00
 Coeff:      0.207D-04 0.944D-04 0.171D-03-0.457D-03-0.324D-01-0.888D-02
 Coeff:      0.809D-01 0.961D+00
 Gap=     0.385 Goal=   None    Shift=    0.000
 RMSDP=8.52D-07 MaxDP=2.06D-05 DE=-2.72D-07 OVMax= 5.98D-05

 Cycle   9  Pass 1  IDiag  1:
 RMSU=  2.60D-07    CP:  1.01D+00  6.37D-01  9.54D-01  6.53D-01  1.29D+00
                    CP:  1.05D+00  1.02D+00  1.28D+00
 FoFJK:  IHMeth= 1 ICntrl=     0 DoSepK=T KAlg= 1 I1Cent= 0 FoldK=F
 E= -2905.42321324404     Delta-E=       -0.000000012163 Rises=F Damp=F
 DIIS: error= 2.08D-06 at cycle   9 NSaved=   9.
 NSaved= 9 IEnMin= 9 EnMin= -2905.42321324404     IErMin= 9 ErrMin= 2.08D-06
 ErrMax= 2.08D-06 EMaxC= 1.00D-01 BMatC= 4.41D-10 BMatP= 5.96D-09
 IDIUse=1 WtCom= 1.00D+00 WtEn= 0.00D+00
 Coeff-Com:  0.120D-05 0.941D-04 0.559D-03 0.488D-03-0.442D-02-0.166D-01
 Coeff-Com: -0.331D-01 0.359D-01 0.102D+01
 Coeff:      0.120D-05 0.941D-04 0.559D-03 0.488D-03-0.442D-02-0.166D-01
 Coeff:     -0.331D-01 0.359D-01 0.102D+01
 Gap=     0.385 Goal=   None    Shift=    0.000
 RMSDP=2.42D-07 MaxDP=6.06D-06 DE=-1.22D-08 OVMax= 2.17D-05

 Cycle  10  Pass 1  IDiag  1:
 RMSU=  7.41D-08    CP:  1.01D+00  6.37D-01  9.54D-01  6.53D-01  1.29D+00
                    CP:  1.05D+00  1.03D+00  1.37D+00  1.23D+00
 FoFJK:  IHMeth= 1 ICntrl=     0 DoSepK=T KAlg= 1 I1Cent= 0 FoldK=F
 E= -2905.42321324503     Delta-E=       -0.000000000989 Rises=F Damp=F
 DIIS: error= 5.10D-07 at cycle  10 NSaved=  10.
 NSaved=10 IEnMin=10 EnMin= -2905.42321324503     IErMin=10 ErrMin= 5.10D-07
 ErrMax= 5.10D-07 EMaxC= 1.00D-01 BMatC= 3.70D-11 BMatP= 4.41D-10
 IDIUse=1 WtCom= 1.00D+00 WtEn= 0.00D+00
 Coeff-Com: -0.138D-05 0.159D-05 0.362D-04 0.505D-04 0.277D-02 0.638D-03
 Coeff-Com: -0.845D-02-0.993D-01 0.126D+00 0.978D+00
 Coeff:     -0.138D-05 0.159D-05 0.362D-04 0.505D-04 0.277D-02 0.638D-03
 Coeff:     -0.845D-02-0.993D-01 0.126D+00 0.978D+00
 Gap=     0.385 Goal=   None    Shift=    0.000
 RMSDP=6.52D-08 MaxDP=1.85D-06 DE=-9.89D-10 OVMax= 6.91D-06

 Cycle  11  Pass 1  IDiag  1:
 RMSU=  1.86D-08    CP:  1.01D+00  6.37D-01  9.54D-01  6.53D-01  1.29D+00
                    CP:  1.05D+00  1.03D+00  1.39D+00  1.34D+00  1.24D+00
 FoFJK:  IHMeth= 1 ICntrl=     0 DoSepK=T KAlg= 1 I1Cent= 0 FoldK=F
 E= -2905.42321324511     Delta-E=       -0.000000000085 Rises=F Damp=F
 DIIS: error= 1.04D-07 at cycle  11 NSaved=  11.
 NSaved=11 IEnMin=11 EnMin= -2905.42321324511     IErMin=11 ErrMin= 1.04D-07
 ErrMax= 1.04D-07 EMaxC= 1.00D-01 BMatC= 1.80D-12 BMatP= 3.70D-11
 IDIUse=1 WtCom= 1.00D+00 WtEn= 0.00D+00
 Coeff-Com:  0.317D-06-0.353D-05-0.293D-04-0.975D-05-0.820D-04 0.919D-03
 Coeff-Com:  0.275D-02 0.367D-02-0.587D-01-0.875D-01 0.114D+01
 Coeff:      0.317D-06-0.353D-05-0.293D-04-0.975D-05-0.820D-04 0.919D-03
 Coeff:      0.275D-02 0.367D-02-0.587D-01-0.875D-01 0.114D+01
 Gap=     0.385 Goal=   None    Shift=    0.000
 RMSDP=1.60D-08 MaxDP=3.39D-07 DE=-8.46D-11 OVMax= 1.63D-06

 Cycle  12  Pass 1  IDiag  1:
 RMSU=  3.58D-09    CP:  1.01D+00  6.37D-01  9.54D-01  6.53D-01  1.29D+00
                    CP:  1.05D+00  1.03D+00  1.39D+00  1.35D+00  1.34D+00
                    CP:  1.26D+00
 FoFJK:  IHMeth= 1 ICntrl=     0 DoSepK=T KAlg= 1 I1Cent= 0 FoldK=F
 E= -2905.42321324512     Delta-E=       -0.000000000006 Rises=F Damp=F
 DIIS: error= 1.61D-08 at cycle  12 NSaved=  12.
 NSaved=12 IEnMin=12 EnMin= -2905.42321324512     IErMin=12 ErrMin= 1.61D-08
 ErrMax= 1.61D-08 EMaxC= 1.00D-01 BMatC= 4.46D-14 BMatP= 1.80D-12
 IDIUse=1 WtCom= 1.00D+00 WtEn= 0.00D+00
 Coeff-Com: -0.229D-07-0.203D-06-0.190D-06-0.386D-05-0.789D-04-0.501D-04
 Coeff-Com:  0.120D-03 0.221D-02 0.236D-02-0.123D-01-0.146D+00 0.115D+01
 Coeff:     -0.229D-07-0.203D-06-0.190D-06-0.386D-05-0.789D-04-0.501D-04
 Coeff:      0.120D-03 0.221D-02 0.236D-02-0.123D-01-0.146D+00 0.115D+01
 Gap=     0.385 Goal=   None    Shift=    0.000
 RMSDP=3.27D-09 MaxDP=1.22D-07 DE=-6.37D-12 OVMax= 2.51D-07

 SCF Done:  E(RwB97XD) =  -2905.42321325     A.U. after   12 cycles
             Convg  =    0.3272D-08             -V/T =  2.0015
 KE= 2.901009381483D+03 PE=-7.240642218871D+03 EE= 1.282602819013D+03
 Leave Link  502 at Sun May 10 15:33:42 2020, MaxMem= 1073741824 cpu:     312.2
 (Enter /home/matheus/.gaussian/g09/l601.exe)
 Copying SCF densities to generalized density rwf, IOpCl= 0 IROHF=0.

 **********************************************************************

            Population analysis using the SCF density.

 **********************************************************************

 Orbital symmetries:
       Occupied  (A) (A) (A) (A) (A) (A) (A) (A) (A) (A) (A) (A)
                 (A) (A) (A) (A) (A) (A) (A) (A) (A) (A) (A) (A)
                 (A) (A) (A)
       Virtual   (A) (A) (A) (A) (A) (A) (A) (A) (A) (A) (A) (A)
                 (A) (A) (A) (A) (A) (A) (A) (A) (A) (A) (A) (A)
                 (A) (A) (A) (A) (A) (A) (A) (A) (A) (A) (A) (A)
                 (A) (A) (A) (A) (A) (A) (A) (A) (A) (A) (A) (A)
                 (A) (A) (A) (A) (A) (A) (A) (A) (A) (A) (A) (A)
                 (A) (A) (A) (A) (A) (A) (A) (A) (A) (A) (A) (A)
                 (A) (A) (A) (A) (A) (A) (A) (A) (A) (A) (A) (A)
                 (A) (A) (A) (A) (A) (A) (A) (A) (A) (A) (A) (A)
                 (A) (A) (A) (A) (A) (A) (A) (A) (A) (A) (A) (A)
                 (A) (A) (A) (A) (A) (A) (A) (A) (A) (A) (A) (A)
                 (A) (A) (A) (A) (A) (A) (A) (A) (A) (A) (A) (A)
                 (A) (A) (A) (A) (A) (A) (A) (A) (A) (A) (A) (A)
                 (A) (A) (A) (A) (A) (A) (A) (A) (A) (A) (A) (A)
                 (A) (A) (A) (A) (A) (A) (A) (A) (A) (A) (A) (A)
                 (A) (A)
 The electronic state is 1-A.
 Alpha  occ. eigenvalues -- -513.09760 -67.36433 -60.91315 -60.91309 -60.91299
 Alpha  occ. eigenvalues --  -19.31351 -19.31273  -9.81735  -7.51057  -7.51031
 Alpha  occ. eigenvalues --   -7.51000  -3.37799  -3.37796  -3.37770  -3.37750
 Alpha  occ. eigenvalues --   -3.37746  -1.22134  -1.02524  -1.00550  -0.67262
 Alpha  occ. eigenvalues --   -0.53170  -0.51886  -0.50683  -0.49783  -0.48988
 Alpha  occ. eigenvalues --   -0.45712  -0.34972
 Alpha virt. eigenvalues --    0.03488   0.04355   0.08610   0.08810   0.09597
 Alpha virt. eigenvalues --    0.11863   0.12512   0.15772   0.16691   0.17454
 Alpha virt. eigenvalues --    0.18354   0.19004   0.19957   0.21295   0.22518
 Alpha virt. eigenvalues --    0.23527   0.23985   0.26117   0.29550   0.32745
 Alpha virt. eigenvalues --    0.35226   0.36021   0.37730   0.37920   0.39466
 Alpha virt. eigenvalues --    0.41696   0.44378   0.47696   0.50900   0.52783
 Alpha virt. eigenvalues --    0.57101   0.60182   0.60657   0.62589   0.63826
 Alpha virt. eigenvalues --    0.67537   0.67956   0.70418   0.71310   0.72712
 Alpha virt. eigenvalues --    0.73687   0.75773   0.78692   0.80889   0.84025
 Alpha virt. eigenvalues --    0.84628   0.85009   0.86725   0.86849   0.89515
 Alpha virt. eigenvalues --    0.91567   0.93442   0.95210   0.96610   0.98538
 Alpha virt. eigenvalues --    1.01157   1.02897   1.04576   1.06576   1.08311
 Alpha virt. eigenvalues --    1.11378   1.17334   1.19954   1.23016   1.24850
 Alpha virt. eigenvalues --    1.29242   1.29817   1.35913   1.37349   1.45481
 Alpha virt. eigenvalues --    1.47251   1.50920   1.52264   1.53808   1.56053
 Alpha virt. eigenvalues --    1.60652   1.64377   1.79592   1.87359   1.91832
 Alpha virt. eigenvalues --    1.95572   2.02017   2.05224   2.10697   2.10877
 Alpha virt. eigenvalues --    2.14242   2.18515   2.18948   2.19156   2.25495
 Alpha virt. eigenvalues --    2.27183   2.29021   2.30174   2.31098   2.32734
 Alpha virt. eigenvalues --    2.35450   2.37668   2.40534   2.44184   2.45272
 Alpha virt. eigenvalues --    2.46725   2.47424   2.53467   2.54839   2.57443
 Alpha virt. eigenvalues --    2.60870   2.64011   2.65092   2.68419   2.69866
 Alpha virt. eigenvalues --    2.70475   2.74469   2.77840   2.86518   2.86691
 Alpha virt. eigenvalues --    2.91958   3.06790   3.09646   3.11530   3.53172
 Alpha virt. eigenvalues --    3.70331   3.85416   3.95544   4.00267   4.06810
 Alpha virt. eigenvalues --    4.12363   4.13492   4.16776   4.18187   4.21951
 Alpha virt. eigenvalues --    4.38527   4.47888   4.53263   4.66587   4.70968
 Alpha virt. eigenvalues --    4.94729   4.98202   5.01965   5.06548   5.09034
 Alpha virt. eigenvalues --    5.12983   5.49337   5.80219   5.99994   6.03192
 Alpha virt. eigenvalues --    6.10578   6.33219   6.35372   6.45647   6.55133
 Alpha virt. eigenvalues --    6.66947   6.69409   6.75599   6.79105   6.81038
 Alpha virt. eigenvalues --    6.84195   6.86942   6.88039   6.90006   7.08056
 Alpha virt. eigenvalues --    7.14459   7.15492   7.24945   7.31562   7.57403
 Alpha virt. eigenvalues --    7.96358   8.00646   8.16025  13.82570  14.71895
          Condensed to atoms (all electrons):
              1          2          3          4          5
     1  O    8.286582  -0.223239   0.149807   0.035433  -0.021256
     2  O   -0.223239   8.291436   0.037643   0.155765  -0.018594
     3  H    0.149807   0.037643   0.606634  -0.014996  -0.004504
     4  H    0.035433   0.155765  -0.014996   0.598348  -0.010790
     5  Kr  -0.021256  -0.018594  -0.004504  -0.010790  36.046464
 Mulliken atomic charges:
              1
     1  O   -0.227327
     2  O   -0.243011
     3  H    0.225416
     4  H    0.236240
     5  Kr   0.008681
 Sum of Mulliken atomic charges =   0.00000
 Mulliken charges with hydrogens summed into heavy atoms:
              1
     1  O   -0.001911
     2  O   -0.006771
     5  Kr   0.008681
 Sum of Mulliken charges with hydrogens summed into heavy atoms =   0.00000
          Condensed to fragments (all electrons):
     1      -0.008681
     2       0.008681
 Electronic spatial extent (au):  <R**2>=            475.5266
 Charge=              0.0000 electrons
 Dipole moment (field-independent basis, Debye):
    X=              3.5429    Y=             -0.0455    Z=              0.4352  Tot=              3.5698
 Quadrupole moment (field-independent basis, Debye-Ang):
   XX=            -38.4128   YY=            -28.0802   ZZ=            -30.3231
   XY=              0.1345   XZ=             -0.4922   YZ=             -0.5883
 Traceless Quadrupole moment (field-independent basis, Debye-Ang):
   XX=             -6.1407   YY=              4.1918   ZZ=              1.9489
   XY=              0.1345   XZ=             -0.4922   YZ=             -0.5883
 Octapole moment (field-independent basis, Debye-Ang**2):
  XXX=             44.0016  YYY=             -0.1078  ZZZ=             -0.0184  XYY=              7.8001
  XXY=             -0.3098  XXZ=             -0.0814  XZZ=              8.6839  YZZ=             -0.2155
  YYZ=              0.6684  XYZ=              0.6534
 Hexadecapole moment (field-independent basis, Debye-Ang**3):
 XXXX=           -452.9957 YYYY=            -63.1498 ZZZZ=            -29.2658 XXXY=              0.2900
 XXXZ=              1.0925 YYYX=              0.2446 YYYZ=             -0.7915 ZZZX=             -0.1675
 ZZZY=             -0.3309 XXYY=            -85.6267 XXZZ=            -76.0281 YYZZ=            -17.2175
 XXYZ=             -0.6654 YYXZ=             -0.7665 ZZXY=              0.2849
 N-N= 1.516068051300D+02 E-N=-7.240642216105D+03  KE= 2.901009381483D+03
 No NMR shielding tensors so no spin-rotation constants.
 Leave Link  601 at Sun May 10 15:33:42 2020, MaxMem= 1073741824 cpu:       0.8
 (Enter /home/matheus/.gaussian/g09/l122.exe)
 Counterpoise: doing DCBS calculation for fragment   1 NewBq=T
 Leave Link  122 at Sun May 10 15:33:42 2020, MaxMem= 1073741824 cpu:       0.0
 (Enter /home/matheus/.gaussian/g09/l301.exe)
 Basis read from rwf:  (5D, 7F)
 No pseudopotential information found on rwf file.
 There are   197 symmetry adapted basis functions of A   symmetry.
 Integral buffers will be    131072 words long.
 Raffenetti 2 integral format.
 Two-electron integral symmetry is turned on.
   197 basis functions,   415 primitive gaussians,   229 cartesian basis functions
     9 alpha electrons        9 beta electrons
       nuclear repulsion energy        36.6636681782 Hartrees.
 IExCor= 4639 DFT=T Ex+Corr=wB97XD ExCW=0 ScaHFX=  1.000000
 ScaDFX=  1.000000  1.000000  1.000000  1.000000 ScalE2=  1.000000  1.000000
 IRadAn=      5 IRanWt=     -1 IRanGd=            0 ICorTp=0
  HFx wShort=  0.000000 wLong=  0.200000 cFull=  0.222036 cShort=  0.000000 cLong=  0.777964
  DFx wShort=  0.000000 wLong=  0.200000 cFull=  0.000000 cShort=  0.000000 cLong=  1.000000
 NAtoms=    5 NActive=    5 NUniq=    5 SFac= 1.00D+00 NAtFMM=   60 NAOKFM=F Big=F
 R6Disp: Dispersion energy =        -0.0002240145 Hartrees.
 Nuclear repulsion after empirical dispersion term =       36.6634441638 Hartrees.
 No density basis found on file   718.
 Leave Link  301 at Sun May 10 15:33:42 2020, MaxMem= 1073741824 cpu:       0.2
 (Enter /home/matheus/.gaussian/g09/l302.exe)
 NPDir=0 NMtPBC=     1 NCelOv=     1 NCel=       1 NClECP=     1 NCelD=      1
         NCelK=      1 NCelE2=     1 NClLst=     1 CellRange=     0.0.
 One-electron integrals computed using PRISM.
 NBasis=   197 RedAO= T  NBF=   197
 NBsUse=   197 1.00D-06 NBFU=   197
 Precomputing XC quadrature grid using
 IXCGrd= 2 IRadAn=           5 IRanWt=          -1 IRanGd=           0 AccXCQ= 0.00D+00.
 NRdTot=     427 NPtTot=      123512 NUsed=      126579 NTot=      126611
 NSgBfM=   229   229   229   229   229 NAtAll=     5     5.
 Leave Link  302 at Sun May 10 15:33:42 2020, MaxMem= 1073741824 cpu:       1.0
 (Enter /home/matheus/.gaussian/g09/l303.exe)
 DipDrv:  MaxL=1.
 Leave Link  303 at Sun May 10 15:33:42 2020, MaxMem= 1073741824 cpu:       0.2
 (Enter /home/matheus/.gaussian/g09/l401.exe)
 Harris functional with IExCor= 4639 diagonalized for initial guess.
 ExpMin= 2.53D-02 ExpMax= 1.17D+07 ExpMxC= 1.33D+04 IAcc=3 IRadAn=         5 AccDes= 0.00D+00
 HarFok:  IExCor= 4639 AccDes= 0.00D+00 IRadAn=         5 IDoV= 1
 ScaDFX=  1.000000  1.000000  1.000000  1.000000
 FoFCou: FMM=F IPFlag=           0 FMFlag=      100000 FMFlg1=           0
         NFxFlg=           0 DoJE=T BraDBF=F KetDBF=T FulRan=T
         Omega=  0.000000  0.000000  1.000000  0.000000  0.000000 ICntrl=     500 IOpCl=  0
         NMat0=    1 NMatS0=    1 NMatT0=    0 NMatD0=    1 NMtDS0=    0 NMtDT0=    0
         I1Cent=           4 NGrid=           0.
 Petite list used in FoFCou.
 Harris En= -146.291031117886    
 Initial guess orbital symmetries:
       Occupied  (A) (A) (A) (A) (A) (A) (A) (A) (A)
       Virtual   (A) (A) (A) (A) (A) (A) (A) (A) (A) (A) (A) (A)
                 (A) (A) (A) (A) (A) (A) (A) (A) (A) (A) (A) (A)
                 (A) (A) (A) (A) (A) (A) (A) (A) (A) (A) (A) (A)
                 (A) (A) (A) (A) (A) (A) (A) (A) (A) (A) (A) (A)
                 (A) (A) (A) (A) (A) (A) (A) (A) (A) (A) (A) (A)
                 (A) (A) (A) (A) (A) (A) (A) (A) (A) (A) (A) (A)
                 (A) (A) (A) (A) (A) (A) (A) (A) (A) (A) (A) (A)
                 (A) (A) (A) (A) (A) (A) (A) (A) (A) (A) (A) (A)
                 (A) (A) (A) (A) (A) (A) (A) (A) (A) (A) (A) (A)
                 (A) (A) (A) (A) (A) (A) (A) (A) (A) (A) (A) (A)
                 (A) (A) (A) (A) (A) (A) (A) (A) (A) (A) (A) (A)
                 (A) (A) (A) (A) (A) (A) (A) (A) (A) (A) (A) (A)
                 (A) (A) (A) (A) (A) (A) (A) (A) (A) (A) (A) (A)
                 (A) (A) (A) (A) (A) (A) (A) (A) (A) (A) (A) (A)
                 (A) (A) (A) (A) (A) (A) (A) (A) (A) (A) (A) (A)
                 (A) (A) (A) (A) (A) (A) (A) (A)
 The electronic state of the initial guess is 1-A.
 Leave Link  401 at Sun May 10 15:33:43 2020, MaxMem= 1073741824 cpu:       4.1
 (Enter /home/matheus/.gaussian/g09/l502.exe)
 Closed shell SCF:
 Requested convergence on RMS density matrix=1.00D-08 within 128 cycles.
 Requested convergence on MAX density matrix=1.00D-06.
 Requested convergence on             energy=1.00D-06.
 No special actions if energy rises.
 Using DIIS extrapolation, IDIIS=  1040.
 Integral symmetry usage will be decided dynamically.
       126521 words used for storage of precomputed grid.
 IEnd=      305468 IEndB=      305468 NGot=  1073741824 MDV=  1073505667
 LenX=  1073505667 LenY=  1073452785
 Fock matrices will be formed incrementally for  20 cycles.

 Cycle   1  Pass 1  IDiag  1:
 FoFJK:  IHMeth= 1 ICntrl=     0 DoSepK=T KAlg= 1 I1Cent= 0 FoldK=F
 FoFCou: FMM=F IPFlag=           0 FMFlag=      100000 FMFlg1=           0
         NFxFlg=           0 DoJE=T BraDBF=F KetDBF=F FulRan=T
         Omega=  0.000000  0.000000  1.000000  0.000000  0.000000 ICntrl=     500 IOpCl=  0
         NMat0=    1 NMatS0=    1 NMatT0=    0 NMatD0=    1 NMtDS0=    0 NMtDT0=    0
         I1Cent=           0 NGrid=           0.
 Symmetry not used in FoFCou.
 E= -151.471901749979    
 DIIS: error= 3.69D-02 at cycle   1 NSaved=   1.
 NSaved= 1 IEnMin= 1 EnMin= -151.471901749979     IErMin= 1 ErrMin= 3.69D-02
 ErrMax= 3.69D-02 EMaxC= 1.00D-01 BMatC= 2.99D-01 BMatP= 2.99D-01
 IDIUse=3 WtCom= 6.31D-01 WtEn= 3.69D-01
 Coeff-Com:  0.100D+01
 Coeff-En:   0.100D+01
 Coeff:      0.100D+01
 Gap=     0.487 Goal=   None    Shift=    0.000
 GapD=    0.487 DampG=2.000 DampE=0.500 DampFc=1.0000 IDamp=-1.
 RMSDP=2.58D-03 MaxDP=1.07D-01              OVMax= 1.09D-01

 Cycle   2  Pass 1  IDiag  1:
 RMSU=  1.77D-03    CP:  9.38D-01
 FoFJK:  IHMeth= 1 ICntrl=     0 DoSepK=T KAlg= 1 I1Cent= 0 FoldK=F
 E= -151.505109174459     Delta-E=       -0.033207424480 Rises=F Damp=F
 DIIS: error= 1.55D-02 at cycle   2 NSaved=   2.
 NSaved= 2 IEnMin= 2 EnMin= -151.505109174459     IErMin= 2 ErrMin= 1.55D-02
 ErrMax= 1.55D-02 EMaxC= 1.00D-01 BMatC= 8.47D-02 BMatP= 2.99D-01
 IDIUse=3 WtCom= 8.45D-01 WtEn= 1.55D-01
 Coeff-Com:  0.324D+00 0.676D+00
 Coeff-En:   0.340D+00 0.660D+00
 Coeff:      0.326D+00 0.674D+00
 Gap=     0.439 Goal=   None    Shift=    0.000
 RMSDP=1.06D-03 MaxDP=4.87D-02 DE=-3.32D-02 OVMax= 6.10D-02

 Cycle   3  Pass 1  IDiag  1:
 RMSU=  3.86D-04    CP:  9.64D-01  6.52D-01
 FoFJK:  IHMeth= 1 ICntrl=     0 DoSepK=T KAlg= 1 I1Cent= 0 FoldK=F
 E= -151.549397083098     Delta-E=       -0.044287908639 Rises=F Damp=F
 DIIS: error= 4.81D-03 at cycle   3 NSaved=   3.
 NSaved= 3 IEnMin= 3 EnMin= -151.549397083098     IErMin= 3 ErrMin= 4.81D-03
 ErrMax= 4.81D-03 EMaxC= 1.00D-01 BMatC= 7.62D-03 BMatP= 8.47D-02
 IDIUse=3 WtCom= 9.52D-01 WtEn= 4.81D-02
 Coeff-Com:  0.192D-01 0.242D+00 0.739D+00
 Coeff-En:   0.000D+00 0.000D+00 0.100D+01
 Coeff:      0.183D-01 0.230D+00 0.751D+00
 Gap=     0.381 Goal=   None    Shift=    0.000
 RMSDP=3.13D-04 MaxDP=1.09D-02 DE=-4.43D-02 OVMax= 1.80D-02

 Cycle   4  Pass 1  IDiag  1:
 RMSU=  7.22D-05    CP:  9.57D-01  7.57D-01  7.86D-01
 FoFJK:  IHMeth= 1 ICntrl=     0 DoSepK=T KAlg= 1 I1Cent= 0 FoldK=F
 E= -151.554356215844     Delta-E=       -0.004959132746 Rises=F Damp=F
 DIIS: error= 6.81D-04 at cycle   4 NSaved=   4.
 NSaved= 4 IEnMin= 4 EnMin= -151.554356215844     IErMin= 4 ErrMin= 6.81D-04
 ErrMax= 6.81D-04 EMaxC= 1.00D-01 BMatC= 1.04D-04 BMatP= 7.62D-03
 IDIUse=3 WtCom= 9.93D-01 WtEn= 6.81D-03
 Coeff-Com:  0.590D-03 0.338D-01 0.187D+00 0.778D+00
 Coeff-En:   0.000D+00 0.000D+00 0.000D+00 0.100D+01
 Coeff:      0.586D-03 0.336D-01 0.186D+00 0.780D+00
 Gap=     0.378 Goal=   None    Shift=    0.000
 RMSDP=4.60D-05 MaxDP=2.41D-03 DE=-4.96D-03 OVMax= 2.24D-03

 Cycle   5  Pass 1  IDiag  1:
 RMSU=  1.63D-05    CP:  9.58D-01  7.48D-01  8.40D-01  1.08D+00
 FoFJK:  IHMeth= 1 ICntrl=     0 DoSepK=T KAlg= 1 I1Cent= 0 FoldK=F
 E= -151.554429416473     Delta-E=       -0.000073200628 Rises=F Damp=F
 DIIS: error= 5.92D-05 at cycle   5 NSaved=   5.
 NSaved= 5 IEnMin= 5 EnMin= -151.554429416473     IErMin= 5 ErrMin= 5.92D-05
 ErrMax= 5.92D-05 EMaxC= 1.00D-01 BMatC= 9.02D-07 BMatP= 1.04D-04
 IDIUse=1 WtCom= 1.00D+00 WtEn= 0.00D+00
 Coeff-Com: -0.713D-03-0.119D-01-0.381D-01-0.826D-01 0.113D+01
 Coeff:     -0.713D-03-0.119D-01-0.381D-01-0.826D-01 0.113D+01
 Gap=     0.377 Goal=   None    Shift=    0.000
 RMSDP=1.42D-05 MaxDP=5.30D-04 DE=-7.32D-05 OVMax= 7.21D-04

 Cycle   6  Pass 1  IDiag  1:
 RMSU=  3.39D-06    CP:  9.58D-01  7.48D-01  8.54D-01  1.17D+00  1.28D+00
 FoFJK:  IHMeth= 1 ICntrl=     0 DoSepK=T KAlg= 1 I1Cent= 0 FoldK=F
 E= -151.554431469499     Delta-E=       -0.000002053026 Rises=F Damp=F
 DIIS: error= 1.44D-05 at cycle   6 NSaved=   6.
 NSaved= 6 IEnMin= 6 EnMin= -151.554431469499     IErMin= 6 ErrMin= 1.44D-05
 ErrMax= 1.44D-05 EMaxC= 1.00D-01 BMatC= 3.06D-08 BMatP= 9.02D-07
 IDIUse=1 WtCom= 1.00D+00 WtEn= 0.00D+00
 Coeff-Com:  0.416D-04-0.328D-03-0.417D-02-0.175D-01-0.436D-01 0.107D+01
 Coeff:      0.416D-04-0.328D-03-0.417D-02-0.175D-01-0.436D-01 0.107D+01
 Gap=     0.377 Goal=   None    Shift=    0.000
 RMSDP=2.49D-06 MaxDP=8.49D-05 DE=-2.05D-06 OVMax= 1.71D-04

 Cycle   7  Pass 1  IDiag  1:
 RMSU=  7.34D-07    CP:  9.58D-01  7.47D-01  8.55D-01  1.18D+00  1.34D+00
                    CP:  1.32D+00
 FoFJK:  IHMeth= 1 ICntrl=     0 DoSepK=T KAlg= 1 I1Cent= 0 FoldK=F
 E= -151.554431553846     Delta-E=       -0.000000084348 Rises=F Damp=F
 DIIS: error= 6.25D-06 at cycle   7 NSaved=   7.
 NSaved= 7 IEnMin= 7 EnMin= -151.554431553846     IErMin= 7 ErrMin= 6.25D-06
 ErrMax= 6.25D-06 EMaxC= 1.00D-01 BMatC= 9.43D-09 BMatP= 3.06D-08
 IDIUse=1 WtCom= 1.00D+00 WtEn= 0.00D+00
 Coeff-Com:  0.385D-04 0.256D-03-0.299D-03-0.454D-02-0.582D-01 0.409D+00
 Coeff-Com:  0.654D+00
 Coeff:      0.385D-04 0.256D-03-0.299D-03-0.454D-02-0.582D-01 0.409D+00
 Coeff:      0.654D+00
 Gap=     0.377 Goal=   None    Shift=    0.000
 RMSDP=4.75D-07 MaxDP=2.13D-05 DE=-8.43D-08 OVMax= 3.88D-05

 Cycle   8  Pass 1  IDiag  1:
 RMSU=  2.53D-07    CP:  9.58D-01  7.47D-01  8.55D-01  1.18D+00  1.34D+00
                    CP:  1.37D+00  1.07D+00
 FoFJK:  IHMeth= 1 ICntrl=     0 DoSepK=T KAlg= 1 I1Cent= 0 FoldK=F
 E= -151.554431561523     Delta-E=       -0.000000007676 Rises=F Damp=F
 DIIS: error= 2.76D-06 at cycle   8 NSaved=   8.
 NSaved= 8 IEnMin= 8 EnMin= -151.554431561523     IErMin= 8 ErrMin= 2.76D-06
 ErrMax= 2.76D-06 EMaxC= 1.00D-01 BMatC= 2.91D-09 BMatP= 9.43D-09
 IDIUse=1 WtCom= 1.00D+00 WtEn= 0.00D+00
 Coeff-Com:  0.116D-05 0.191D-03 0.121D-02 0.313D-02-0.109D-01-0.174D+00
 Coeff-Com:  0.354D+00 0.827D+00
 Coeff:      0.116D-05 0.191D-03 0.121D-02 0.313D-02-0.109D-01-0.174D+00
 Coeff:      0.354D+00 0.827D+00
 Gap=     0.377 Goal=   None    Shift=    0.000
 RMSDP=3.26D-07 MaxDP=1.15D-05 DE=-7.68D-09 OVMax= 3.28D-05

 Cycle   9  Pass 1  IDiag  1:
 RMSU=  8.78D-08    CP:  9.58D-01  7.47D-01  8.55D-01  1.18D+00  1.35D+00
                    CP:  1.40D+00  1.27D+00  9.45D-01
 FoFJK:  IHMeth= 1 ICntrl=     0 DoSepK=T KAlg= 1 I1Cent= 0 FoldK=F
 E= -151.554431564540     Delta-E=       -0.000000003018 Rises=F Damp=F
 DIIS: error= 4.93D-07 at cycle   9 NSaved=   9.
 NSaved= 9 IEnMin= 9 EnMin= -151.554431564540     IErMin= 9 ErrMin= 4.93D-07
 ErrMax= 4.93D-07 EMaxC= 1.00D-01 BMatC= 3.03D-11 BMatP= 2.91D-09
 IDIUse=1 WtCom= 1.00D+00 WtEn= 0.00D+00
 Coeff-Com:  0.964D-08 0.118D-04 0.905D-04 0.212D-03 0.245D-02-0.292D-01
 Coeff-Com:  0.526D-02 0.771D-01 0.944D+00
 Coeff:      0.964D-08 0.118D-04 0.905D-04 0.212D-03 0.245D-02-0.292D-01
 Coeff:      0.526D-02 0.771D-01 0.944D+00
 Gap=     0.377 Goal=   None    Shift=    0.000
 RMSDP=5.85D-08 MaxDP=1.36D-06 DE=-3.02D-09 OVMax= 5.62D-06

 Cycle  10  Pass 1  IDiag  1:
 RMSU=  1.47D-08    CP:  9.58D-01  7.47D-01  8.55D-01  1.18D+00  1.34D+00
                    CP:  1.39D+00  1.29D+00  1.01D+00  1.28D+00
 FoFJK:  IHMeth= 1 ICntrl=     0 DoSepK=T KAlg= 1 I1Cent= 0 FoldK=F
 E= -151.554431564604     Delta-E=       -0.000000000064 Rises=F Damp=F
 DIIS: error= 1.81D-07 at cycle  10 NSaved=  10.
 NSaved=10 IEnMin=10 EnMin= -151.554431564604     IErMin=10 ErrMin= 1.81D-07
 ErrMax= 1.81D-07 EMaxC= 1.00D-01 BMatC= 3.64D-12 BMatP= 3.03D-11
 IDIUse=1 WtCom= 1.00D+00 WtEn= 0.00D+00
 Coeff-Com:  0.435D-06-0.119D-04-0.111D-03-0.344D-03 0.105D-02 0.155D-01
 Coeff-Com: -0.365D-01-0.806D-01 0.342D-01 0.107D+01
 Coeff:      0.435D-06-0.119D-04-0.111D-03-0.344D-03 0.105D-02 0.155D-01
 Coeff:     -0.365D-01-0.806D-01 0.342D-01 0.107D+01
 Gap=     0.377 Goal=   None    Shift=    0.000
 RMSDP=2.34D-08 MaxDP=5.08D-07 DE=-6.36D-11 OVMax= 2.42D-06

 Cycle  11  Pass 1  IDiag  1:
 RMSU=  3.99D-09    CP:  9.58D-01  7.47D-01  8.55D-01  1.18D+00  1.34D+00
                    CP:  1.39D+00  1.29D+00  1.03D+00  1.40D+00  1.34D+00
 FoFJK:  IHMeth= 1 ICntrl=     0 DoSepK=T KAlg= 1 I1Cent= 0 FoldK=F
 E= -151.554431564612     Delta-E=       -0.000000000008 Rises=F Damp=F
 DIIS: error= 2.51D-08 at cycle  11 NSaved=  11.
 NSaved=11 IEnMin=11 EnMin= -151.554431564612     IErMin=11 ErrMin= 2.51D-08
 ErrMax= 2.51D-08 EMaxC= 1.00D-01 BMatC= 8.09D-14 BMatP= 3.64D-12
 IDIUse=1 WtCom= 1.00D+00 WtEn= 0.00D+00
 Coeff-Com: -0.157D-06-0.181D-06 0.959D-05 0.290D-04-0.134D-03-0.124D-02
 Coeff-Com:  0.488D-02 0.946D-02-0.213D-01-0.217D+00 0.123D+01
 Coeff:     -0.157D-06-0.181D-06 0.959D-05 0.290D-04-0.134D-03-0.124D-02
 Coeff:      0.488D-02 0.946D-02-0.213D-01-0.217D+00 0.123D+01
 Gap=     0.377 Goal=   None    Shift=    0.000
 RMSDP=4.64D-09 MaxDP=1.90D-07 DE=-7.84D-12 OVMax= 4.19D-07

 SCF Done:  E(RwB97XD) =  -151.554431565     A.U. after   11 cycles
             Convg  =    0.4643D-08             -V/T =  2.0057
 KE= 1.506991397414D+02 PE=-4.318009688780D+02 EE= 9.288395340825D+01
 Leave Link  502 at Sun May 10 15:34:17 2020, MaxMem= 1073741824 cpu:     274.9
 (Enter /home/matheus/.gaussian/g09/l601.exe)
 Copying SCF densities to generalized density rwf, IOpCl= 0 IROHF=0.

 **********************************************************************

            Population analysis using the SCF density.

 **********************************************************************

 Orbital symmetries:
       Occupied  (A) (A) (A) (A) (A) (A) (A) (A) (A)
       Virtual   (A) (A) (A) (A) (A) (A) (A) (A) (A) (A) (A) (A)
                 (A) (A) (A) (A) (A) (A) (A) (A) (A) (A) (A) (A)
                 (A) (A) (A) (A) (A) (A) (A) (A) (A) (A) (A) (A)
                 (A) (A) (A) (A) (A) (A) (A) (A) (A) (A) (A) (A)
                 (A) (A) (A) (A) (A) (A) (A) (A) (A) (A) (A) (A)
                 (A) (A) (A) (A) (A) (A) (A) (A) (A) (A) (A) (A)
                 (A) (A) (A) (A) (A) (A) (A) (A) (A) (A) (A) (A)
                 (A) (A) (A) (A) (A) (A) (A) (A) (A) (A) (A) (A)
                 (A) (A) (A) (A) (A) (A) (A) (A) (A) (A) (A) (A)
                 (A) (A) (A) (A) (A) (A) (A) (A) (A) (A) (A) (A)
                 (A) (A) (A) (A) (A) (A) (A) (A) (A) (A) (A) (A)
                 (A) (A) (A) (A) (A) (A) (A) (A) (A) (A) (A) (A)
                 (A) (A) (A) (A) (A) (A) (A) (A) (A) (A) (A) (A)
                 (A) (A) (A) (A) (A) (A) (A) (A) (A) (A) (A) (A)
                 (A) (A) (A) (A) (A) (A) (A) (A) (A) (A) (A) (A)
                 (A) (A) (A) (A) (A) (A) (A) (A)
 The electronic state is 1-A.
 Alpha  occ. eigenvalues --  -19.32124 -19.32119  -1.22761  -1.01187  -0.67461
 Alpha  occ. eigenvalues --   -0.52513  -0.51377  -0.46815  -0.35622
 Alpha virt. eigenvalues --    0.02100   0.03837   0.07504   0.08094   0.08705
 Alpha virt. eigenvalues --    0.09160   0.10661   0.16721   0.17333   0.18195
 Alpha virt. eigenvalues --    0.18348   0.19391   0.20563   0.21547   0.25818
 Alpha virt. eigenvalues --    0.26854   0.28363   0.29162   0.32311   0.35329
 Alpha virt. eigenvalues --    0.35914   0.36294   0.37974   0.41046   0.41708
 Alpha virt. eigenvalues --    0.44530   0.45229   0.46893   0.49004   0.52800
 Alpha virt. eigenvalues --    0.54708   0.57116   0.58773   0.61773   0.64884
 Alpha virt. eigenvalues --    0.68389   0.70243   0.75264   0.76017   0.78633
 Alpha virt. eigenvalues --    0.81030   0.82318   0.85334   0.86829   0.88266
 Alpha virt. eigenvalues --    0.92717   0.95276   0.96498   0.98262   0.99372
 Alpha virt. eigenvalues --    1.00707   1.02946   1.05090   1.08639   1.09004
 Alpha virt. eigenvalues --    1.12486   1.17216   1.20213   1.22474   1.24778
 Alpha virt. eigenvalues --    1.26242   1.29282   1.31248   1.32201   1.34053
 Alpha virt. eigenvalues --    1.34169   1.37451   1.37744   1.43363   1.44796
 Alpha virt. eigenvalues --    1.48952   1.49565   1.52341   1.54190   1.59222
 Alpha virt. eigenvalues --    1.62160   1.63478   1.69098   1.72112   1.77751
 Alpha virt. eigenvalues --    1.82544   1.83507   1.92198   1.94779   2.00625
 Alpha virt. eigenvalues --    2.04028   2.12021   2.15764   2.19989   2.22271
 Alpha virt. eigenvalues --    2.25659   2.30830   2.31344   2.31481   2.39098
 Alpha virt. eigenvalues --    2.45235   2.50228   2.53144   2.62723   2.64405
 Alpha virt. eigenvalues --    2.66838   2.68775   2.83478   2.84763   2.89206
 Alpha virt. eigenvalues --    3.04310   3.08269   3.09778   3.24757   3.34241
 Alpha virt. eigenvalues --    3.38156   3.54422   3.62713   3.66364   3.78276
 Alpha virt. eigenvalues --    3.78947   3.79808   3.81936   3.83126   3.86169
 Alpha virt. eigenvalues --    3.90074   3.91597   3.92445   3.94374   3.97352
 Alpha virt. eigenvalues --    3.98473   4.01583   4.06645   4.09755   4.12740
 Alpha virt. eigenvalues --    4.16179   4.18827   4.21782   4.24315   4.28899
 Alpha virt. eigenvalues --    4.47123   4.55462   4.56360   4.67016   4.94297
 Alpha virt. eigenvalues --    4.97902   5.02062   5.06483   5.08725   5.12786
 Alpha virt. eigenvalues --    5.49154   5.79753   5.99360   6.02797   6.09661
 Alpha virt. eigenvalues --    6.32774   6.34859   6.45203   6.54577   6.66397
 Alpha virt. eigenvalues --    6.68665   6.74770   6.78561   6.80447   6.83596
 Alpha virt. eigenvalues --    6.86330   6.87461   6.89377   7.07589   7.13836
 Alpha virt. eigenvalues --    7.15091   7.24281   7.30845   7.56926   7.95558
 Alpha virt. eigenvalues --    7.99947   8.15428  11.08638  13.81614  14.70928
 Alpha virt. eigenvalues --   14.82034  14.94564  15.10845  29.02576  29.03261
 Alpha virt. eigenvalues --   29.07090  29.20900  29.24199  49.23455 148.30048
 Alpha virt. eigenvalues --  148.48900 148.72559 752.96917
          Condensed to atoms (all electrons):
              1          2          3          4          5
     1  O    8.223298  -0.209422   0.168048   0.028552   0.002319
     2  O   -0.209422   8.219273   0.031256   0.176144  -0.000451
     3  H    0.168048   0.031256   0.596021  -0.004639  -0.003392
     4  H    0.028552   0.176144  -0.004639   0.590247  -0.004428
     5  Kr   0.002319  -0.000451  -0.003392  -0.004428   0.003189
 Mulliken atomic charges:
              1
     1  O   -0.212795
     2  O   -0.216799
     3  H    0.212706
     4  H    0.214125
     5  Kr   0.002763
 Sum of Mulliken atomic charges =   0.00000
 Mulliken charges with hydrogens summed into heavy atoms:
              1
     1  O   -0.000089
     2  O   -0.002674
     5  Kr   0.002763
 Sum of Mulliken charges with hydrogens summed into heavy atoms =   0.00000
          Condensed to fragments (all electrons):
     1      -0.002763
     2       0.002763
 Electronic spatial extent (au):  <R**2>=            316.4009
 Charge=              0.0000 electrons
 Dipole moment (field-independent basis, Debye):
    X=              2.9817    Y=             -0.0188    Z=              0.5360  Tot=              3.0295
 Quadrupole moment (field-independent basis, Debye-Ang):
   XX=            -21.1412   YY=            -10.4718   ZZ=            -12.8703
   XY=              0.1437   XZ=             -0.4188   YZ=             -0.6099
 Traceless Quadrupole moment (field-independent basis, Debye-Ang):
   XX=             -6.3135   YY=              4.3559   ZZ=              1.9575
   XY=              0.1437   XZ=             -0.4188   YZ=             -0.6099
 Octapole moment (field-independent basis, Debye-Ang**2):
  XXX=             92.1336  YYY=             -0.1106  ZZZ=              0.0109  XYY=             24.3173
  XXY=             -0.2668  XXZ=             -0.0326  XZZ=             25.3011  YZZ=             -0.2200
  YYZ=              0.6876  XYZ=              0.6529
 Hexadecapole moment (field-independent basis, Debye-Ang**3):
 XXXX=           -335.9273 YYYY=            -44.9564 ZZZZ=            -11.4441 XXXY=              0.2359
 XXXZ=              1.1906 YYYX=              0.2480 YYYZ=             -0.8234 ZZZX=             -0.1658
 ZZZY=             -0.3545 XXYY=            -63.1041 XXZZ=            -53.7719 YYZZ=            -11.1996
 XXYZ=             -0.6615 YYXZ=             -0.7546 ZZXY=              0.2767
 N-N= 3.666344416378D+01 E-N=-4.318009682675D+02  KE= 1.506991397414D+02
 No NMR shielding tensors so no spin-rotation constants.
 Leave Link  601 at Sun May 10 15:34:17 2020, MaxMem= 1073741824 cpu:       0.8
 (Enter /home/matheus/.gaussian/g09/l122.exe)
 Counterpoise: doing DCBS calculation for fragment   2 NewBq=T
 Leave Link  122 at Sun May 10 15:34:17 2020, MaxMem= 1073741824 cpu:       0.0
 (Enter /home/matheus/.gaussian/g09/l301.exe)
 Basis read from rwf:  (5D, 7F)
 No pseudopotential information found on rwf file.
 There are   197 symmetry adapted basis functions of A   symmetry.
 Integral buffers will be    131072 words long.
 Raffenetti 2 integral format.
 Two-electron integral symmetry is turned on.
   197 basis functions,   415 primitive gaussians,   229 cartesian basis functions
    18 alpha electrons       18 beta electrons
       nuclear repulsion energy         0.0000000000 Hartrees.
 IExCor= 4639 DFT=T Ex+Corr=wB97XD ExCW=0 ScaHFX=  1.000000
 ScaDFX=  1.000000  1.000000  1.000000  1.000000 ScalE2=  1.000000  1.000000
 IRadAn=      5 IRanWt=     -1 IRanGd=            0 ICorTp=0
  HFx wShort=  0.000000 wLong=  0.200000 cFull=  0.222036 cShort=  0.000000 cLong=  0.777964
  DFx wShort=  0.000000 wLong=  0.200000 cFull=  0.000000 cShort=  0.000000 cLong=  1.000000
 NAtoms=    5 NActive=    5 NUniq=    5 SFac= 1.00D+00 NAtFMM=   60 NAOKFM=F Big=F
 R6Disp: Dispersion energy =         0.0000000000 Hartrees.
 Nuclear repulsion after empirical dispersion term =        0.0000000000 Hartrees.
 No density basis found on file   718.
 Leave Link  301 at Sun May 10 15:34:17 2020, MaxMem= 1073741824 cpu:       0.2
 (Enter /home/matheus/.gaussian/g09/l302.exe)
 NPDir=0 NMtPBC=     1 NCelOv=     1 NCel=       1 NClECP=     1 NCelD=      1
         NCelK=      1 NCelE2=     1 NClLst=     1 CellRange=     0.0.
 One-electron integrals computed using PRISM.
 NBasis=   197 RedAO= T  NBF=   197
 NBsUse=   197 1.00D-06 NBFU=   197
 Precomputing XC quadrature grid using
 IXCGrd= 2 IRadAn=           5 IRanWt=          -1 IRanGd=           0 AccXCQ= 0.00D+00.
 NRdTot=     427 NPtTot=      123512 NUsed=      126579 NTot=      126611
 NSgBfM=   229   229   229   229   229 NAtAll=     5     5.
 Leave Link  302 at Sun May 10 15:34:18 2020, MaxMem= 1073741824 cpu:       1.0
 (Enter /home/matheus/.gaussian/g09/l303.exe)
 DipDrv:  MaxL=1.
 Leave Link  303 at Sun May 10 15:34:18 2020, MaxMem= 1073741824 cpu:       0.2
 (Enter /home/matheus/.gaussian/g09/l401.exe)
 Harris functional with IExCor= 4639 diagonalized for initial guess.
 ExpMin= 2.53D-02 ExpMax= 1.17D+07 ExpMxC= 1.33D+04 IAcc=3 IRadAn=         5 AccDes= 0.00D+00
 HarFok:  IExCor= 4639 AccDes= 0.00D+00 IRadAn=         5 IDoV= 1
 ScaDFX=  1.000000  1.000000  1.000000  1.000000
 FoFCou: FMM=F IPFlag=           0 FMFlag=      100000 FMFlg1=           0
         NFxFlg=           0 DoJE=T BraDBF=F KetDBF=T FulRan=T
         Omega=  0.000000  0.000000  1.000000  0.000000  0.000000 ICntrl=     500 IOpCl=  0
         NMat0=    1 NMatS0=    1 NMatT0=    0 NMatD0=    1 NMtDS0=    0 NMtDT0=    0
         I1Cent=           4 NGrid=           0.
 Petite list used in FoFCou.
 Harris En= -2730.20490284334    
 Initial guess orbital symmetries:
       Occupied  (A) (A) (A) (A) (A) (A) (A) (A) (A) (A) (A) (A)
                 (A) (A) (A) (A) (A) (A)
       Virtual   (A) (A) (A) (A) (A) (A) (A) (A) (A) (A) (A) (A)
                 (A) (A) (A) (A) (A) (A) (A) (A) (A) (A) (A) (A)
                 (A) (A) (A) (A) (A) (A) (A) (A) (A) (A) (A) (A)
                 (A) (A) (A) (A) (A) (A) (A) (A) (A) (A) (A) (A)
                 (A) (A) (A) (A) (A) (A) (A) (A) (A) (A) (A) (A)
                 (A) (A) (A) (A) (A) (A) (A) (A) (A) (A) (A) (A)
                 (A) (A) (A) (A) (A) (A) (A) (A) (A) (A) (A) (A)
                 (A) (A) (A) (A) (A) (A) (A) (A) (A) (A) (A) (A)
                 (A) (A) (A) (A) (A) (A) (A) (A) (A) (A) (A) (A)
                 (A) (A) (A) (A) (A) (A) (A) (A) (A) (A) (A) (A)
                 (A) (A) (A) (A) (A) (A) (A) (A) (A) (A) (A) (A)
                 (A) (A) (A) (A) (A) (A) (A) (A) (A) (A) (A) (A)
                 (A) (A) (A) (A) (A) (A) (A) (A) (A) (A) (A) (A)
                 (A) (A) (A) (A) (A) (A) (A) (A) (A) (A) (A) (A)
                 (A) (A) (A) (A) (A) (A) (A) (A) (A) (A) (A)
 The electronic state of the initial guess is 1-A.
 Leave Link  401 at Sun May 10 15:34:18 2020, MaxMem= 1073741824 cpu:       4.2
 (Enter /home/matheus/.gaussian/g09/l502.exe)
 Closed shell SCF:
 Requested convergence on RMS density matrix=1.00D-08 within 128 cycles.
 Requested convergence on MAX density matrix=1.00D-06.
 Requested convergence on             energy=1.00D-06.
 No special actions if energy rises.
 Using DIIS extrapolation, IDIIS=  1040.
 Integral symmetry usage will be decided dynamically.
       126521 words used for storage of precomputed grid.
 IEnd=      305468 IEndB=      305468 NGot=  1073741824 MDV=  1073505667
 LenX=  1073505667 LenY=  1073452785
 Fock matrices will be formed incrementally for  20 cycles.

 Cycle   1  Pass 1  IDiag  1:
 FoFJK:  IHMeth= 1 ICntrl=     0 DoSepK=T KAlg= 1 I1Cent= 0 FoldK=F
 FoFCou: FMM=F IPFlag=           0 FMFlag=      100000 FMFlg1=           0
         NFxFlg=           0 DoJE=T BraDBF=F KetDBF=F FulRan=T
         Omega=  0.000000  0.000000  1.000000  0.000000  0.000000 ICntrl=     500 IOpCl=  0
         NMat0=    1 NMatS0=    1 NMatT0=    0 NMatD0=    1 NMtDS0=    0 NMtDT0=    0
         I1Cent=           0 NGrid=           0.
 Symmetry not used in FoFCou.
 E= -2753.46378764871    
 DIIS: error= 8.77D-02 at cycle   1 NSaved=   1.
 NSaved= 1 IEnMin= 1 EnMin= -2753.46378764871     IErMin= 1 ErrMin= 8.77D-02
 ErrMax= 8.77D-02 EMaxC= 1.00D-01 BMatC= 1.89D+00 BMatP= 1.89D+00
 IDIUse=3 WtCom= 1.23D-01 WtEn= 8.77D-01
 Coeff-Com:  0.100D+01
 Coeff-En:   0.100D+01
 Coeff:      0.100D+01
 Gap=     0.634 Goal=   None    Shift=    0.000
 GapD=    0.634 DampG=2.000 DampE=0.500 DampFc=1.0000 IDamp=-1.
 RMSDP=5.78D-03 MaxDP=3.78D-01              OVMax= 1.78D-01

 Cycle   2  Pass 1  IDiag  1:
 RMSU=  4.03D-03    CP:  1.04D+00
 FoFJK:  IHMeth= 1 ICntrl=     0 DoSepK=T KAlg= 1 I1Cent= 0 FoldK=F
 E= -2753.72354660724     Delta-E=       -0.259758958530 Rises=F Damp=F
 DIIS: error= 3.49D-02 at cycle   2 NSaved=   2.
 NSaved= 2 IEnMin= 2 EnMin= -2753.72354660724     IErMin= 2 ErrMin= 3.49D-02
 ErrMax= 3.49D-02 EMaxC= 1.00D-01 BMatC= 4.80D-01 BMatP= 1.89D+00
 IDIUse=3 WtCom= 6.51D-01 WtEn= 3.49D-01
 Coeff-Com:  0.330D+00 0.670D+00
 Coeff-En:   0.184D+00 0.816D+00
 Coeff:      0.279D+00 0.721D+00
 Gap=     0.473 Goal=   None    Shift=    0.000
 RMSDP=2.61D-03 MaxDP=1.64D-01 DE=-2.60D-01 OVMax= 7.95D-02

 Cycle   3  Pass 1  IDiag  1:
 RMSU=  3.78D-04    CP:  1.03D+00  5.57D-01
 FoFJK:  IHMeth= 1 ICntrl=     0 DoSepK=T KAlg= 1 I1Cent= 0 FoldK=F
 E= -2753.87083273208     Delta-E=       -0.147286124836 Rises=F Damp=F
 DIIS: error= 4.79D-03 at cycle   3 NSaved=   3.
 NSaved= 3 IEnMin= 3 EnMin= -2753.87083273208     IErMin= 3 ErrMin= 4.79D-03
 ErrMax= 4.79D-03 EMaxC= 1.00D-01 BMatC= 1.12D-02 BMatP= 4.80D-01
 IDIUse=3 WtCom= 9.52D-01 WtEn= 4.79D-02
 Coeff-Com: -0.544D-02 0.124D+00 0.881D+00
 Coeff-En:   0.000D+00 0.000D+00 0.100D+01
 Coeff:     -0.517D-02 0.118D+00 0.887D+00
 Gap=     0.502 Goal=   None    Shift=    0.000
 RMSDP=3.18D-04 MaxDP=1.82D-02 DE=-1.47D-01 OVMax= 1.30D-02

 Cycle   4  Pass 1  IDiag  1:
 RMSU=  4.32D-05    CP:  1.03D+00  6.11D-01  9.36D-01
 FoFJK:  IHMeth= 1 ICntrl=     0 DoSepK=T KAlg= 1 I1Cent= 0 FoldK=F
 E= -2753.87438045323     Delta-E=       -0.003547721150 Rises=F Damp=F
 DIIS: error= 2.23D-04 at cycle   4 NSaved=   4.
 NSaved= 4 IEnMin= 4 EnMin= -2753.87438045323     IErMin= 4 ErrMin= 2.23D-04
 ErrMax= 2.23D-04 EMaxC= 1.00D-01 BMatC= 2.19D-05 BMatP= 1.12D-02
 IDIUse=3 WtCom= 9.98D-01 WtEn= 2.23D-03
 Coeff-Com: -0.810D-03-0.152D-01-0.446D-01 0.106D+01
 Coeff-En:   0.000D+00 0.000D+00 0.000D+00 0.100D+01
 Coeff:     -0.808D-03-0.151D-01-0.445D-01 0.106D+01
 Gap=     0.500 Goal=   None    Shift=    0.000
 RMSDP=2.35D-05 MaxDP=9.31D-04 DE=-3.55D-03 OVMax= 8.14D-04

 Cycle   5  Pass 1  IDiag  1:
 RMSU=  1.12D-05    CP:  1.03D+00  6.08D-01  9.55D-01  1.10D+00
 FoFJK:  IHMeth= 1 ICntrl=     0 DoSepK=T KAlg= 1 I1Cent= 0 FoldK=F
 E= -2753.87439078083     Delta-E=       -0.000010327602 Rises=F Damp=F
 DIIS: error= 1.90D-05 at cycle   5 NSaved=   5.
 NSaved= 5 IEnMin= 5 EnMin= -2753.87439078083     IErMin= 5 ErrMin= 1.90D-05
 ErrMax= 1.90D-05 EMaxC= 1.00D-01 BMatC= 3.88D-08 BMatP= 2.19D-05
 IDIUse=1 WtCom= 1.00D+00 WtEn= 0.00D+00
 Coeff-Com:  0.116D-03-0.868D-03-0.889D-02-0.285D-01 0.104D+01
 Coeff:      0.116D-03-0.868D-03-0.889D-02-0.285D-01 0.104D+01
 Gap=     0.500 Goal=   None    Shift=    0.000
 RMSDP=2.50D-06 MaxDP=1.12D-04 DE=-1.03D-05 OVMax= 1.86D-04

 Cycle   6  Pass 1  IDiag  1:
 RMSU=  8.72D-07    CP:  1.03D+00  6.08D-01  9.56D-01  1.13D+00  1.09D+00
 FoFJK:  IHMeth= 1 ICntrl=     0 DoSepK=T KAlg= 1 I1Cent= 0 FoldK=F
 E= -2753.87439090222     Delta-E=       -0.000000121396 Rises=F Damp=F
 DIIS: error= 3.97D-06 at cycle   6 NSaved=   6.
 NSaved= 6 IEnMin= 6 EnMin= -2753.87439090222     IErMin= 6 ErrMin= 3.97D-06
 ErrMax= 3.97D-06 EMaxC= 1.00D-01 BMatC= 4.33D-09 BMatP= 3.88D-08
 IDIUse=1 WtCom= 1.00D+00 WtEn= 0.00D+00
 Coeff-Com:  0.886D-05 0.210D-03 0.808D-04-0.371D-01 0.700D-01 0.967D+00
 Coeff:      0.886D-05 0.210D-03 0.808D-04-0.371D-01 0.700D-01 0.967D+00
 Gap=     0.500 Goal=   None    Shift=    0.000
 RMSDP=6.12D-07 MaxDP=2.70D-05 DE=-1.21D-07 OVMax= 2.83D-05

 Cycle   7  Pass 1  IDiag  1:
 RMSU=  1.11D-07    CP:  1.03D+00  6.08D-01  9.56D-01  1.13D+00  1.12D+00
                    CP:  1.19D+00
 FoFJK:  IHMeth= 1 ICntrl=     0 DoSepK=T KAlg= 1 I1Cent= 0 FoldK=F
 E= -2753.87439090677     Delta-E=       -0.000000004545 Rises=F Damp=F
 DIIS: error= 5.29D-07 at cycle   7 NSaved=   7.
 NSaved= 7 IEnMin= 7 EnMin= -2753.87439090677     IErMin= 7 ErrMin= 5.29D-07
 ErrMax= 5.29D-07 EMaxC= 1.00D-01 BMatC= 5.87D-11 BMatP= 4.33D-09
 IDIUse=1 WtCom= 1.00D+00 WtEn= 0.00D+00
 Coeff-Com:  0.390D-06 0.735D-04 0.177D-03-0.958D-02 0.403D-02 0.242D+00
 Coeff-Com:  0.763D+00
 Coeff:      0.390D-06 0.735D-04 0.177D-03-0.958D-02 0.403D-02 0.242D+00
 Coeff:      0.763D+00
 Gap=     0.500 Goal=   None    Shift=    0.000
 RMSDP=4.78D-08 MaxDP=1.53D-06 DE=-4.54D-09 OVMax= 3.18D-06

 Cycle   8  Pass 1  IDiag  1:
 RMSU=  2.12D-08    CP:  1.03D+00  6.08D-01  9.56D-01  1.13D+00  1.12D+00
                    CP:  1.22D+00  1.02D+00
 FoFJK:  IHMeth= 1 ICntrl=     0 DoSepK=T KAlg= 1 I1Cent= 0 FoldK=F
 E= -2753.87439090682     Delta-E=       -0.000000000053 Rises=F Damp=F
 DIIS: error= 7.90D-08 at cycle   8 NSaved=   8.
 NSaved= 8 IEnMin= 8 EnMin= -2753.87439090682     IErMin= 8 ErrMin= 7.90D-08
 ErrMax= 7.90D-08 EMaxC= 1.00D-01 BMatC= 1.65D-12 BMatP= 5.87D-11
 IDIUse=1 WtCom= 1.00D+00 WtEn= 0.00D+00
 Coeff-Com: -0.130D-06-0.354D-05 0.182D-04 0.151D-02-0.261D-02-0.409D-01
 Coeff-Com:  0.128D-01 0.103D+01
 Coeff:     -0.130D-06-0.354D-05 0.182D-04 0.151D-02-0.261D-02-0.409D-01
 Coeff:      0.128D-01 0.103D+01
 Gap=     0.500 Goal=   None    Shift=    0.000
 RMSDP=1.99D-08 MaxDP=7.73D-07 DE=-5.28D-11 OVMax= 5.64D-07

 Cycle   9  Pass 1  IDiag  1:
 RMSU=  3.75D-09    CP:  1.03D+00  6.08D-01  9.56D-01  1.13D+00  1.12D+00
                    CP:  1.23D+00  1.07D+00  1.14D+00
 FoFJK:  IHMeth= 1 ICntrl=     0 DoSepK=T KAlg= 1 I1Cent= 0 FoldK=F
 E= -2753.87439090683     Delta-E=       -0.000000000015 Rises=F Damp=F
 DIIS: error= 9.25D-09 at cycle   9 NSaved=   9.
 NSaved= 9 IEnMin= 9 EnMin= -2753.87439090683     IErMin= 9 ErrMin= 9.25D-09
 ErrMax= 9.25D-09 EMaxC= 1.00D-01 BMatC= 7.45D-15 BMatP= 1.65D-12
 IDIUse=1 WtCom= 1.00D+00 WtEn= 0.00D+00
 Coeff-Com:  0.115D-07 0.192D-06-0.169D-05-0.137D-03 0.779D-04 0.456D-02
 Coeff-Com: -0.530D-02-0.156D+00 0.116D+01
 Coeff:      0.115D-07 0.192D-06-0.169D-05-0.137D-03 0.779D-04 0.456D-02
 Coeff:     -0.530D-02-0.156D+00 0.116D+01
 Gap=     0.500 Goal=   None    Shift=    0.000
 RMSDP=1.93D-09 MaxDP=8.49D-08 DE=-1.46D-11 OVMax= 9.75D-08

 SCF Done:  E(RwB97XD) =  -2753.87439091     A.U. after    9 cycles
             Convg  =    0.1933D-08             -V/T =  2.0013
 KE= 2.750249864190D+03 PE=-6.580187601883D+03 EE= 1.076063346787D+03
 Leave Link  502 at Sun May 10 15:34:47 2020, MaxMem= 1073741824 cpu:     232.3
 (Enter /home/matheus/.gaussian/g09/l601.exe)
 Copying SCF densities to generalized density rwf, IOpCl= 0 IROHF=0.

 **********************************************************************

            Population analysis using the SCF density.

 **********************************************************************

 Orbital symmetries:
       Occupied  (A) (A) (A) (A) (A) (A) (A) (A) (A) (A) (A) (A)
                 (A) (A) (A) (A) (A) (A)
       Virtual   (A) (A) (A) (A) (A) (A) (A) (A) (A) (A) (A) (A)
                 (A) (A) (A) (A) (A) (A) (A) (A) (A) (A) (A) (A)
                 (A) (A) (A) (A) (A) (A) (A) (A) (A) (A) (A) (A)
                 (A) (A) (A) (A) (A) (A) (A) (A) (A) (A) (A) (A)
                 (A) (A) (A) (A) (A) (A) (A) (A) (A) (A) (A) (A)
                 (A) (A) (A) (A) (A) (A) (A) (A) (A) (A) (A) (A)
                 (A) (A) (A) (A) (A) (A) (A) (A) (A) (A) (A) (A)
                 (A) (A) (A) (A) (A) (A) (A) (A) (A) (A) (A) (A)
                 (A) (A) (A) (A) (A) (A) (A) (A) (A) (A) (A) (A)
                 (A) (A) (A) (A) (A) (A) (A) (A) (A) (A) (A) (A)
                 (A) (A) (A) (A) (A) (A) (A) (A) (A) (A) (A) (A)
                 (A) (A) (A) (A) (A) (A) (A) (A) (A) (A) (A) (A)
                 (A) (A) (A) (A) (A) (A) (A) (A) (A) (A) (A) (A)
                 (A) (A) (A) (A) (A) (A) (A) (A) (A) (A) (A) (A)
                 (A) (A) (A) (A) (A) (A) (A) (A) (A) (A) (A)
 The electronic state is 1-A.
 Alpha  occ. eigenvalues -- -513.05942 -67.32603 -60.87481 -60.87479 -60.87479
 Alpha  occ. eigenvalues --   -9.77891  -7.47186  -7.47185  -7.47185  -3.33928
 Alpha  occ. eigenvalues --   -3.33928  -3.33928  -3.33927  -3.33927  -0.98487
 Alpha  occ. eigenvalues --   -0.46645  -0.46642  -0.46640
 Alpha virt. eigenvalues --    0.03361   0.05246   0.08779   0.10111   0.12443
 Alpha virt. eigenvalues --    0.13369   0.13937   0.14306   0.16128   0.17434
 Alpha virt. eigenvalues --    0.17927   0.18563   0.21124   0.25587   0.26136
 Alpha virt. eigenvalues --    0.26267   0.29343   0.30845   0.33162   0.36996
 Alpha virt. eigenvalues --    0.37297   0.38833   0.39391   0.40154   0.41948
 Alpha virt. eigenvalues --    0.42076   0.45562   0.52421   0.55978   0.57358
 Alpha virt. eigenvalues --    0.61206   0.64159   0.69558   0.70013   0.71420
 Alpha virt. eigenvalues --    0.71823   0.73312   0.74466   0.74879   0.77036
 Alpha virt. eigenvalues --    0.77545   0.82958   0.84567   0.85913   0.87937
 Alpha virt. eigenvalues --    0.88807   0.89816   0.91220   0.93338   0.96516
 Alpha virt. eigenvalues --    0.97845   0.98198   0.98975   1.00658   1.02018
 Alpha virt. eigenvalues --    1.03639   1.08462   1.10663   1.13374   1.14301
 Alpha virt. eigenvalues --    1.18098   1.23261   1.27499   1.32335   1.38141
 Alpha virt. eigenvalues --    1.39930   1.41809   1.43630   1.47647   1.52286
 Alpha virt. eigenvalues --    1.55580   1.59657   1.63779   1.75007   1.76074
 Alpha virt. eigenvalues --    1.81239   1.84336   1.86897   1.93069   2.14677
 Alpha virt. eigenvalues --    2.22617   2.24113   2.25106   2.27361   2.30669
 Alpha virt. eigenvalues --    2.32079   2.33798   2.36895   2.38402   2.41378
 Alpha virt. eigenvalues --    2.45616   2.47114   2.48072   2.49865   2.50474
 Alpha virt. eigenvalues --    2.52975   2.54215   2.57989   2.59097   2.60376
 Alpha virt. eigenvalues --    2.61851   2.64697   2.67375   2.68341   2.71142
 Alpha virt. eigenvalues --    2.76670   2.78086   2.81195   2.88871   2.91448
 Alpha virt. eigenvalues --    2.96151   3.00094   3.06621   3.13731   3.19975
 Alpha virt. eigenvalues --    3.26760   3.28015   3.30063   3.41246   3.52368
 Alpha virt. eigenvalues --    3.62340   3.65683   3.87664   3.88837   4.02904
 Alpha virt. eigenvalues --    4.42480   4.46865   4.52711   4.60510   4.69404
 Alpha virt. eigenvalues --    4.72752   4.86401   4.89393   4.97402   5.03675
 Alpha virt. eigenvalues --    5.13540   5.28294   5.55833   5.65377   5.70740
 Alpha virt. eigenvalues --    5.97663   6.01509   6.22452   6.73464   6.93477
 Alpha virt. eigenvalues --    7.30641   7.37823   7.66562   7.68043   7.79570
 Alpha virt. eigenvalues --    7.87686   8.02845   8.13917   8.18311   8.27939
 Alpha virt. eigenvalues --    8.28495   8.39954   8.70640   9.00588   9.51057
 Alpha virt. eigenvalues --    9.73829   9.80201   9.90827   9.92395   9.95145
 Alpha virt. eigenvalues --   10.21174  10.23003  10.70124  10.89143  11.49347
 Alpha virt. eigenvalues --   11.63819  11.69859  11.95364  12.05065  13.28088
 Alpha virt. eigenvalues --   13.61063  14.55766  62.37131  64.77530
          Condensed to atoms (all electrons):
              1          2          3          4          5
     1  O    0.002019  -0.000196  -0.001826   0.000495  -0.007401
     2  O   -0.000196   0.003315   0.000242  -0.002959  -0.004398
     3  H   -0.001826   0.000242   0.002596  -0.000218  -0.015542
     4  H    0.000495  -0.002959  -0.000218   0.003739  -0.019355
     5  Kr  -0.007401  -0.004398  -0.015542  -0.019355  36.090645
 Mulliken atomic charges:
              1
     1  O    0.006909
     2  O    0.003996
     3  H    0.014748
     4  H    0.018298
     5  Kr  -0.043950
 Sum of Mulliken atomic charges =   0.00000
 Mulliken charges with hydrogens summed into heavy atoms:
              1
     1  O    0.021657
     2  O    0.022294
     5  Kr  -0.043950
 Sum of Mulliken charges with hydrogens summed into heavy atoms =   0.00000
          Condensed to fragments (all electrons):
     1       0.043950
     2      -0.043950
 Electronic spatial extent (au):  <R**2>=            159.5576
 Charge=              0.0000 electrons
 Dipole moment (field-independent basis, Debye):
    X=             -0.0008    Y=              0.0001    Z=             -0.0001  Tot=              0.0008
 Quadrupole moment (field-independent basis, Debye-Ang):
   XX=            -17.6262   YY=            -17.6385   ZZ=            -17.6488
   XY=             -0.0005   XZ=             -0.0024   YZ=             -0.0012
 Traceless Quadrupole moment (field-independent basis, Debye-Ang):
   XX=              0.0116   YY=             -0.0007   ZZ=             -0.0110
   XY=             -0.0005   XZ=             -0.0024   YZ=             -0.0012
 Octapole moment (field-independent basis, Debye-Ang**2):
  XXX=            -51.1290  YYY=              0.0277  ZZZ=              0.1229  XYY=            -17.0596
  XXY=              0.0081  XXZ=              0.0376  XZZ=            -17.0662  YZZ=              0.0098
  YYZ=              0.0410  XYZ=             -0.0004
 Hexadecapole moment (field-independent basis, Debye-Ang**3):
 XXXX=           -117.2880 YYYY=            -18.4437 ZZZZ=            -18.4675 XXXY=              0.0248
 XXXZ=              0.1126 YYYX=              0.0256 YYYZ=              0.0006 ZZZX=              0.1131
 ZZZY=             -0.0023 XXYY=            -22.6348 XXZZ=            -22.6431 YYZZ=             -6.1494
 XXYZ=             -0.0004 YYXZ=              0.0385 ZZXY=              0.0079
 N-N= 0.000000000000D+00 E-N=-6.580187602687D+03  KE= 2.750249864190D+03
 No NMR shielding tensors so no spin-rotation constants.
 Leave Link  601 at Sun May 10 15:34:47 2020, MaxMem= 1073741824 cpu:       0.8
 (Enter /home/matheus/.gaussian/g09/l122.exe)
 Counterpoise: doing MCBS calculation for fragment   1
 Leave Link  122 at Sun May 10 15:34:47 2020, MaxMem= 1073741824 cpu:       0.0
 (Enter /home/matheus/.gaussian/g09/l301.exe)
 Basis read from rwf:  (5D, 7F)
 No pseudopotential information found on rwf file.
 There are   138 symmetry adapted basis functions of A   symmetry.
 Integral buffers will be    131072 words long.
 Raffenetti 2 integral format.
 Two-electron integral symmetry is turned on.
   138 basis functions,   198 primitive gaussians,   160 cartesian basis functions
     9 alpha electrons        9 beta electrons
       nuclear repulsion energy        36.6636681782 Hartrees.
 IExCor= 4639 DFT=T Ex+Corr=wB97XD ExCW=0 ScaHFX=  1.000000
 ScaDFX=  1.000000  1.000000  1.000000  1.000000 ScalE2=  1.000000  1.000000
 IRadAn=      5 IRanWt=     -1 IRanGd=            0 ICorTp=0
  HFx wShort=  0.000000 wLong=  0.200000 cFull=  0.222036 cShort=  0.000000 cLong=  0.777964
  DFx wShort=  0.000000 wLong=  0.200000 cFull=  0.000000 cShort=  0.000000 cLong=  1.000000
 NAtoms=    5 NActive=    4 NUniq=    4 SFac= 1.00D+00 NAtFMM=   60 NAOKFM=F Big=F
 R6Disp: Dispersion energy =        -0.0002240145 Hartrees.
 Nuclear repulsion after empirical dispersion term =       36.6634441638 Hartrees.
 No density basis found on file   718.
 Leave Link  301 at Sun May 10 15:34:47 2020, MaxMem= 1073741824 cpu:       0.2
 (Enter /home/matheus/.gaussian/g09/l302.exe)
 NPDir=0 NMtPBC=     1 NCelOv=     1 NCel=       1 NClECP=     1 NCelD=      1
         NCelK=      1 NCelE2=     1 NClLst=     1 CellRange=     0.0.
 One-electron integrals computed using PRISM.
 NBasis=   138 RedAO= T  NBF=   138
 NBsUse=   138 1.00D-06 NBFU=   138
 Precomputing XC quadrature grid using
 IXCGrd= 2 IRadAn=           5 IRanWt=          -1 IRanGd=           0 AccXCQ= 0.00D+00.
 NRdTot=     344 NPtTot=       92556 NUsed=       95038 NTot=       95070
 NSgBfM=   160   160   160   160   160 NAtAll=     4     4.
 Leave Link  302 at Sun May 10 15:34:47 2020, MaxMem= 1073741824 cpu:       0.8
 (Enter /home/matheus/.gaussian/g09/l303.exe)
 DipDrv:  MaxL=1.
 Leave Link  303 at Sun May 10 15:34:48 2020, MaxMem= 1073741824 cpu:       0.1
 (Enter /home/matheus/.gaussian/g09/l401.exe)
 Harris functional with IExCor= 4639 diagonalized for initial guess.
 ExpMin= 2.53D-02 ExpMax= 1.53D+04 ExpMxC= 5.22D+02 IAcc=3 IRadAn=         5 AccDes= 0.00D+00
 HarFok:  IExCor= 4639 AccDes= 0.00D+00 IRadAn=         5 IDoV= 1
 ScaDFX=  1.000000  1.000000  1.000000  1.000000
 FoFCou: FMM=F IPFlag=           0 FMFlag=      100000 FMFlg1=           0
         NFxFlg=           0 DoJE=T BraDBF=F KetDBF=T FulRan=T
         Omega=  0.000000  0.000000  1.000000  0.000000  0.000000 ICntrl=     500 IOpCl=  0
         NMat0=    1 NMatS0=    1 NMatT0=    0 NMatD0=    1 NMtDS0=    0 NMtDT0=    0
         I1Cent=           4 NGrid=           0.
 Petite list used in FoFCou.
 Harris En= -146.290916557147    
 Initial guess orbital symmetries:
       Occupied  (A) (A) (A) (A) (A) (A) (A) (A) (A)
       Virtual   (A) (A) (A) (A) (A) (A) (A) (A) (A) (A) (A) (A)
                 (A) (A) (A) (A) (A) (A) (A) (A) (A) (A) (A) (A)
                 (A) (A) (A) (A) (A) (A) (A) (A) (A) (A) (A) (A)
                 (A) (A) (A) (A) (A) (A) (A) (A) (A) (A) (A) (A)
                 (A) (A) (A) (A) (A) (A) (A) (A) (A) (A) (A) (A)
                 (A) (A) (A) (A) (A) (A) (A) (A) (A) (A) (A) (A)
                 (A) (A) (A) (A) (A) (A) (A) (A) (A) (A) (A) (A)
                 (A) (A) (A) (A) (A) (A) (A) (A) (A) (A) (A) (A)
                 (A) (A) (A) (A) (A) (A) (A) (A) (A) (A) (A) (A)
                 (A) (A) (A) (A) (A) (A) (A) (A) (A) (A) (A) (A)
                 (A) (A) (A) (A) (A) (A) (A) (A) (A)
 The electronic state of the initial guess is 1-A.
 Leave Link  401 at Sun May 10 15:34:48 2020, MaxMem= 1073741824 cpu:       2.3
 (Enter /home/matheus/.gaussian/g09/l502.exe)
 Closed shell SCF:
 Requested convergence on RMS density matrix=1.00D-08 within 128 cycles.
 Requested convergence on MAX density matrix=1.00D-06.
 Requested convergence on             energy=1.00D-06.
 No special actions if energy rises.
 Using DIIS extrapolation, IDIIS=  1040.
 Integral symmetry usage will be decided dynamically.
        94980 words used for storage of precomputed grid.
 IEnd=      192360 IEndB=      192360 NGot=  1073741824 MDV=  1073591865
 LenX=  1073591865 LenY=  1073565824
 Fock matrices will be formed incrementally for  20 cycles.

 Cycle   1  Pass 1  IDiag  1:
 FoFJK:  IHMeth= 1 ICntrl=     0 DoSepK=T KAlg= 1 I1Cent= 0 FoldK=F
 FoFCou: FMM=F IPFlag=           0 FMFlag=      100000 FMFlg1=           0
         NFxFlg=           0 DoJE=T BraDBF=F KetDBF=F FulRan=T
         Omega=  0.000000  0.000000  1.000000  0.000000  0.000000 ICntrl=     500 IOpCl=  0
         NMat0=    1 NMatS0=    1 NMatT0=    0 NMatD0=    1 NMtDS0=    0 NMtDT0=    0
         I1Cent=           0 NGrid=           0.
 Symmetry not used in FoFCou.
 E= -151.471939856407    
 DIIS: error= 5.58D-02 at cycle   1 NSaved=   1.
 NSaved= 1 IEnMin= 1 EnMin= -151.471939856407     IErMin= 1 ErrMin= 5.58D-02
 ErrMax= 5.58D-02 EMaxC= 1.00D-01 BMatC= 2.98D-01 BMatP= 2.98D-01
 IDIUse=3 WtCom= 4.42D-01 WtEn= 5.58D-01
 Coeff-Com:  0.100D+01
 Coeff-En:   0.100D+01
 Coeff:      0.100D+01
 Gap=     0.488 Goal=   None    Shift=    0.000
 GapD=    0.488 DampG=2.000 DampE=0.500 DampFc=1.0000 IDamp=-1.
 RMSDP=3.46D-03 MaxDP=1.04D-01              OVMax= 1.08D-01

 Cycle   2  Pass 1  IDiag  1:
 RMSU=  2.39D-03    CP:  9.48D-01
 FoFJK:  IHMeth= 1 ICntrl=     0 DoSepK=T KAlg= 1 I1Cent= 0 FoldK=F
 E= -151.505068464552     Delta-E=       -0.033128608145 Rises=F Damp=F
 DIIS: error= 2.81D-02 at cycle   2 NSaved=   2.
 NSaved= 2 IEnMin= 2 EnMin= -151.505068464552     IErMin= 2 ErrMin= 2.81D-02
 ErrMax= 2.81D-02 EMaxC= 1.00D-01 BMatC= 8.46D-02 BMatP= 2.98D-01
 IDIUse=3 WtCom= 7.19D-01 WtEn= 2.81D-01
 Coeff-Com:  0.324D+00 0.676D+00
 Coeff-En:   0.340D+00 0.660D+00
 Coeff:      0.328D+00 0.672D+00
 Gap=     0.439 Goal=   None    Shift=    0.000
 RMSDP=1.48D-03 MaxDP=4.82D-02 DE=-3.31D-02 OVMax= 6.07D-02

 Cycle   3  Pass 1  IDiag  1:
 RMSU=  5.40D-04    CP:  9.72D-01  6.37D-01
 FoFJK:  IHMeth= 1 ICntrl=     0 DoSepK=T KAlg= 1 I1Cent= 0 FoldK=F
 E= -151.549474225850     Delta-E=       -0.044405761299 Rises=F Damp=F
 DIIS: error= 8.23D-03 at cycle   3 NSaved=   3.
 NSaved= 3 IEnMin= 3 EnMin= -151.549474225850     IErMin= 3 ErrMin= 8.23D-03
 ErrMax= 8.23D-03 EMaxC= 1.00D-01 BMatC= 7.38D-03 BMatP= 8.46D-02
 IDIUse=3 WtCom= 9.18D-01 WtEn= 8.23D-02
 Coeff-Com:  0.192D-01 0.239D+00 0.742D+00
 Coeff-En:   0.000D+00 0.000D+00 0.100D+01
 Coeff:      0.176D-01 0.219D+00 0.763D+00
 Gap=     0.386 Goal=   None    Shift=    0.000
 RMSDP=4.38D-04 MaxDP=1.10D-02 DE=-4.44D-02 OVMax= 1.82D-02

 Cycle   4  Pass 1  IDiag  1:
[...]
         I1Cent=           0 NGrid=           0.
 Symmetry not used in FoFCou.
 E= -2753.87423949757    
 DIIS: error= 1.60D-04 at cycle   1 NSaved=   1.
 NSaved= 1 IEnMin= 1 EnMin= -2753.87423949757     IErMin= 1 ErrMin= 1.60D-04
 ErrMax= 1.60D-04 EMaxC= 1.00D-01 BMatC= 3.95D-06 BMatP= 3.95D-06
 IDIUse=3 WtCom= 9.98D-01 WtEn= 1.60D-03
 Coeff-Com:  0.100D+01
 Coeff-En:   0.100D+01
 Coeff:      0.100D+01
 Gap=     0.498 Goal=   None    Shift=    0.000
 RMSDP=1.60D-05 MaxDP=6.95D-04              OVMax= 3.98D-04

 Cycle   2  Pass 1  IDiag  1:
 RMSU=  1.13D-05    CP:  1.00D+00
 FoFJK:  IHMeth= 1 ICntrl=     0 DoSepK=T KAlg= 1 I1Cent= 0 FoldK=F
 E= -2753.87424023123     Delta-E=       -0.000000733659 Rises=F Damp=F
 DIIS: error= 6.83D-06 at cycle   2 NSaved=   2.
 NSaved= 2 IEnMin= 2 EnMin= -2753.87424023123     IErMin= 2 ErrMin= 6.83D-06
 ErrMax= 6.83D-06 EMaxC= 1.00D-01 BMatC= 5.69D-09 BMatP= 3.95D-06
 IDIUse=1 WtCom= 1.00D+00 WtEn= 0.00D+00
 Coeff-Com: -0.126D-01 0.101D+01
 Coeff:     -0.126D-01 0.101D+01
 Gap=     0.498 Goal=   None    Shift=    0.000
 RMSDP=1.39D-06 MaxDP=4.94D-05 DE=-7.34D-07 OVMax= 5.98D-05

 Cycle   3  Pass 1  IDiag  1:
 RMSU=  5.12D-07    CP:  1.00D+00  1.07D+00
 FoFJK:  IHMeth= 1 ICntrl=     0 DoSepK=T KAlg= 1 I1Cent= 0 FoldK=F
 E= -2753.87424024153     Delta-E=       -0.000000010308 Rises=F Damp=F
 DIIS: error= 1.03D-06 at cycle   3 NSaved=   3.
 NSaved= 3 IEnMin= 3 EnMin= -2753.87424024153     IErMin= 3 ErrMin= 1.03D-06
 ErrMax= 1.03D-06 EMaxC= 1.00D-01 BMatC= 1.76D-10 BMatP= 5.69D-09
 IDIUse=1 WtCom= 1.00D+00 WtEn= 0.00D+00
 Coeff-Com: -0.359D-03-0.737D-01 0.107D+01
 Coeff:     -0.359D-03-0.737D-01 0.107D+01
 Gap=     0.498 Goal=   None    Shift=    0.000
 RMSDP=1.88D-07 MaxDP=6.87D-06 DE=-1.03D-08 OVMax= 1.15D-05

 Cycle   4  Pass 1  IDiag  1:
 RMSU=  5.65D-08    CP:  1.00D+00  1.08D+00  1.22D+00
 FoFJK:  IHMeth= 1 ICntrl=     0 DoSepK=T KAlg= 1 I1Cent= 0 FoldK=F
 E= -2753.87424024180     Delta-E=       -0.000000000263 Rises=F Damp=F
 DIIS: error= 6.31D-07 at cycle   4 NSaved=   4.
 NSaved= 4 IEnMin= 4 EnMin= -2753.87424024180     IErMin= 4 ErrMin= 6.31D-07
 ErrMax= 6.31D-07 EMaxC= 1.00D-01 BMatC= 3.17D-11 BMatP= 1.76D-10
 IDIUse=1 WtCom= 1.00D+00 WtEn= 0.00D+00
 Coeff-Com:  0.261D-03-0.526D-01 0.326D+00 0.727D+00
 Coeff:      0.261D-03-0.526D-01 0.326D+00 0.727D+00
 Gap=     0.498 Goal=   None    Shift=    0.000
 RMSDP=3.03D-08 MaxDP=1.01D-06 DE=-2.63D-10 OVMax= 2.01D-06

 Cycle   5  Pass 1  IDiag  1:
 RMSU=  1.28D-08    CP:  1.00D+00  1.08D+00  1.26D+00  1.00D+00
 FoFJK:  IHMeth= 1 ICntrl=     0 DoSepK=T KAlg= 1 I1Cent= 0 FoldK=F
 E= -2753.87424024183     Delta-E=       -0.000000000037 Rises=F Damp=F
 DIIS: error= 4.27D-08 at cycle   5 NSaved=   5.
 NSaved= 5 IEnMin= 5 EnMin= -2753.87424024183     IErMin= 5 ErrMin= 4.27D-08
 ErrMax= 4.27D-08 EMaxC= 1.00D-01 BMatC= 2.02D-13 BMatP= 3.17D-11
 IDIUse=1 WtCom= 1.00D+00 WtEn= 0.00D+00
 Coeff-Com: -0.160D-05 0.295D-02-0.317D-01-0.154D-01 0.104D+01
 Coeff:     -0.160D-05 0.295D-02-0.317D-01-0.154D-01 0.104D+01
 Gap=     0.498 Goal=   None    Shift=    0.000
 RMSDP=1.06D-08 MaxDP=4.57D-07 DE=-3.68D-11 OVMax= 4.07D-07

 Cycle   6  Pass 1  IDiag  1:
 RMSU=  1.30D-09    CP:  1.00D+00  1.08D+00  1.26D+00  1.06D+00  1.16D+00
 FoFJK:  IHMeth= 1 ICntrl=     0 DoSepK=T KAlg= 1 I1Cent= 0 FoldK=F
 E= -2753.87424024183     Delta-E=        0.000000000004 Rises=F Damp=F
 DIIS: error= 1.31D-08 at cycle   6 NSaved=   6.
 NSaved= 6 IEnMin= 5 EnMin= -2753.87424024183     IErMin= 6 ErrMin= 1.31D-08
 ErrMax= 1.31D-08 EMaxC= 1.00D-01 BMatC= 3.08D-14 BMatP= 2.02D-13
 IDIUse=1 WtCom= 1.00D+00 WtEn= 0.00D+00
 Coeff-Com: -0.123D-04 0.335D-02-0.249D-01-0.364D-01 0.324D+00 0.734D+00
 Coeff:     -0.123D-04 0.335D-02-0.249D-01-0.364D-01 0.324D+00 0.734D+00
 Gap=     0.498 Goal=   None    Shift=    0.000
 RMSDP=1.35D-09 MaxDP=5.69D-08 DE= 4.09D-12 OVMax= 7.13D-08

 SCF Done:  E(RwB97XD) =  -2753.87424024     A.U. after    6 cycles
             Convg  =    0.1347D-08             -V/T =  2.0013
 KE= 2.750294869060D+03 PE=-6.580235513200D+03 EE= 1.076066403899D+03
 Leave Link  502 at Sun May 10 15:58:23 2020, MaxMem= 1073741824 cpu:     119.8
 (Enter /home/matheus/.gaussian/g09/l122.exe)
 Restoring MOs from calculation   4 to rwf.
 Counterpoise: doing MCBS calculation for fragment   1
 Leave Link  122 at Sun May 10 15:58:23 2020, MaxMem= 1073741824 cpu:       0.0
 (Enter /home/matheus/.gaussian/g09/l301.exe)
 Basis read from rwf:  (5D, 7F)
 No pseudopotential information found on rwf file.
 There are   138 symmetry adapted basis functions of A   symmetry.
 Integral buffers will be    131072 words long.
 Raffenetti 2 integral format.
 Two-electron integral symmetry is turned on.
   138 basis functions,   198 primitive gaussians,   160 cartesian basis functions
     9 alpha electrons        9 beta electrons
       nuclear repulsion energy        36.6636681782 Hartrees.
 IExCor= 4639 DFT=T Ex+Corr=wB97XD ExCW=0 ScaHFX=  1.000000
 ScaDFX=  1.000000  1.000000  1.000000  1.000000 ScalE2=  1.000000  1.000000
 IRadAn=      5 IRanWt=     -1 IRanGd=            0 ICorTp=0
  HFx wShort=  0.000000 wLong=  0.200000 cFull=  0.222036 cShort=  0.000000 cLong=  0.777964
  DFx wShort=  0.000000 wLong=  0.200000 cFull=  0.000000 cShort=  0.000000 cLong=  1.000000
 NAtoms=    5 NActive=    4 NUniq=    4 SFac= 1.00D+00 NAtFMM=   60 NAOKFM=F Big=F
 R6Disp: Dispersion energy =        -0.0002240145 Hartrees.
 Nuclear repulsion after empirical dispersion term =       36.6634441638 Hartrees.
 No density basis found on file   718.
 Leave Link  301 at Sun May 10 15:58:23 2020, MaxMem= 1073741824 cpu:       0.4
 (Enter /home/matheus/.gaussian/g09/l302.exe)
 NPDir=0 NMtPBC=     1 NCelOv=     1 NCel=       1 NClECP=     1 NCelD=      1
         NCelK=      1 NCelE2=     1 NClLst=     1 CellRange=     0.0.
 One-electron integrals computed using PRISM.
 NBasis=   138 RedAO= T  NBF=   138
 NBsUse=   138 1.00D-06 NBFU=   138
 Precomputing XC quadrature grid using
 IXCGrd= 2 IRadAn=           5 IRanWt=          -1 IRanGd=           0 AccXCQ= 0.00D+00.
 NRdTot=     344 NPtTot=       92556 NUsed=       95038 NTot=       95070
 NSgBfM=   160   160   160   160   160 NAtAll=     4     4.
 Leave Link  302 at Sun May 10 15:58:23 2020, MaxMem= 1073741824 cpu:       1.1
 (Enter /home/matheus/.gaussian/g09/l303.exe)
 DipDrv:  MaxL=1.
 Leave Link  303 at Sun May 10 15:58:23 2020, MaxMem= 1073741824 cpu:       0.3
 (Enter /home/matheus/.gaussian/g09/l401.exe)
 Initial guess read from the read-write file.
 Guess basis will be translated and rotated to current coordinates.
 Initial guess orbital symmetries:
       Occupied  (A) (A) (A) (A) (A) (A) (A) (A) (A)
       Virtual   (A) (A) (A) (A) (A) (A) (A) (A) (A) (A) (A) (A)
                 (A) (A) (A) (A) (A) (A) (A) (A) (A) (A) (A) (A)
                 (A) (A) (A) (A) (A) (A) (A) (A) (A) (A) (A) (A)
                 (A) (A) (A) (A) (A) (A) (A) (A) (A) (A) (A) (A)
                 (A) (A) (A) (A) (A) (A) (A) (A) (A) (A) (A) (A)
                 (A) (A) (A) (A) (A) (A) (A) (A) (A) (A) (A) (A)
                 (A) (A) (A) (A) (A) (A) (A) (A) (A) (A) (A) (A)
                 (A) (A) (A) (A) (A) (A) (A) (A) (A) (A) (A) (A)
                 (A) (A) (A) (A) (A) (A) (A) (A) (A) (A) (A) (A)
                 (A) (A) (A) (A) (A) (A) (A) (A) (A) (A) (A) (A)
                 (A) (A) (A) (A) (A) (A) (A) (A) (A)
 The electronic state of the initial guess is 1-A.
 Generating alternative initial guess.
 Harris functional with IExCor= 4639 diagonalized for initial guess.
 ExpMin= 2.53D-02 ExpMax= 1.53D+04 ExpMxC= 5.22D+02 IAcc=3 IRadAn=         5 AccDes= 0.00D+00
 HarFok:  IExCor= 4639 AccDes= 0.00D+00 IRadAn=         5 IDoV= 1
 ScaDFX=  1.000000  1.000000  1.000000  1.000000
 FoFCou: FMM=F IPFlag=           0 FMFlag=      100000 FMFlg1=           0
         NFxFlg=           0 DoJE=T BraDBF=F KetDBF=T FulRan=T
         Omega=  0.000000  0.000000  1.000000  0.000000  0.000000 ICntrl=     500 IOpCl=  0
         NMat0=    1 NMatS0=    1 NMatT0=    0 NMatD0=    1 NMtDS0=    0 NMtDT0=    0
         I1Cent=           4 NGrid=           0.
 Petite list used in FoFCou.
 Harris En= -146.290916556386    
 Leave Link  401 at Sun May 10 15:58:24 2020, MaxMem= 1073741824 cpu:       3.6
 (Enter /home/matheus/.gaussian/g09/l502.exe)
 Closed shell SCF:
 Requested convergence on RMS density matrix=1.00D-08 within 128 cycles.
 Requested convergence on MAX density matrix=1.00D-06.
 Requested convergence on             energy=1.00D-06.
 No special actions if energy rises.
 Using DIIS extrapolation, IDIIS=  1040.
 Integral symmetry usage will be decided dynamically.
        94980 words used for storage of precomputed grid.
 IEnd=      192360 IEndB=      192360 NGot=  1073741824 MDV=  1073591865
 LenX=  1073591865 LenY=  1073565824
 Fock matrices will be formed incrementally for  20 cycles.

 Cycle   1  Pass 1  IDiag  1:
 FoFJK:  IHMeth= 1 ICntrl=     0 DoSepK=T KAlg= 1 I1Cent= 0 FoldK=F
 FoFCou: FMM=F IPFlag=           0 FMFlag=      100000 FMFlg1=           0
         NFxFlg=           0 DoJE=T BraDBF=F KetDBF=F FulRan=T
         Omega=  0.000000  0.000000  1.000000  0.000000  0.000000 ICntrl=     500 IOpCl=  0
         NMat0=    1 NMatS0=    1 NMatT0=    0 NMatD0=    1 NMtDS0=    0 NMtDT0=    0
         I1Cent=           0 NGrid=           0.
 Symmetry not used in FoFCou.
 E= -151.554354903898    
 DIIS: error= 1.78D-06 at cycle   1 NSaved=   1.
 NSaved= 1 IEnMin= 1 EnMin= -151.554354903898     IErMin= 1 ErrMin= 1.78D-06
 ErrMax= 1.78D-06 EMaxC= 1.00D-01 BMatC= 4.40D-10 BMatP= 4.40D-10
 IDIUse=1 WtCom= 1.00D+00 WtEn= 0.00D+00
 Coeff-Com:  0.100D+01
 Coeff:      0.100D+01
 Gap=     0.381 Goal=   None    Shift=    0.000
 RMSDP=1.69D-07 MaxDP=4.27D-06              OVMax= 7.00D-06

 Cycle   2  Pass 1  IDiag  1:
 RMSU=  1.19D-07    CP:  1.00D+00
 FoFJK:  IHMeth= 1 ICntrl=     0 DoSepK=T KAlg= 1 I1Cent= 0 FoldK=F
 E= -151.554354904353     Delta-E=       -0.000000000455 Rises=F Damp=F
 DIIS: error= 3.07D-07 at cycle   2 NSaved=   2.
 NSaved= 2 IEnMin= 2 EnMin= -151.554354904353     IErMin= 2 ErrMin= 3.07D-07
 ErrMax= 3.07D-07 EMaxC= 1.00D-01 BMatC= 1.59D-11 BMatP= 4.40D-10
 IDIUse=1 WtCom= 1.00D+00 WtEn= 0.00D+00
 Coeff-Com: -0.864D-01 0.109D+01
 Coeff:     -0.864D-01 0.109D+01
 Gap=     0.381 Goal=   None    Shift=    0.000
 RMSDP=4.20D-08 MaxDP=1.32D-06 DE=-4.55D-10 OVMax= 1.84D-06

 Cycle   3  Pass 1  IDiag  1:
 RMSU=  1.23D-08    CP:  1.00D+00  1.23D+00
 FoFJK:  IHMeth= 1 ICntrl=     0 DoSepK=T KAlg= 1 I1Cent= 0 FoldK=F
 E= -151.554354904374     Delta-E=       -0.000000000021 Rises=F Damp=F
 DIIS: error= 1.01D-07 at cycle   3 NSaved=   3.
 NSaved= 3 IEnMin= 3 EnMin= -151.554354904374     IErMin= 3 ErrMin= 1.01D-07
 ErrMax= 1.01D-07 EMaxC= 1.00D-01 BMatC= 1.06D-12 BMatP= 1.59D-11
 IDIUse=1 WtCom= 1.00D+00 WtEn= 0.00D+00
 Coeff-Com: -0.263D-01 0.137D+00 0.889D+00
 Coeff:     -0.263D-01 0.137D+00 0.889D+00
 Gap=     0.381 Goal=   None    Shift=    0.000
 RMSDP=1.10D-08 MaxDP=2.87D-07 DE=-2.10D-11 OVMax= 5.95D-07

 Cycle   4  Pass 1  IDiag  1:
 RMSU=  4.37D-09    CP:  1.00D+00  1.28D+00  1.17D+00
 FoFJK:  IHMeth= 1 ICntrl=     0 DoSepK=T KAlg= 1 I1Cent= 0 FoldK=F
 E= -151.554354904376     Delta-E=       -0.000000000002 Rises=F Damp=F
 DIIS: error= 7.46D-08 at cycle   4 NSaved=   4.
 NSaved= 4 IEnMin= 4 EnMin= -151.554354904376     IErMin= 4 ErrMin= 7.46D-08
 ErrMax= 7.46D-08 EMaxC= 1.00D-01 BMatC= 5.63D-13 BMatP= 1.06D-12
 IDIUse=1 WtCom= 1.00D+00 WtEn= 0.00D+00
 Coeff-Com: -0.677D-02-0.550D-02 0.414D+00 0.599D+00
 Coeff:     -0.677D-02-0.550D-02 0.414D+00 0.599D+00
 Gap=     0.381 Goal=   None    Shift=    0.000
 RMSDP=3.80D-09 MaxDP=7.27D-08 DE=-1.96D-12 OVMax= 2.13D-07

 SCF Done:  E(RwB97XD) =  -151.554354904     A.U. after    4 cycles
             Convg  =    0.3797D-08             -V/T =  2.0057
 KE= 1.506982861533D+02 PE=-4.317984200980D+02 EE= 9.288233487661D+01
 Leave Link  502 at Sun May 10 15:58:29 2020, MaxMem= 1073741824 cpu:      43.4
 (Enter /home/matheus/.gaussian/g09/l122.exe)
 Restoring MOs from calculation   5 to rwf.
 Counterpoise: doing MCBS calculation for fragment   2
 Leave Link  122 at Sun May 10 15:58:29 2020, MaxMem= 1073741824 cpu:       0.0
 (Enter /home/matheus/.gaussian/g09/l301.exe)
 Basis read from rwf:  (5D, 7F)
 No pseudopotential information found on rwf file.
 There are    59 symmetry adapted basis functions of A   symmetry.
 Integral buffers will be    131072 words long.
 Raffenetti 2 integral format.
 Two-electron integral symmetry is turned on.
    59 basis functions,   217 primitive gaussians,    69 cartesian basis functions
    18 alpha electrons       18 beta electrons
       nuclear repulsion energy         0.0000000000 Hartrees.
 IExCor= 4639 DFT=T Ex+Corr=wB97XD ExCW=0 ScaHFX=  1.000000
 ScaDFX=  1.000000  1.000000  1.000000  1.000000 ScalE2=  1.000000  1.000000
 IRadAn=      5 IRanWt=     -1 IRanGd=            0 ICorTp=0
  HFx wShort=  0.000000 wLong=  0.200000 cFull=  0.222036 cShort=  0.000000 cLong=  0.777964
  DFx wShort=  0.000000 wLong=  0.200000 cFull=  0.000000 cShort=  0.000000 cLong=  1.000000
 NAtoms=    5 NActive=    1 NUniq=    1 SFac= 1.00D+00 NAtFMM=   60 NAOKFM=F Big=F
 R6Disp: Dispersion energy =         0.0000000000 Hartrees.
 Nuclear repulsion after empirical dispersion term =        0.0000000000 Hartrees.
 No density basis found on file   718.
 Leave Link  301 at Sun May 10 15:58:29 2020, MaxMem= 1073741824 cpu:       0.2
 (Enter /home/matheus/.gaussian/g09/l302.exe)
 NPDir=0 NMtPBC=     1 NCelOv=     1 NCel=       1 NClECP=     1 NCelD=      1
         NCelK=      1 NCelE2=     1 NClLst=     1 CellRange=     0.0.
 One-electron integrals computed using PRISM.
 NBasis=    59 RedAO= T  NBF=    59
 NBsUse=    59 1.00D-06 NBFU=    59
 Precomputing XC quadrature grid using
 IXCGrd= 2 IRadAn=           5 IRanWt=          -1 IRanGd=           0 AccXCQ= 0.00D+00.
 NRdTot=      81 NPtTot=       30352 NUsed=       30981 NTot=       31013
 NSgBfM=    69    69    69    69    69 NAtAll=     1     1.
 Leave Link  302 at Sun May 10 15:58:29 2020, MaxMem= 1073741824 cpu:       0.7
 (Enter /home/matheus/.gaussian/g09/l303.exe)
 DipDrv:  MaxL=1.
 Leave Link  303 at Sun May 10 15:58:29 2020, MaxMem= 1073741824 cpu:       0.2
 (Enter /home/matheus/.gaussian/g09/l401.exe)
 Initial guess read from the read-write file.
 Guess basis will be translated and rotated to current coordinates.
 Initial guess orbital symmetries:
       Occupied  (A) (A) (A) (A) (A) (A) (A) (A) (A) (A) (A) (A)
                 (A) (A) (A) (A) (A) (A)
       Virtual   (A) (A) (A) (A) (A) (A) (A) (A) (A) (A) (A) (A)
                 (A) (A) (A) (A) (A) (A) (A) (A) (A) (A) (A) (A)
                 (A) (A) (A) (A) (A) (A) (A) (A) (A) (A) (A) (A)
                 (A) (A) (A) (A) (A)
 The electronic state of the initial guess is 1-A.
 Generating alternative initial guess.
 Harris functional with IExCor= 4639 diagonalized for initial guess.
 ExpMin= 4.00D-02 ExpMax= 1.17D+07 ExpMxC= 1.33D+04 IAcc=3 IRadAn=         5 AccDes= 0.00D+00
 HarFok:  IExCor= 4639 AccDes= 0.00D+00 IRadAn=         5 IDoV= 1
 ScaDFX=  1.000000  1.000000  1.000000  1.000000
 FoFCou: FMM=F IPFlag=           0 FMFlag=      100000 FMFlg1=           0
         NFxFlg=           0 DoJE=T BraDBF=F KetDBF=T FulRan=T
         Omega=  0.000000  0.000000  1.000000  0.000000  0.000000 ICntrl=     500 IOpCl=  0
         NMat0=    1 NMatS0=    1 NMatT0=    0 NMatD0=    1 NMtDS0=    0 NMtDT0=    0
         I1Cent=           4 NGrid=           0.
 Petite list used in FoFCou.
 Harris En= -2730.20235208354    
 Leave Link  401 at Sun May 10 15:58:29 2020, MaxMem= 1073741824 cpu:       1.0
 (Enter /home/matheus/.gaussian/g09/l502.exe)
 Closed shell SCF:
 Requested convergence on RMS density matrix=1.00D-08 within 128 cycles.
 Requested convergence on MAX density matrix=1.00D-06.
 Requested convergence on             energy=1.00D-06.
 No special actions if energy rises.
 Using DIIS extrapolation, IDIIS=  1040.
 Integral symmetry usage will be decided dynamically.
        30923 words used for storage of precomputed grid.
 IEnd=       64406 IEndB=       64406 NGot=  1073741824 MDV=  1073698889
 LenX=  1073698889 LenY=  1073693687
 Fock matrices will be formed incrementally for  20 cycles.

 Cycle   1  Pass 1  IDiag  1:
 FoFJK:  IHMeth= 1 ICntrl=     0 DoSepK=T KAlg= 1 I1Cent= 0 FoldK=F
 FoFCou: FMM=F IPFlag=           0 FMFlag=      100000 FMFlg1=           0
         NFxFlg=           0 DoJE=T BraDBF=F KetDBF=F FulRan=T
         Omega=  0.000000  0.000000  1.000000  0.000000  0.000000 ICntrl=     500 IOpCl=  0
         NMat0=    1 NMatS0=    1 NMatT0=    0 NMatD0=    1 NMtDS0=    0 NMtDT0=    0
         I1Cent=           0 NGrid=           0.
 Symmetry not used in FoFCou.
 E= -2753.87421986326    
 DIIS: error= 9.66D-14 at cycle   1 NSaved=   1.
 NSaved= 1 IEnMin= 1 EnMin= -2753.87421986326     IErMin= 1 ErrMin= 9.66D-14
 ErrMax= 9.66D-14 EMaxC= 1.00D-01 BMatC= 7.44D-25 BMatP= 7.44D-25
 IDIUse=1 WtCom= 1.00D+00 WtEn= 0.00D+00
 Coeff-Com:  0.100D+01
 Coeff:      0.100D+01
 Gap=     0.562 Goal=   None    Shift=    0.000
 RMSDP=1.25D-14 MaxDP=1.93D-13              OVMax= 1.40D-13

 SCF Done:  E(RwB97XD) =  -2753.87421986     A.U. after    1 cycles
             Convg  =    0.1254D-13             -V/T =  2.0013
 KE= 2.750300381543D+03 PE=-6.580241205809D+03 EE= 1.076066604402D+03
 Leave Link  502 at Sun May 10 15:58:31 2020, MaxMem= 1073741824 cpu:      11.5
 (Enter /home/matheus/.gaussian/g09/l122.exe)
 Restoring MOs from calculation   1 to rwf.
 Counterpoise: corrected energy =   -2905.429022616666
 Counterpoise: BSSE energy =       0.000024418822
 Leave Link  122 at Sun May 10 15:58:31 2020, MaxMem= 1073741824 cpu:       0.0
 (Enter /home/matheus/.gaussian/g09/l108.exe)
 Scan completed.

 Summary of the potential surface scan:
   N      R1          SCF    
 ----  ---------  -----------
    1     3.0000  -2753.87422
    2     3.1000  -2753.87422
    3     3.2000  -2753.87422
    4     3.3000  -2753.87422
    5     3.4000  -2753.87422
    6     3.5000  -2753.87422
    7     3.6000  -2753.87422
    8     3.7000  -2753.87422
    9     3.8000  -2753.87422
   10     3.9000  -2753.87422
   11     4.0000  -2753.87422
   12     4.1000  -2753.87422
   13     4.2000  -2753.87422
   14     4.3000  -2753.87422
   15     4.4000  -2753.87422
   16     4.5000  -2753.87422
   17     4.6000  -2753.87422
   18     4.7000  -2753.87422
   19     4.8000  -2753.87422
   20     4.9000  -2753.87422
   21     5.0000  -2753.87422
 ----  ---------  -----------
  
 Leave Link  108 at Sun May 10 15:58:31 2020, MaxMem= 1073741824 cpu:       0.0
 (Enter /home/matheus/.gaussian/g09/l9999.exe)
 1\1\GINC-REDGIANT\Scan\RwB97XD\Aug-CC-pVTZ\H2Kr1O2\MATHEUS\10-May-2020
 \1\\#p wb97xd/aug-cc-PVTz int=ultrafine counterpoise=2 Scan\\TCC\\0,1\
 O,0,0.,0.,0.725\O,0,0.,0.,-0.725\H,0,-0.3142209495,0.8633149634,1.0235
 104166\H,0,0.,0.9187205947,-1.0235104166\Kr,0,0.,R1,0.\\R1=3.,s,20,0.1
 \\Version=EM64L-G09RevC.01\State=1-A\HF=-2753.8742199,-2753.8742199,-2
 753.8742199,-2753.8742199,-2753.8742199,-2753.8742199,-2753.8742199,-2
 753.8742199,-2753.8742199,-2753.8742199,-2753.8742199,-2753.8742199,-2
 753.8742199,-2753.8742199,-2753.8742199,-2753.8742199,-2753.8742199,-2
 753.8742199,-2753.8742199,-2753.8742199,-2753.8742199\RMSD=9.120e-09,1
 .920e-10,6.363e-11,4.203e-11,2.496e-11,1.570e-11,9.717e-12,6.057e-12,3
 .768e-12,2.337e-12,1.448e-12,9.026e-13,5.626e-13,3.498e-13,2.172e-13,1
 .316e-13,7.842e-14,4.880e-14,3.058e-14,1.969e-14,1.254e-14\PG=C01 [X(H
 2Kr1O2)]\\@


 AS FAR AS THE LAWS OF MATHEMATICS REFER TO REALITY,
 THEY ARE NOT CERTAIN; AND AS FAR AS THEY ARE CERTAIN,
 THEY DO NOT REFER TO REALITY.

                                         -- ALBERT EINSTEIN
 Job cpu time:  0 days  3 hours 22 minutes 35.0 seconds.
 File lengths (MBytes):  RWF=     33 Int=      0 D2E=      0 Chk=      8 Scr=      1
 Normal termination of Gaussian 09 at Sun May 10 15:58:31 2020.
