 Entering Gaussian System, Link 0=g09
 Input=/home/matheus/.tcc/Inputs/Inputs-wb97xd-default/H2O2-Kr_15.com
 Output=/home/matheus/.tcc/Logs/Logs-wb97xd-default/H2O2-Kr_15.log
 Initial command:
 /home/matheus/.gaussian/g09/l1.exe /home/matheus/.gaussian/g09/scratch/Gau-17358.inp -scrdir=/home/matheus/.gaussian/g09/scratch/
 Entering Link 1 = /home/matheus/.gaussian/g09/l1.exe PID=     17362.
  
 Copyright (c) 1988,1990,1992,1993,1995,1998,2003,2009,2011,
            Gaussian, Inc.  All Rights Reserved.
  
 This is part of the Gaussian(R) 09 program.  It is based on
 the Gaussian(R) 03 system (copyright 2003, Gaussian, Inc.),
 the Gaussian(R) 98 system (copyright 1998, Gaussian, Inc.),
 the Gaussian(R) 94 system (copyright 1995, Gaussian, Inc.),
 the Gaussian 92(TM) system (copyright 1992, Gaussian, Inc.),
 the Gaussian 90(TM) system (copyright 1990, Gaussian, Inc.),
 the Gaussian 88(TM) system (copyright 1988, Gaussian, Inc.),
 the Gaussian 86(TM) system (copyright 1986, Carnegie Mellon
 University), and the Gaussian 82(TM) system (copyright 1983,
 Carnegie Mellon University). Gaussian is a federally registered
 trademark of Gaussian, Inc.
  
 This software contains proprietary and confidential information,
 including trade secrets, belonging to Gaussian, Inc.
  
 This software is provided under written license and may be
 used, copied, transmitted, or stored only in accord with that
 written license.
  
 The following legend is applicable only to US Government
 contracts under FAR:
  
                    RESTRICTED RIGHTS LEGEND
  
 Use, reproduction and disclosure by the US Government is
 subject to restrictions as set forth in subparagraphs (a)
 and (c) of the Commercial Computer Software - Restricted
 Rights clause in FAR 52.227-19.
  
 Gaussian, Inc.
 340 Quinnipiac St., Bldg. 40, Wallingford CT 06492
  
  
 ---------------------------------------------------------------
 Warning -- This program may not be used in any manner that
 competes with the business of Gaussian, Inc. or will provide
 assistance to any competitor of Gaussian, Inc.  The licensee
 of this program is prohibited from giving any competitor of
 Gaussian, Inc. access to this program.  By using this program,
 the user acknowledges that Gaussian, Inc. is engaged in the
 business of creating and licensing software in the field of
 computational chemistry and represents and warrants to the
 licensee that it is not a competitor of Gaussian, Inc. and that
 it will not use this program in any manner prohibited above.
 ---------------------------------------------------------------
  

 Cite this work as:
 Gaussian 09, Revision C.01,
 M. J. Frisch, G. W. Trucks, H. B. Schlegel, G. E. Scuseria, 
 M. A. Robb, J. R. Cheeseman, G. Scalmani, V. Barone, B. Mennucci, 
 G. A. Petersson, H. Nakatsuji, M. Caricato, X. Li, H. P. Hratchian, 
 A. F. Izmaylov, J. Bloino, G. Zheng, J. L. Sonnenberg, M. Hada, 
 M. Ehara, K. Toyota, R. Fukuda, J. Hasegawa, M. Ishida, T. Nakajima, 
 Y. Honda, O. Kitao, H. Nakai, T. Vreven, J. A. Montgomery, Jr., 
 J. E. Peralta, F. Ogliaro, M. Bearpark, J. J. Heyd, E. Brothers, 
 K. N. Kudin, V. N. Staroverov, T. Keith, R. Kobayashi, J. Normand, 
 K. Raghavachari, A. Rendell, J. C. Burant, S. S. Iyengar, J. Tomasi, 
 M. Cossi, N. Rega, J. M. Millam, M. Klene, J. E. Knox, J. B. Cross, 
 V. Bakken, C. Adamo, J. Jaramillo, R. Gomperts, R. E. Stratmann, 
 O. Yazyev, A. J. Austin, R. Cammi, C. Pomelli, J. W. Ochterski, 
 R. L. Martin, K. Morokuma, V. G. Zakrzewski, G. A. Voth, 
 P. Salvador, J. J. Dannenberg, S. Dapprich, A. D. Daniels, 
 O. Farkas, J. B. Foresman, J. V. Ortiz, J. Cioslowski, 
 and D. J. Fox, Gaussian, Inc., Wallingford CT, 2010.
 
 ******************************************
 Gaussian 09:  EM64L-G09RevC.01 23-Sep-2011
                 9-May-2020 
 ******************************************
 %mem=8GB
 %nproc=8
 Will use up to    8 processors via shared memory.
 -------------------------------------------------------
 #p wb97xd/aug-cc-PVTz int=ultrafine counterpoise=2 Scan
 -------------------------------------------------------
 1/38=1,60=1,62=2/1,8;
 2/12=2,17=6,18=5,29=3,40=1/2;
 1/38=1,53=5172,62=2/22;
 3/5=16,6=1,7=10,11=2,16=1,25=1,30=1,74=-58,75=-5/1,2,3;
 4//1;
 5/5=2,38=5/2;
 6/7=2,8=2,9=2,10=2,18=1,28=1/1;
 1/53=4052,62=2,63=1/22;
 3/5=7,6=11,7=10,11=2,16=1,25=1,30=1,74=-58,75=-5,82=7/1,2,3;
 4//1;
 5/5=2,38=5/2;
 6/7=2,8=2,9=2,10=2,18=1,28=1/1;
 1/53=3042,62=2,63=2/22;
 3/5=7,6=11,7=10,11=2,16=1,25=1,30=1,74=-58,75=-5,82=7/1,2,3;
 4//1;
 5/5=2,38=5/2;
 6/7=2,8=2,9=2,10=2,18=1,28=1/1;
 1/53=2032,62=2,63=3/22;
 3/5=7,6=11,7=10,11=2,16=1,25=1,30=1,74=-58,75=-5,82=7/1,2,3;
 4//1;
 5/5=2,38=5/2;
 6/7=2,8=2,9=2,10=2,18=1,28=1/1;
 1/53=1022,62=2,63=4/22;
 3/5=7,6=11,7=10,11=2,16=1,25=1,30=1,74=-58,75=-5,82=7/1,2,3;
 4//1;
 5/5=2,38=5/2;
 6/7=2,8=2,9=2,10=2,18=1,28=1/1;
 1/53=5014,62=2,63=5/22;
 1/60=1,62=2/8(1);
 99/9=1/99;
 2/29=3/2;
 1/53=5173,62=2/22;
 3/5=7,6=11,7=10,11=2,16=1,25=1,30=1,74=-58,75=-5,82=7/1,2,3;
 4/5=5,16=3/1;
 5/5=2,38=5/2;
 1/53=4053,62=2,63=1/22;
 3/5=7,6=11,7=10,11=2,16=1,25=1,30=1,74=-58,75=-5,82=7/1,2,3;
 4/5=5,16=3/1;
 5/5=2,38=5/2;
 1/53=3043,62=2,63=2/22;
 3/5=7,6=11,7=10,11=2,16=1,25=1,30=1,74=-58,75=-5,82=7/1,2,3;
 4/5=5,16=3/1;
 5/5=2,38=5/2;
 1/53=2033,62=2,63=3/22;
 3/5=7,6=11,7=10,11=2,16=1,25=1,30=1,74=-58,75=-5,82=7/1,2,3;
 4/5=5,16=3/1;
 5/5=2,38=5/2;
 1/53=1024,62=2,63=4/22;
 3/5=7,6=11,7=10,11=2,16=1,25=1,30=1,74=-58,75=-5,82=7/1,2,3;
 4/5=5,16=3/1;
 5/5=2,38=5/2;
 1/53=5014,62=2,63=5/22;
 1/60=1,62=2/8(-22);
 99/9=1/99;
 Leave Link    1 at Sat May  9 22:03:42 2020, MaxMem= 1073741824 cpu:       0.2
 (Enter /home/matheus/.gaussian/g09/l101.exe)
 ---
 TCC
 ---
 Charge =  0 Multiplicity = 1 in supermolecule
 Charge =  0 Multiplicity = 1 in fragment  1.
 Charge =  0 Multiplicity = 1 in fragment  2.
 Symbolic Z-Matrix:
 O(Fragment=1)         0.        0.        0.725 
 O(Fragment=1)         0.        0.       -0.725 
 H(Fragment=1)         0.45936  -0.79564   1.02351 
 H(Fragment=1)         0.        0.91872  -1.02351 
 Kr(Fragment=2)        0.       R1        0. 
       Variables:
  R1                    3.     Scan 20    0.1    
 
 NAtoms=      5 NQM=        0 NQMF=       0 NMMI=      5 NMMIF=      0
                NMic=       0 NMicF=      0.
                    Isotopes and Nuclear Properties:
 (Nuclear quadrupole moments (NQMom) in fm**2, nuclear magnetic moments (NMagM)
  in nuclear magnetons)

  Atom         1           2           3           4           5
 IAtWgt=          16          16           1           1          84
 AtmWgt=  15.9949146  15.9949146   1.0078250   1.0078250  83.9115064
 NucSpn=           0           0           1           1           0
 AtZEff=   0.0000000   0.0000000   0.0000000   0.0000000   0.0000000
 NQMom=    0.0000000   0.0000000   0.0000000   0.0000000   0.0000000
 NMagM=    0.0000000   0.0000000   2.7928460   2.7928460   0.0000000
 Leave Link  101 at Sat May  9 22:03:42 2020, MaxMem= 1073741824 cpu:       0.4
 (Enter /home/matheus/.gaussian/g09/l108.exe)
 Scan the potential surface.
 Variable   Value     No. Steps Step-Size
 -------- ----------- --------- ---------
     1       3.000000      20      0.1000
 A total of     21 points will be computed.
 Leave Link  108 at Sat May  9 22:03:42 2020, MaxMem= 1073741824 cpu:       0.0
 (Enter /home/matheus/.gaussian/g09/l202.exe)
 ---------------------------------------------------------------------------------------------------
                            Z-MATRIX (ANGSTROMS AND DEGREES)
   CD    Cent   Atom    N1       Length/X        N2       Alpha/Y        N3        Beta/Z          J
 ---------------------------------------------------------------------------------------------------
      1      1  O        0   0.000000          0.000000          0.725000
      2      2  O        0   0.000000          0.000000         -0.725000
      3      3  H        0   0.459360         -0.795635          1.023510
      4      4  H        0   0.000000          0.918721         -1.023510
      5      5  Kr       0   0.000000          3.000000          0.000000
 ---------------------------------------------------------------------------------------------------
                         Z-Matrix orientation:                         
 ---------------------------------------------------------------------
 Center     Atomic      Atomic             Coordinates (Angstroms)
 Number     Number       Type             X           Y           Z
 ---------------------------------------------------------------------
      1          8           0        0.000000    0.000000    0.725000
      2          8           0        0.000000    0.000000   -0.725000
      3          1           0        0.459360   -0.795635    1.023510
      4          1           0        0.000000    0.918721   -1.023510
      5         36           0        0.000000    3.000000    0.000000
 ---------------------------------------------------------------------
                    Distance matrix (angstroms):
                    1          2          3          4          5
     1  O    0.000000
     2  O    1.450000   0.000000
     3  H    0.966000   1.975180   0.000000
     4  H    1.975180   0.966000   2.709303   0.000000
     5  Kr   3.086361   3.086361   3.957958   2.319331   0.000000
 Stoichiometry    H2KrO2
 Framework group  C1[X(H2KrO2)]
 Deg. of freedom     9
 Full point group                 C1      NOp   1
 Largest Abelian subgroup         C1      NOp   1
 Largest concise Abelian subgroup C1      NOp   1
                         Standard orientation:                         
 ---------------------------------------------------------------------
 Center     Atomic      Atomic             Coordinates (Angstroms)
 Number     Number       Type             X           Y           Z
 ---------------------------------------------------------------------
      1          8           0        2.014667   -0.687062   -0.062307
      2          8           0        1.988768    0.761329    0.000872
      3          1           0        2.820911   -0.990551    0.374753
      4          1           0        1.064927    1.042640    0.024073
      5         36           0       -0.997592   -0.017951    0.002574
 ---------------------------------------------------------------------
 Rotational constants (GHZ):     26.4417565      2.3080537      2.1261727
 Leave Link  202 at Sat May  9 22:03:42 2020, MaxMem= 1073741824 cpu:       0.0
 (Enter /home/matheus/.gaussian/g09/l122.exe)
 Leave Link  122 at Sat May  9 22:03:42 2020, MaxMem= 1073741824 cpu:       0.0
 (Enter /home/matheus/.gaussian/g09/l301.exe)
 Standard basis: Aug-CC-pVTZ (5D, 7F)
 Ernie: Thresh=  0.10000D-02 Tol=  0.10000D-05 Strict=F.
 Ernie:  38 primitive shells out of 205 were deleted.
 There are   197 symmetry adapted basis functions of A   symmetry.
 Integral buffers will be    131072 words long.
 Raffenetti 2 integral format.
 Two-electron integral symmetry is turned on.
   197 basis functions,   415 primitive gaussians,   229 cartesian basis functions
    27 alpha electrons       27 beta electrons
       nuclear repulsion energy       148.3895250152 Hartrees.
 IExCor= 4639 DFT=T Ex+Corr=wB97XD ExCW=0 ScaHFX=  1.000000
 ScaDFX=  1.000000  1.000000  1.000000  1.000000 ScalE2=  1.000000  1.000000
 IRadAn=      5 IRanWt=     -1 IRanGd=            0 ICorTp=0
  HFx wShort=  0.000000 wLong=  0.200000 cFull=  0.222036 cShort=  0.000000 cLong=  0.777964
  DFx wShort=  0.000000 wLong=  0.200000 cFull=  0.000000 cShort=  0.000000 cLong=  1.000000
 NAtoms=    5 NActive=    5 NUniq=    5 SFac= 1.00D+00 NAtFMM=   60 NAOKFM=F Big=F
 R6Disp: Dispersion energy =        -0.0007854865 Hartrees.
 Nuclear repulsion after empirical dispersion term =      148.3887395288 Hartrees.
 Leave Link  301 at Sat May  9 22:03:42 2020, MaxMem= 1073741824 cpu:       0.2
 (Enter /home/matheus/.gaussian/g09/l302.exe)
 NPDir=0 NMtPBC=     1 NCelOv=     1 NCel=       1 NClECP=     1 NCelD=      1
         NCelK=      1 NCelE2=     1 NClLst=     1 CellRange=     0.0.
 One-electron integrals computed using PRISM.
 NBasis=   197 RedAO= T  NBF=   197
 NBsUse=   197 1.00D-06 NBFU=   197
 Precomputing XC quadrature grid using
 IXCGrd= 2 IRadAn=           5 IRanWt=          -1 IRanGd=           0 AccXCQ= 0.00D+00.
 NRdTot=     427 NPtTot=      123814 NUsed=      126881 NTot=      126913
 NSgBfM=   229   229   229   229   229 NAtAll=     5     5.
 Leave Link  302 at Sat May  9 22:03:42 2020, MaxMem= 1073741824 cpu:       1.0
 (Enter /home/matheus/.gaussian/g09/l303.exe)
 DipDrv:  MaxL=1.
 Leave Link  303 at Sat May  9 22:03:42 2020, MaxMem= 1073741824 cpu:       0.2
 (Enter /home/matheus/.gaussian/g09/l401.exe)
 Harris functional with IExCor= 4639 diagonalized for initial guess.
 ExpMin= 2.53D-02 ExpMax= 1.17D+07 ExpMxC= 1.33D+04 IAcc=3 IRadAn=         5 AccDes= 0.00D+00
 HarFok:  IExCor= 4639 AccDes= 0.00D+00 IRadAn=         5 IDoV= 1
 ScaDFX=  1.000000  1.000000  1.000000  1.000000
 FoFCou: FMM=F IPFlag=           0 FMFlag=      100000 FMFlg1=           0
         NFxFlg=           0 DoJE=T BraDBF=F KetDBF=T FulRan=T
         Omega=  0.000000  0.000000  1.000000  0.000000  0.000000 ICntrl=     500 IOpCl=  0
         NMat0=    1 NMatS0=    1 NMatT0=    0 NMatD0=    1 NMtDS0=    0 NMtDT0=    0
         I1Cent=           4 NGrid=           0.
 Petite list used in FoFCou.
 Harris En= -2876.48705069160    
 Initial guess orbital symmetries:
       Occupied  (A) (A) (A) (A) (A) (A) (A) (A) (A) (A) (A) (A)
                 (A) (A) (A) (A) (A) (A) (A) (A) (A) (A) (A) (A)
                 (A) (A) (A)
       Virtual   (A) (A) (A) (A) (A) (A) (A) (A) (A) (A) (A) (A)
                 (A) (A) (A) (A) (A) (A) (A) (A) (A) (A) (A) (A)
                 (A) (A) (A) (A) (A) (A) (A) (A) (A) (A) (A) (A)
                 (A) (A) (A) (A) (A) (A) (A) (A) (A) (A) (A) (A)
                 (A) (A) (A) (A) (A) (A) (A) (A) (A) (A) (A) (A)
                 (A) (A) (A) (A) (A) (A) (A) (A) (A) (A) (A) (A)
                 (A) (A) (A) (A) (A) (A) (A) (A) (A) (A) (A) (A)
                 (A) (A) (A) (A) (A) (A) (A) (A) (A) (A) (A) (A)
                 (A) (A) (A) (A) (A) (A) (A) (A) (A) (A) (A) (A)
                 (A) (A) (A) (A) (A) (A) (A) (A) (A) (A) (A) (A)
                 (A) (A) (A) (A) (A) (A) (A) (A) (A) (A) (A) (A)
                 (A) (A) (A) (A) (A) (A) (A) (A) (A) (A) (A) (A)
                 (A) (A) (A) (A) (A) (A) (A) (A) (A) (A) (A) (A)
                 (A) (A) (A) (A) (A) (A) (A) (A) (A) (A) (A) (A)
                 (A) (A)
 The electronic state of the initial guess is 1-A.
 Leave Link  401 at Sat May  9 22:03:43 2020, MaxMem= 1073741824 cpu:       4.4
 (Enter /home/matheus/.gaussian/g09/l502.exe)
 Closed shell SCF:
 Requested convergence on RMS density matrix=1.00D-08 within 128 cycles.
 Requested convergence on MAX density matrix=1.00D-06.
 Requested convergence on             energy=1.00D-06.
 No special actions if energy rises.
 Using DIIS extrapolation, IDIIS=  1040.
 Integral symmetry usage will be decided dynamically.
       126823 words used for storage of precomputed grid.
 IEnd=      305770 IEndB=      305770 NGot=  1073741824 MDV=  1073505365
 LenX=  1073505365 LenY=  1073452483
 Fock matrices will be formed incrementally for  20 cycles.

 Cycle   1  Pass 1  IDiag  1:
 FoFJK:  IHMeth= 1 ICntrl=     0 DoSepK=T KAlg= 1 I1Cent= 0 FoldK=F
 FoFCou: FMM=F IPFlag=           0 FMFlag=      100000 FMFlg1=           0
         NFxFlg=           0 DoJE=T BraDBF=F KetDBF=F FulRan=T
         Omega=  0.000000  0.000000  1.000000  0.000000  0.000000 ICntrl=     500 IOpCl=  0
         NMat0=    1 NMatS0=    1 NMatT0=    0 NMatD0=    1 NMtDS0=    0 NMtDT0=    0
         I1Cent=           0 NGrid=           0.
 Symmetry not used in FoFCou.
 E= -2904.93550450840    
 DIIS: error= 5.99D-02 at cycle   1 NSaved=   1.
 NSaved= 1 IEnMin= 1 EnMin= -2904.93550450840     IErMin= 1 ErrMin= 5.99D-02
 ErrMax= 5.99D-02 EMaxC= 1.00D-01 BMatC= 2.17D+00 BMatP= 2.17D+00
 IDIUse=3 WtCom= 4.01D-01 WtEn= 5.99D-01
 Coeff-Com:  0.100D+01
 Coeff-En:   0.100D+01
 Coeff:      0.100D+01
 Gap=     0.502 Goal=   None    Shift=    0.000
 GapD=    0.502 DampG=2.000 DampE=0.500 DampFc=1.0000 IDamp=-1.
 RMSDP=6.10D-03 MaxDP=3.66D-01              OVMax= 1.78D-01

 Cycle   2  Pass 1  IDiag  1:
 RMSU=  4.28D-03    CP:  1.03D+00
 FoFJK:  IHMeth= 1 ICntrl=     0 DoSepK=T KAlg= 1 I1Cent= 0 FoldK=F
 E= -2905.22786496355     Delta-E=       -0.292360455149 Rises=F Damp=F
 DIIS: error= 2.88D-02 at cycle   2 NSaved=   2.
 NSaved= 2 IEnMin= 2 EnMin= -2905.22786496355     IErMin= 2 ErrMin= 2.88D-02
 ErrMax= 2.88D-02 EMaxC= 1.00D-01 BMatC= 5.63D-01 BMatP= 2.17D+00
 IDIUse=3 WtCom= 7.12D-01 WtEn= 2.88D-01
 Coeff-Com:  0.330D+00 0.670D+00
 Coeff-En:   0.217D+00 0.783D+00
 Coeff:      0.297D+00 0.703D+00
 Gap=     0.442 Goal=   None    Shift=    0.000
 RMSDP=2.68D-03 MaxDP=1.56D-01 DE=-2.92D-01 OVMax= 7.57D-02

 Cycle   3  Pass 1  IDiag  1:
 RMSU=  5.57D-04    CP:  1.02D+00  5.80D-01
 FoFJK:  IHMeth= 1 ICntrl=     0 DoSepK=T KAlg= 1 I1Cent= 0 FoldK=F
 E= -2905.42045266331     Delta-E=       -0.192587699756 Rises=F Damp=F
 DIIS: error= 6.37D-03 at cycle   3 NSaved=   3.
 NSaved= 3 IEnMin= 3 EnMin= -2905.42045266331     IErMin= 3 ErrMin= 6.37D-03
 ErrMax= 6.37D-03 EMaxC= 1.00D-01 BMatC= 1.71D-02 BMatP= 5.63D-01
 IDIUse=3 WtCom= 9.36D-01 WtEn= 6.37D-02
 Coeff-Com:  0.353D-01 0.185D+00 0.779D+00
 Coeff-En:   0.000D+00 0.000D+00 0.100D+01
 Coeff:      0.331D-01 0.174D+00 0.793D+00
 Gap=     0.407 Goal=   None    Shift=    0.000
 RMSDP=4.79D-04 MaxDP=2.01D-02 DE=-1.93D-01 OVMax= 2.54D-02

 Cycle   4  Pass 1  IDiag  1:
 RMSU=  2.37D-04    CP:  1.02D+00  6.34D-01  8.82D-01
 FoFJK:  IHMeth= 1 ICntrl=     0 DoSepK=T KAlg= 1 I1Cent= 0 FoldK=F
 E= -2905.42810777978     Delta-E=       -0.007655116470 Rises=F Damp=F
 DIIS: error= 2.83D-03 at cycle   4 NSaved=   4.
 NSaved= 4 IEnMin= 4 EnMin= -2905.42810777978     IErMin= 4 ErrMin= 2.83D-03
 ErrMax= 2.83D-03 EMaxC= 1.00D-01 BMatC= 1.98D-03 BMatP= 1.71D-02
 IDIUse=3 WtCom= 9.72D-01 WtEn= 2.83D-02
 Coeff-Com: -0.816D-03 0.511D-01 0.384D+00 0.566D+00
 Coeff-En:   0.000D+00 0.000D+00 0.000D+00 0.100D+01
 Coeff:     -0.793D-03 0.496D-01 0.373D+00 0.578D+00
 Gap=     0.392 Goal=   None    Shift=    0.000
 RMSDP=1.24D-04 MaxDP=7.25D-03 DE=-7.66D-03 OVMax= 7.61D-03

 Cycle   5  Pass 1  IDiag  1:
 RMSU=  3.95D-05    CP:  1.02D+00  6.33D-01  9.27D-01  6.89D-01
 FoFJK:  IHMeth= 1 ICntrl=     0 DoSepK=T KAlg= 1 I1Cent= 0 FoldK=F
 E= -2905.42929404643     Delta-E=       -0.001186266653 Rises=F Damp=F
 DIIS: error= 3.45D-04 at cycle   5 NSaved=   5.
 NSaved= 5 IEnMin= 5 EnMin= -2905.42929404643     IErMin= 5 ErrMin= 3.45D-04
 ErrMax= 3.45D-04 EMaxC= 1.00D-01 BMatC= 3.76D-05 BMatP= 1.98D-03
 IDIUse=3 WtCom= 9.97D-01 WtEn= 3.45D-03
 Coeff-Com: -0.105D-02 0.174D-01 0.148D+00 0.243D+00 0.593D+00
 Coeff-En:   0.000D+00 0.000D+00 0.000D+00 0.000D+00 0.100D+01
 Coeff:     -0.104D-02 0.173D-01 0.147D+00 0.242D+00 0.594D+00
 Gap=     0.390 Goal=   None    Shift=    0.000
 RMSDP=2.24D-05 MaxDP=1.00D-03 DE=-1.19D-03 OVMax= 1.81D-03

 Cycle   6  Pass 1  IDiag  1:
 RMSU=  1.52D-05    CP:  1.02D+00  6.33D-01  9.31D-01  7.04D-01  9.68D-01
 FoFJK:  IHMeth= 1 ICntrl=     0 DoSepK=T KAlg= 1 I1Cent= 0 FoldK=F
 E= -2905.42931448680     Delta-E=       -0.000020440370 Rises=F Damp=F
 DIIS: error= 1.67D-04 at cycle   6 NSaved=   6.
 NSaved= 6 IEnMin= 6 EnMin= -2905.42931448680     IErMin= 6 ErrMin= 1.67D-04
 ErrMax= 1.67D-04 EMaxC= 1.00D-01 BMatC= 7.73D-06 BMatP= 3.76D-05
 IDIUse=3 WtCom= 9.98D-01 WtEn= 1.67D-03
 Coeff-Com: -0.371D-03-0.536D-02-0.279D-01-0.342D-01 0.303D+00 0.765D+00
 Coeff-En:   0.000D+00 0.000D+00 0.000D+00 0.000D+00 0.122D+00 0.878D+00
 Coeff:     -0.370D-03-0.535D-02-0.279D-01-0.342D-01 0.303D+00 0.765D+00
 Gap=     0.390 Goal=   None    Shift=    0.000
 RMSDP=1.22D-05 MaxDP=4.52D-04 DE=-2.04D-05 OVMax= 6.44D-04

 Cycle   7  Pass 1  IDiag  1:
 RMSU=  4.02D-06    CP:  1.02D+00  6.33D-01  9.38D-01  7.13D-01  1.12D+00
                    CP:  9.44D-01
 FoFJK:  IHMeth= 1 ICntrl=     0 DoSepK=T KAlg= 1 I1Cent= 0 FoldK=F
 E= -2905.42932016572     Delta-E=       -0.000005678916 Rises=F Damp=F
 DIIS: error= 1.28D-05 at cycle   7 NSaved=   7.
 NSaved= 7 IEnMin= 7 EnMin= -2905.42932016572     IErMin= 7 ErrMin= 1.28D-05
 ErrMax= 1.28D-05 EMaxC= 1.00D-01 BMatC= 4.29D-08 BMatP= 7.73D-06
 IDIUse=1 WtCom= 1.00D+00 WtEn= 0.00D+00
 Coeff-Com:  0.161D-04-0.900D-03-0.682D-02-0.976D-02-0.563D-02 0.502D-01
 Coeff-Com:  0.973D+00
 Coeff:      0.161D-04-0.900D-03-0.682D-02-0.976D-02-0.563D-02 0.502D-01
 Coeff:      0.973D+00
 Gap=     0.390 Goal=   None    Shift=    0.000
 RMSDP=2.26D-06 MaxDP=7.36D-05 DE=-5.68D-06 OVMax= 1.56D-04

 Cycle   8  Pass 1  IDiag  1:
 RMSU=  8.67D-07    CP:  1.02D+00  6.33D-01  9.38D-01  7.15D-01  1.14D+00
                    CP:  9.89D-01  1.15D+00
 FoFJK:  IHMeth= 1 ICntrl=     0 DoSepK=T KAlg= 1 I1Cent= 0 FoldK=F
 E= -2905.42932025322     Delta-E=       -0.000000087506 Rises=F Damp=F
 DIIS: error= 2.07D-06 at cycle   8 NSaved=   8.
 NSaved= 8 IEnMin= 8 EnMin= -2905.42932025322     IErMin= 8 ErrMin= 2.07D-06
 ErrMax= 2.07D-06 EMaxC= 1.00D-01 BMatC= 2.41D-09 BMatP= 4.29D-08
 IDIUse=1 WtCom= 1.00D+00 WtEn= 0.00D+00
 Coeff-Com:  0.125D-04 0.878D-04 0.326D-03 0.138D-03-0.129D-01-0.257D-01
 Coeff-Com:  0.678D-01 0.970D+00
 Coeff:      0.125D-04 0.878D-04 0.326D-03 0.138D-03-0.129D-01-0.257D-01
 Coeff:      0.678D-01 0.970D+00
 Gap=     0.390 Goal=   None    Shift=    0.000
 RMSDP=5.65D-07 MaxDP=1.61D-05 DE=-8.75D-08 OVMax= 4.42D-05

 Cycle   9  Pass 1  IDiag  1:
 RMSU=  1.60D-07    CP:  1.02D+00  6.33D-01  9.38D-01  7.15D-01  1.15D+00
                    CP:  9.96D-01  1.21D+00  1.24D+00
 FoFJK:  IHMeth= 1 ICntrl=     0 DoSepK=T KAlg= 1 I1Cent= 0 FoldK=F
 E= -2905.42932025865     Delta-E=       -0.000000005432 Rises=F Damp=F
 DIIS: error= 7.14D-07 at cycle   9 NSaved=   9.
 NSaved= 9 IEnMin= 9 EnMin= -2905.42932025865     IErMin= 9 ErrMin= 7.14D-07
 ErrMax= 7.14D-07 EMaxC= 1.00D-01 BMatC= 2.19D-10 BMatP= 2.41D-09
 IDIUse=1 WtCom= 1.00D+00 WtEn= 0.00D+00
 Coeff-Com: -0.458D-06 0.596D-04 0.442D-03 0.480D-03-0.952D-03-0.473D-02
 Coeff-Com: -0.536D-01 0.688D-01 0.990D+00
 Coeff:     -0.458D-06 0.596D-04 0.442D-03 0.480D-03-0.952D-03-0.473D-02
 Coeff:     -0.536D-01 0.688D-01 0.990D+00
 Gap=     0.390 Goal=   None    Shift=    0.000
 RMSDP=1.51D-07 MaxDP=4.49D-06 DE=-5.43D-09 OVMax= 1.57D-05

 Cycle  10  Pass 1  IDiag  1:
 RMSU=  5.54D-08    CP:  1.02D+00  6.33D-01  9.38D-01  7.15D-01  1.15D+00
                    CP:  9.98D-01  1.22D+00  1.32D+00  1.20D+00
 FoFJK:  IHMeth= 1 ICntrl=     0 DoSepK=T KAlg= 1 I1Cent= 0 FoldK=F
 E= -2905.42932025921     Delta-E=       -0.000000000557 Rises=F Damp=F
 DIIS: error= 2.72D-07 at cycle  10 NSaved=  10.
 NSaved=10 IEnMin=10 EnMin= -2905.42932025921     IErMin=10 ErrMin= 2.72D-07
 ErrMax= 2.72D-07 EMaxC= 1.00D-01 BMatC= 1.91D-11 BMatP= 2.19D-10
 IDIUse=1 WtCom= 1.00D+00 WtEn= 0.00D+00
 Coeff-Com: -0.562D-06-0.218D-05-0.560D-05-0.276D-05 0.102D-02 0.215D-02
 Coeff-Com: -0.454D-02-0.876D-01 0.521D-01 0.104D+01
 Coeff:     -0.562D-06-0.218D-05-0.560D-05-0.276D-05 0.102D-02 0.215D-02
 Coeff:     -0.454D-02-0.876D-01 0.521D-01 0.104D+01
 Gap=     0.390 Goal=   None    Shift=    0.000
 RMSDP=4.90D-08 MaxDP=1.04D-06 DE=-5.57D-10 OVMax= 6.88D-06

 Cycle  11  Pass 1  IDiag  1:
 RMSU=  1.59D-08    CP:  1.02D+00  6.33D-01  9.38D-01  7.15D-01  1.15D+00
                    CP:  9.98D-01  1.22D+00  1.33D+00  1.33D+00  1.36D+00
 FoFJK:  IHMeth= 1 ICntrl=     0 DoSepK=T KAlg= 1 I1Cent= 0 FoldK=F
 E= -2905.42932025926     Delta-E=       -0.000000000050 Rises=F Damp=F
 DIIS: error= 1.02D-07 at cycle  11 NSaved=  11.
 NSaved=11 IEnMin=11 EnMin= -2905.42932025926     IErMin=11 ErrMin= 1.02D-07
 ErrMax= 1.02D-07 EMaxC= 1.00D-01 BMatC= 2.41D-12 BMatP= 1.91D-11
 IDIUse=1 WtCom= 1.00D+00 WtEn= 0.00D+00
 Coeff-Com:  0.240D-06-0.467D-05-0.400D-04-0.302D-04-0.239D-04 0.202D-03
 Coeff-Com:  0.604D-02-0.394D-02-0.821D-01-0.966D-01 0.118D+01
 Coeff:      0.240D-06-0.467D-05-0.400D-04-0.302D-04-0.239D-04 0.202D-03
 Coeff:      0.604D-02-0.394D-02-0.821D-01-0.966D-01 0.118D+01
 Gap=     0.390 Goal=   None    Shift=    0.000
 RMSDP=2.11D-08 MaxDP=5.00D-07 DE=-5.05D-11 OVMax= 3.18D-06

 Cycle  12  Pass 1  IDiag  1:
 RMSU=  4.91D-09    CP:  1.02D+00  6.33D-01  9.38D-01  7.15D-01  1.15D+00
                    CP:  9.98D-01  1.22D+00  1.33D+00  1.37D+00  1.55D+00
                    CP:  1.46D+00
 FoFJK:  IHMeth= 1 ICntrl=     0 DoSepK=T KAlg= 1 I1Cent= 0 FoldK=F
 E= -2905.42932025928     Delta-E=       -0.000000000018 Rises=F Damp=F
 DIIS: error= 4.03D-08 at cycle  12 NSaved=  12.
 NSaved=12 IEnMin=12 EnMin= -2905.42932025928     IErMin=12 ErrMin= 4.03D-08
 ErrMax= 4.03D-08 EMaxC= 1.00D-01 BMatC= 1.86D-13 BMatP= 2.41D-12
 IDIUse=1 WtCom= 1.00D+00 WtEn= 0.00D+00
 Coeff-Com:  0.113D-07-0.153D-06-0.595D-06-0.327D-05-0.105D-03-0.215D-03
 Coeff-Com:  0.526D-03 0.730D-02 0.848D-03-0.903D-01-0.112D+00 0.119D+01
 Coeff:      0.113D-07-0.153D-06-0.595D-06-0.327D-05-0.105D-03-0.215D-03
 Coeff:      0.526D-03 0.730D-02 0.848D-03-0.903D-01-0.112D+00 0.119D+01
 Gap=     0.390 Goal=   None    Shift=    0.000
 RMSDP=8.20D-09 MaxDP=1.87D-07 DE=-1.77D-11 OVMax= 1.20D-06

 SCF Done:  E(RwB97XD) =  -2905.42932026     A.U. after   12 cycles
             Convg  =    0.8198D-08             -V/T =  2.0015
 KE= 2.900973378000D+03 PE=-7.235225217822D+03 EE= 1.280433780034D+03
 Leave Link  502 at Sat May  9 22:04:26 2020, MaxMem= 1073741824 cpu:     346.1
 (Enter /home/matheus/.gaussian/g09/l601.exe)
 Copying SCF densities to generalized density rwf, IOpCl= 0 IROHF=0.

 **********************************************************************

            Population analysis using the SCF density.

 **********************************************************************

 Orbital symmetries:
       Occupied  (A) (A) (A) (A) (A) (A) (A) (A) (A) (A) (A) (A)
                 (A) (A) (A) (A) (A) (A) (A) (A) (A) (A) (A) (A)
                 (A) (A) (A)
       Virtual   (A) (A) (A) (A) (A) (A) (A) (A) (A) (A) (A) (A)
                 (A) (A) (A) (A) (A) (A) (A) (A) (A) (A) (A) (A)
                 (A) (A) (A) (A) (A) (A) (A) (A) (A) (A) (A) (A)
                 (A) (A) (A) (A) (A) (A) (A) (A) (A) (A) (A) (A)
                 (A) (A) (A) (A) (A) (A) (A) (A) (A) (A) (A) (A)
                 (A) (A) (A) (A) (A) (A) (A) (A) (A) (A) (A) (A)
                 (A) (A) (A) (A) (A) (A) (A) (A) (A) (A) (A) (A)
                 (A) (A) (A) (A) (A) (A) (A) (A) (A) (A) (A) (A)
                 (A) (A) (A) (A) (A) (A) (A) (A) (A) (A) (A) (A)
                 (A) (A) (A) (A) (A) (A) (A) (A) (A) (A) (A) (A)
                 (A) (A) (A) (A) (A) (A) (A) (A) (A) (A) (A) (A)
                 (A) (A) (A) (A) (A) (A) (A) (A) (A) (A) (A) (A)
                 (A) (A) (A) (A) (A) (A) (A) (A) (A) (A) (A) (A)
                 (A) (A) (A) (A) (A) (A) (A) (A) (A) (A) (A) (A)
                 (A) (A)
 The electronic state is 1-A.
 Alpha  occ. eigenvalues -- -513.06828 -67.33513 -60.88398 -60.88383 -60.88376
 Alpha  occ. eigenvalues --  -19.31563 -19.31152  -9.78821  -7.48155  -7.48106
 Alpha  occ. eigenvalues --   -7.48085  -3.34892  -3.34882  -3.34866  -3.34826
 Alpha  occ. eigenvalues --   -3.34824  -1.21901  -1.01036  -0.99437  -0.63403
 Alpha  occ. eigenvalues --   -0.59443  -0.50355  -0.48026  -0.47435  -0.46874
 Alpha  occ. eigenvalues --   -0.43116  -0.35438
 Alpha virt. eigenvalues --    0.03579   0.04218   0.07774   0.09810   0.10714
 Alpha virt. eigenvalues --    0.11666   0.13510   0.14201   0.16818   0.17634
 Alpha virt. eigenvalues --    0.18015   0.19264   0.20679   0.22761   0.23322
 Alpha virt. eigenvalues --    0.24312   0.25989   0.28248   0.30517   0.33100
 Alpha virt. eigenvalues --    0.33684   0.34436   0.36245   0.38589   0.39693
 Alpha virt. eigenvalues --    0.40172   0.41700   0.47595   0.51257   0.54179
 Alpha virt. eigenvalues --    0.55946   0.57969   0.62066   0.64480   0.67559
 Alpha virt. eigenvalues --    0.69660   0.70408   0.71510   0.72069   0.74356
 Alpha virt. eigenvalues --    0.74805   0.76154   0.77330   0.78242   0.80916
 Alpha virt. eigenvalues --    0.82985   0.83699   0.86000   0.88061   0.89123
 Alpha virt. eigenvalues --    0.91318   0.92636   0.94823   0.96270   0.97546
 Alpha virt. eigenvalues --    1.00787   1.01580   1.02713   1.05261   1.08154
 Alpha virt. eigenvalues --    1.10102   1.11243   1.14233   1.16537   1.19266
 Alpha virt. eigenvalues --    1.25977   1.29404   1.32832   1.36802   1.38411
 Alpha virt. eigenvalues --    1.42706   1.49288   1.50967   1.54213   1.59051
 Alpha virt. eigenvalues --    1.60749   1.74556   1.79580   1.82375   1.91522
 Alpha virt. eigenvalues --    1.96577   1.98806   2.00892   2.10984   2.12315
 Alpha virt. eigenvalues --    2.13444   2.17185   2.18071   2.19139   2.21478
 Alpha virt. eigenvalues --    2.24356   2.27571   2.28369   2.29589   2.31481
 Alpha virt. eigenvalues --    2.34606   2.36513   2.42363   2.44847   2.45969
 Alpha virt. eigenvalues --    2.46121   2.49181   2.51261   2.52378   2.54450
 Alpha virt. eigenvalues --    2.56261   2.58739   2.63275   2.63475   2.67312
 Alpha virt. eigenvalues --    2.70616   2.71716   2.77117   2.82069   2.86529
 Alpha virt. eigenvalues --    2.92864   3.03727   3.06914   3.12510   3.54898
 Alpha virt. eigenvalues --    3.66877   3.83554   3.93610   4.00293   4.05188
 Alpha virt. eigenvalues --    4.05362   4.13922   4.15788   4.20275   4.23191
 Alpha virt. eigenvalues --    4.41455   4.45267   4.50786   4.52107   4.70920
 Alpha virt. eigenvalues --    4.90644   4.96836   4.99697   5.04509   5.09228
 Alpha virt. eigenvalues --    5.30130   5.41571   5.81498   5.99765   6.05058
 Alpha virt. eigenvalues --    6.09968   6.31222   6.31523   6.38556   6.48051
 Alpha virt. eigenvalues --    6.65754   6.70241   6.73428   6.80197   6.83693
 Alpha virt. eigenvalues --    6.84616   6.89706   6.90929   6.93855   6.98220
 Alpha virt. eigenvalues --    7.01854   7.20979   7.23250   7.36300   7.65824
 Alpha virt. eigenvalues --    7.81226   8.05208   8.11080  14.03808  14.60334
          Condensed to atoms (all electrons):
              1          2          3          4          5
     1  O    8.150429  -0.166159   0.216607   0.003763  -0.025017
     2  O   -0.166159   8.263606   0.005747   0.193126  -0.018425
     3  H    0.216607   0.005747   0.571413   0.003948   0.003201
     4  H    0.003763   0.193126   0.003948   0.548596  -0.004127
     5  Kr  -0.025017  -0.018425   0.003201  -0.004127  36.040627
 Mulliken atomic charges:
              1
     1  O   -0.179624
     2  O   -0.277896
     3  H    0.199085
     4  H    0.254693
     5  Kr   0.003741
 Sum of Mulliken atomic charges =   0.00000
 Mulliken charges with hydrogens summed into heavy atoms:
              1
     1  O    0.019462
     2  O   -0.023203
     5  Kr   0.003741
 Sum of Mulliken charges with hydrogens summed into heavy atoms =   0.00000
          Condensed to fragments (all electrons):
     1      -0.003741
     2       0.003741
 Electronic spatial extent (au):  <R**2>=            491.3222
 Charge=              0.0000 electrons
 Dipole moment (field-independent basis, Debye):
    X=             -0.3724    Y=             -0.3221    Z=              0.7709  Tot=              0.9147
 Quadrupole moment (field-independent basis, Debye-Ang):
   XX=            -27.4443   YY=            -28.2231   ZZ=            -30.2500
   XY=             -3.7000   XZ=              2.3987   YZ=             -0.8318
 Traceless Quadrupole moment (field-independent basis, Debye-Ang):
   XX=              1.1948   YY=              0.4160   ZZ=             -1.6108
   XY=             -3.7000   XZ=              2.3987   YZ=             -0.8318
 Octapole moment (field-independent basis, Debye-Ang**2):
  XXX=             -5.2347  YYY=             -0.7402  ZZZ=              0.3417  XYY=             -4.1923
  XXY=            -15.2314  XXZ=              7.0429  XZZ=             -7.6424  YZZ=             -0.6745
  YYZ=              0.9728  XYZ=             -2.5274
 Hexadecapole moment (field-independent basis, Debye-Ang**3):
 XXXX=           -361.4952 YYYY=            -63.6368 ZZZZ=            -29.7960 XXXY=            -46.3663
 XXXZ=             20.9831 YYYX=             -5.5199 YYYZ=             -1.0451 ZZZX=              1.1720
 ZZZY=             -0.5265 XXYY=            -75.2115 XXZZ=            -77.2150 YYZZ=            -17.1838
 XXYZ=             -7.4686 YYXZ=              2.8187 ZZXY=             -1.3347
 N-N= 1.483887395288D+02 E-N=-7.235225216431D+03  KE= 2.900973378000D+03
 No NMR shielding tensors so no spin-rotation constants.
 Leave Link  601 at Sat May  9 22:04:26 2020, MaxMem= 1073741824 cpu:       0.8
 (Enter /home/matheus/.gaussian/g09/l122.exe)
 Counterpoise: doing DCBS calculation for fragment   1 NewBq=T
 Leave Link  122 at Sat May  9 22:04:26 2020, MaxMem= 1073741824 cpu:       0.0
 (Enter /home/matheus/.gaussian/g09/l301.exe)
 Basis read from rwf:  (5D, 7F)
 No pseudopotential information found on rwf file.
 There are   197 symmetry adapted basis functions of A   symmetry.
 Integral buffers will be    131072 words long.
 Raffenetti 2 integral format.
 Two-electron integral symmetry is turned on.
   197 basis functions,   415 primitive gaussians,   229 cartesian basis functions
     9 alpha electrons        9 beta electrons
       nuclear repulsion energy        36.6035600706 Hartrees.
 IExCor= 4639 DFT=T Ex+Corr=wB97XD ExCW=0 ScaHFX=  1.000000
 ScaDFX=  1.000000  1.000000  1.000000  1.000000 ScalE2=  1.000000  1.000000
 IRadAn=      5 IRanWt=     -1 IRanGd=            0 ICorTp=0
  HFx wShort=  0.000000 wLong=  0.200000 cFull=  0.222036 cShort=  0.000000 cLong=  0.777964
  DFx wShort=  0.000000 wLong=  0.200000 cFull=  0.000000 cShort=  0.000000 cLong=  1.000000
 NAtoms=    5 NActive=    5 NUniq=    5 SFac= 1.00D+00 NAtFMM=   60 NAOKFM=F Big=F
 R6Disp: Dispersion energy =        -0.0002048785 Hartrees.
 Nuclear repulsion after empirical dispersion term =       36.6033551921 Hartrees.
 No density basis found on file   718.
 Leave Link  301 at Sat May  9 22:04:26 2020, MaxMem= 1073741824 cpu:       0.2
 (Enter /home/matheus/.gaussian/g09/l302.exe)
 NPDir=0 NMtPBC=     1 NCelOv=     1 NCel=       1 NClECP=     1 NCelD=      1
         NCelK=      1 NCelE2=     1 NClLst=     1 CellRange=     0.0.
 One-electron integrals computed using PRISM.
 NBasis=   197 RedAO= T  NBF=   197
 NBsUse=   197 1.00D-06 NBFU=   197
 Precomputing XC quadrature grid using
 IXCGrd= 2 IRadAn=           5 IRanWt=          -1 IRanGd=           0 AccXCQ= 0.00D+00.
 NRdTot=     427 NPtTot=      123814 NUsed=      126881 NTot=      126913
 NSgBfM=   229   229   229   229   229 NAtAll=     5     5.
 Leave Link  302 at Sat May  9 22:04:27 2020, MaxMem= 1073741824 cpu:       1.0
 (Enter /home/matheus/.gaussian/g09/l303.exe)
 DipDrv:  MaxL=1.
 Leave Link  303 at Sat May  9 22:04:27 2020, MaxMem= 1073741824 cpu:       0.2
 (Enter /home/matheus/.gaussian/g09/l401.exe)
 Harris functional with IExCor= 4639 diagonalized for initial guess.
 ExpMin= 2.53D-02 ExpMax= 1.17D+07 ExpMxC= 1.33D+04 IAcc=3 IRadAn=         5 AccDes= 0.00D+00
 HarFok:  IExCor= 4639 AccDes= 0.00D+00 IRadAn=         5 IDoV= 1
 ScaDFX=  1.000000  1.000000  1.000000  1.000000
 FoFCou: FMM=F IPFlag=           0 FMFlag=      100000 FMFlg1=           0
         NFxFlg=           0 DoJE=T BraDBF=F KetDBF=T FulRan=T
         Omega=  0.000000  0.000000  1.000000  0.000000  0.000000 ICntrl=     500 IOpCl=  0
         NMat0=    1 NMatS0=    1 NMatT0=    0 NMatD0=    1 NMtDS0=    0 NMtDT0=    0
         I1Cent=           4 NGrid=           0.
 Petite list used in FoFCou.
 Harris En= -146.292343313811    
 Initial guess orbital symmetries:
       Occupied  (A) (A) (A) (A) (A) (A) (A) (A) (A)
       Virtual   (A) (A) (A) (A) (A) (A) (A) (A) (A) (A) (A) (A)
                 (A) (A) (A) (A) (A) (A) (A) (A) (A) (A) (A) (A)
                 (A) (A) (A) (A) (A) (A) (A) (A) (A) (A) (A) (A)
                 (A) (A) (A) (A) (A) (A) (A) (A) (A) (A) (A) (A)
                 (A) (A) (A) (A) (A) (A) (A) (A) (A) (A) (A) (A)
                 (A) (A) (A) (A) (A) (A) (A) (A) (A) (A) (A) (A)
                 (A) (A) (A) (A) (A) (A) (A) (A) (A) (A) (A) (A)
                 (A) (A) (A) (A) (A) (A) (A) (A) (A) (A) (A) (A)
                 (A) (A) (A) (A) (A) (A) (A) (A) (A) (A) (A) (A)
                 (A) (A) (A) (A) (A) (A) (A) (A) (A) (A) (A) (A)
                 (A) (A) (A) (A) (A) (A) (A) (A) (A) (A) (A) (A)
                 (A) (A) (A) (A) (A) (A) (A) (A) (A) (A) (A) (A)
                 (A) (A) (A) (A) (A) (A) (A) (A) (A) (A) (A) (A)
                 (A) (A) (A) (A) (A) (A) (A) (A) (A) (A) (A) (A)
                 (A) (A) (A) (A) (A) (A) (A) (A) (A) (A) (A) (A)
                 (A) (A) (A) (A) (A) (A) (A) (A)
 The electronic state of the initial guess is 1-A.
 Leave Link  401 at Sat May  9 22:04:27 2020, MaxMem= 1073741824 cpu:       4.7
 (Enter /home/matheus/.gaussian/g09/l502.exe)
 Closed shell SCF:
 Requested convergence on RMS density matrix=1.00D-08 within 128 cycles.
 Requested convergence on MAX density matrix=1.00D-06.
 Requested convergence on             energy=1.00D-06.
 No special actions if energy rises.
 Using DIIS extrapolation, IDIIS=  1040.
 Integral symmetry usage will be decided dynamically.
       126823 words used for storage of precomputed grid.
 IEnd=      305770 IEndB=      305770 NGot=  1073741824 MDV=  1073505365
 LenX=  1073505365 LenY=  1073452483
 Fock matrices will be formed incrementally for  20 cycles.

 Cycle   1  Pass 1  IDiag  1:
 FoFJK:  IHMeth= 1 ICntrl=     0 DoSepK=T KAlg= 1 I1Cent= 0 FoldK=F
 FoFCou: FMM=F IPFlag=           0 FMFlag=      100000 FMFlg1=           0
         NFxFlg=           0 DoJE=T BraDBF=F KetDBF=F FulRan=T
         Omega=  0.000000  0.000000  1.000000  0.000000  0.000000 ICntrl=     500 IOpCl=  0
         NMat0=    1 NMatS0=    1 NMatT0=    0 NMatD0=    1 NMtDS0=    0 NMtDT0=    0
         I1Cent=           0 NGrid=           0.
 Symmetry not used in FoFCou.
 E= -151.477275661818    
 DIIS: error= 3.29D-02 at cycle   1 NSaved=   1.
 NSaved= 1 IEnMin= 1 EnMin= -151.477275661818     IErMin= 1 ErrMin= 3.29D-02
 ErrMax= 3.29D-02 EMaxC= 1.00D-01 BMatC= 2.99D-01 BMatP= 2.99D-01
 IDIUse=3 WtCom= 6.71D-01 WtEn= 3.29D-01
 Coeff-Com:  0.100D+01
 Coeff-En:   0.100D+01
 Coeff:      0.100D+01
 Gap=     0.501 Goal=   None    Shift=    0.000
 GapD=    0.501 DampG=2.000 DampE=0.500 DampFc=1.0000 IDamp=-1.
 RMSDP=2.34D-03 MaxDP=1.03D-01              OVMax= 1.10D-01

 Cycle   2  Pass 1  IDiag  1:
 RMSU=  1.63D-03    CP:  9.55D-01
 FoFJK:  IHMeth= 1 ICntrl=     0 DoSepK=T KAlg= 1 I1Cent= 0 FoldK=F
 E= -151.506533303103     Delta-E=       -0.029257641284 Rises=F Damp=F
 DIIS: error= 1.68D-02 at cycle   2 NSaved=   2.
 NSaved= 2 IEnMin= 2 EnMin= -151.506533303103     IErMin= 2 ErrMin= 1.68D-02
 ErrMax= 1.68D-02 EMaxC= 1.00D-01 BMatC= 8.97D-02 BMatP= 2.99D-01
 IDIUse=3 WtCom= 8.32D-01 WtEn= 1.68D-01
 Coeff-Com:  0.331D+00 0.669D+00
 Coeff-En:   0.367D+00 0.633D+00
 Coeff:      0.337D+00 0.663D+00
 Gap=     0.440 Goal=   None    Shift=    0.000
 RMSDP=9.88D-04 MaxDP=4.84D-02 DE=-2.93D-02 OVMax= 5.88D-02

 Cycle   3  Pass 1  IDiag  1:
 RMSU=  3.66D-04    CP:  9.75D-01  6.44D-01
 FoFJK:  IHMeth= 1 ICntrl=     0 DoSepK=T KAlg= 1 I1Cent= 0 FoldK=F
 E= -151.554886360154     Delta-E=       -0.048353057051 Rises=F Damp=F
 DIIS: error= 4.62D-03 at cycle   3 NSaved=   3.
 NSaved= 3 IEnMin= 3 EnMin= -151.554886360154     IErMin= 3 ErrMin= 4.62D-03
 ErrMax= 4.62D-03 EMaxC= 1.00D-01 BMatC= 6.42D-03 BMatP= 8.97D-02
 IDIUse=3 WtCom= 9.54D-01 WtEn= 4.62D-02
 Coeff-Com:  0.118D-01 0.219D+00 0.769D+00
 Coeff-En:   0.000D+00 0.000D+00 0.100D+01
 Coeff:      0.113D-01 0.209D+00 0.780D+00
 Gap=     0.392 Goal=   None    Shift=    0.000
 RMSDP=2.77D-04 MaxDP=1.24D-02 DE=-4.84D-02 OVMax= 1.64D-02

 Cycle   4  Pass 1  IDiag  1:
 RMSU=  6.33D-05    CP:  9.69D-01  7.47D-01  8.17D-01
 FoFJK:  IHMeth= 1 ICntrl=     0 DoSepK=T KAlg= 1 I1Cent= 0 FoldK=F
 E= -151.558983509471     Delta-E=       -0.004097149318 Rises=F Damp=F
 DIIS: error= 4.17D-04 at cycle   4 NSaved=   4.
 NSaved= 4 IEnMin= 4 EnMin= -151.558983509471     IErMin= 4 ErrMin= 4.17D-04
 ErrMax= 4.17D-04 EMaxC= 1.00D-01 BMatC= 4.93D-05 BMatP= 6.42D-03
 IDIUse=3 WtCom= 9.96D-01 WtEn= 4.17D-03
 Coeff-Com: -0.729D-03 0.242D-02 0.867D-01 0.912D+00
 Coeff-En:   0.000D+00 0.000D+00 0.000D+00 0.100D+01
 Coeff:     -0.726D-03 0.241D-02 0.863D-01 0.912D+00
 Gap=     0.389 Goal=   None    Shift=    0.000
 RMSDP=3.50D-05 MaxDP=1.97D-03 DE=-4.10D-03 OVMax= 1.46D-03

 Cycle   5  Pass 1  IDiag  1:
 RMSU=  1.19D-05    CP:  9.70D-01  7.41D-01  8.60D-01  1.14D+00
 FoFJK:  IHMeth= 1 ICntrl=     0 DoSepK=T KAlg= 1 I1Cent= 0 FoldK=F
 E= -151.559019434081     Delta-E=       -0.000035924610 Rises=F Damp=F
 DIIS: error= 3.96D-05 at cycle   5 NSaved=   5.
 NSaved= 5 IEnMin= 5 EnMin= -151.559019434081     IErMin= 5 ErrMin= 3.96D-05
 ErrMax= 3.96D-05 EMaxC= 1.00D-01 BMatC= 4.04D-07 BMatP= 4.93D-05
 IDIUse=1 WtCom= 1.00D+00 WtEn= 0.00D+00
 Coeff-Com: -0.486D-03-0.927D-02-0.324D-01-0.224D-01 0.106D+01
 Coeff:     -0.486D-03-0.927D-02-0.324D-01-0.224D-01 0.106D+01
 Gap=     0.389 Goal=   None    Shift=    0.000
 RMSDP=8.61D-06 MaxDP=3.62D-04 DE=-3.59D-05 OVMax= 5.99D-04

 Cycle   6  Pass 1  IDiag  1:
 RMSU=  2.24D-06    CP:  9.70D-01  7.41D-01  8.67D-01  1.20D+00  1.24D+00
 FoFJK:  IHMeth= 1 ICntrl=     0 DoSepK=T KAlg= 1 I1Cent= 0 FoldK=F
 E= -151.559020407283     Delta-E=       -0.000000973202 Rises=F Damp=F
 DIIS: error= 8.92D-06 at cycle   6 NSaved=   6.
 NSaved= 6 IEnMin= 6 EnMin= -151.559020407283     IErMin= 6 ErrMin= 8.92D-06
 ErrMax= 8.92D-06 EMaxC= 1.00D-01 BMatC= 2.19D-08 BMatP= 4.04D-07
 IDIUse=1 WtCom= 1.00D+00 WtEn= 0.00D+00
 Coeff-Com: -0.913D-05-0.834D-03-0.560D-02-0.277D-01 0.978D-01 0.936D+00
 Coeff:     -0.913D-05-0.834D-03-0.560D-02-0.277D-01 0.978D-01 0.936D+00
 Gap=     0.389 Goal=   None    Shift=    0.000
 RMSDP=1.44D-06 MaxDP=5.37D-05 DE=-9.73D-07 OVMax= 1.27D-04

 Cycle   7  Pass 1  IDiag  1:
 RMSU=  4.75D-07    CP:  9.70D-01  7.41D-01  8.68D-01  1.21D+00  1.29D+00
                    CP:  1.28D+00
 FoFJK:  IHMeth= 1 ICntrl=     0 DoSepK=T KAlg= 1 I1Cent= 0 FoldK=F
 E= -151.559020448140     Delta-E=       -0.000000040857 Rises=F Damp=F
 DIIS: error= 5.17D-06 at cycle   7 NSaved=   7.
 NSaved= 7 IEnMin= 7 EnMin= -151.559020448140     IErMin= 7 ErrMin= 5.17D-06
 ErrMax= 5.17D-06 EMaxC= 1.00D-01 BMatC= 7.84D-09 BMatP= 2.19D-08
 IDIUse=1 WtCom= 1.00D+00 WtEn= 0.00D+00
 Coeff-Com:  0.175D-04 0.919D-04-0.700D-03-0.106D-01-0.148D-01 0.370D+00
 Coeff-Com:  0.657D+00
 Coeff:      0.175D-04 0.919D-04-0.700D-03-0.106D-01-0.148D-01 0.370D+00
 Coeff:      0.657D+00
 Gap=     0.389 Goal=   None    Shift=    0.000
 RMSDP=4.27D-07 MaxDP=1.94D-05 DE=-4.09D-08 OVMax= 3.64D-05

 Cycle   8  Pass 1  IDiag  1:
 RMSU=  2.15D-07    CP:  9.70D-01  7.41D-01  8.68D-01  1.21D+00  1.30D+00
                    CP:  1.35D+00  9.17D-01
 FoFJK:  IHMeth= 1 ICntrl=     0 DoSepK=T KAlg= 1 I1Cent= 0 FoldK=F
 E= -151.559020454564     Delta-E=       -0.000000006424 Rises=F Damp=F
 DIIS: error= 2.74D-06 at cycle   8 NSaved=   8.
 NSaved= 8 IEnMin= 8 EnMin= -151.559020454564     IErMin= 8 ErrMin= 2.74D-06
 ErrMax= 2.74D-06 EMaxC= 1.00D-01 BMatC= 2.33D-09 BMatP= 7.84D-09
 IDIUse=1 WtCom= 1.00D+00 WtEn= 0.00D+00
 Coeff-Com:  0.764D-05 0.244D-03 0.122D-02 0.261D-02-0.328D-01-0.115D+00
 Coeff-Com:  0.351D+00 0.792D+00
 Coeff:      0.764D-05 0.244D-03 0.122D-02 0.261D-02-0.328D-01-0.115D+00
 Coeff:      0.351D+00 0.792D+00
 Gap=     0.389 Goal=   None    Shift=    0.000
 RMSDP=2.44D-07 MaxDP=9.32D-06 DE=-6.42D-09 OVMax= 2.81D-05

 Cycle   9  Pass 1  IDiag  1:
 RMSU=  8.31D-08    CP:  9.70D-01  7.41D-01  8.68D-01  1.21D+00  1.30D+00
                    CP:  1.39D+00  1.14D+00  9.84D-01
 FoFJK:  IHMeth= 1 ICntrl=     0 DoSepK=T KAlg= 1 I1Cent= 0 FoldK=F
 E= -151.559020457050     Delta-E=       -0.000000002486 Rises=F Damp=F
 DIIS: error= 3.85D-07 at cycle   9 NSaved=   9.
 NSaved= 9 IEnMin= 9 EnMin= -151.559020457050     IErMin= 9 ErrMin= 3.85D-07
 ErrMax= 3.85D-07 EMaxC= 1.00D-01 BMatC= 3.96D-11 BMatP= 2.33D-09
 IDIUse=1 WtCom= 1.00D+00 WtEn= 0.00D+00
 Coeff-Com: -0.804D-06-0.744D-05 0.200D-04 0.337D-03 0.367D-02-0.324D-01
 Coeff-Com: -0.294D-01 0.326D-01 0.103D+01
 Coeff:     -0.804D-06-0.744D-05 0.200D-04 0.337D-03 0.367D-02-0.324D-01
 Coeff:     -0.294D-01 0.326D-01 0.103D+01
 Gap=     0.389 Goal=   None    Shift=    0.000
 RMSDP=6.92D-08 MaxDP=1.53D-06 DE=-2.49D-09 OVMax= 1.02D-05

 Cycle  10  Pass 1  IDiag  1:
 RMSU=  1.77D-08    CP:  9.70D-01  7.41D-01  8.68D-01  1.21D+00  1.30D+00
                    CP:  1.39D+00  1.17D+00  1.09D+00  1.43D+00
 FoFJK:  IHMeth= 1 ICntrl=     0 DoSepK=T KAlg= 1 I1Cent= 0 FoldK=F
 E= -151.559020457186     Delta-E=       -0.000000000136 Rises=F Damp=F
 DIIS: error= 1.70D-07 at cycle  10 NSaved=  10.
 NSaved=10 IEnMin=10 EnMin= -151.559020457186     IErMin=10 ErrMin= 1.70D-07
 ErrMax= 1.70D-07 EMaxC= 1.00D-01 BMatC= 6.27D-12 BMatP= 3.96D-11
 IDIUse=1 WtCom= 1.00D+00 WtEn= 0.00D+00
 Coeff-Com: -0.200D-06-0.170D-04-0.124D-03-0.429D-03 0.323D-02 0.111D-01
 Coeff-Com: -0.255D-01-0.693D-01-0.235D+00 0.132D+01
 Coeff:     -0.200D-06-0.170D-04-0.124D-03-0.429D-03 0.323D-02 0.111D-01
 Coeff:     -0.255D-01-0.693D-01-0.235D+00 0.132D+01
 Gap=     0.389 Goal=   None    Shift=    0.000
 RMSDP=3.96D-08 MaxDP=9.15D-07 DE=-1.36D-10 OVMax= 5.93D-06

 Cycle  11  Pass 1  IDiag  1:
 RMSU=  7.21D-09    CP:  9.70D-01  7.41D-01  8.68D-01  1.21D+00  1.30D+00
                    CP:  1.39D+00  1.18D+00  1.14D+00  1.68D+00  1.64D+00
 FoFJK:  IHMeth= 1 ICntrl=     0 DoSepK=T KAlg= 1 I1Cent= 0 FoldK=F
 E= -151.559020457213     Delta-E=       -0.000000000027 Rises=F Damp=F
 DIIS: error= 5.04D-08 at cycle  11 NSaved=  11.
 NSaved=11 IEnMin=11 EnMin= -151.559020457213     IErMin=11 ErrMin= 5.04D-08
 ErrMax= 5.04D-08 EMaxC= 1.00D-01 BMatC= 3.18D-13 BMatP= 6.27D-12
 IDIUse=1 WtCom= 1.00D+00 WtEn= 0.00D+00
 Coeff-Com: -0.742D-07-0.905D-06-0.121D-05-0.198D-04-0.184D-03 0.948D-03
 Coeff-Com:  0.477D-02 0.489D-02-0.695D-01-0.944D-01 0.115D+01
 Coeff:     -0.742D-07-0.905D-06-0.121D-05-0.198D-04-0.184D-03 0.948D-03
 Coeff:      0.477D-02 0.489D-02-0.695D-01-0.944D-01 0.115D+01
 Gap=     0.389 Goal=   None    Shift=    0.000
 RMSDP=1.12D-08 MaxDP=2.32D-07 DE=-2.75D-11 OVMax= 1.55D-06

 Cycle  12  Pass 1  IDiag  1:
 RMSU=  1.91D-09    CP:  9.70D-01  7.41D-01  8.68D-01  1.21D+00  1.30D+00
                    CP:  1.39D+00  1.18D+00  1.15D+00  1.73D+00  1.88D+00
                    CP:  1.56D+00
 FoFJK:  IHMeth= 1 ICntrl=     0 DoSepK=T KAlg= 1 I1Cent= 0 FoldK=F
 E= -151.559020457216     Delta-E=       -0.000000000002 Rises=F Damp=F
 DIIS: error= 1.17D-08 at cycle  12 NSaved=  12.
 NSaved=12 IEnMin=12 EnMin= -151.559020457216     IErMin=12 ErrMin= 1.17D-08
 ErrMax= 1.17D-08 EMaxC= 1.00D-01 BMatC= 3.88D-14 BMatP= 3.18D-13
 IDIUse=1 WtCom= 1.00D+00 WtEn= 0.00D+00
 Coeff-Com: -0.490D-07 0.710D-06 0.940D-05 0.319D-04-0.225D-03-0.113D-02
 Coeff-Com:  0.217D-02 0.617D-02 0.177D-01-0.126D+00 0.298D-01 0.107D+01
 Coeff:     -0.490D-07 0.710D-06 0.940D-05 0.319D-04-0.225D-03-0.113D-02
 Coeff:      0.217D-02 0.617D-02 0.177D-01-0.126D+00 0.298D-01 0.107D+01
 Gap=     0.389 Goal=   None    Shift=    0.000
 RMSDP=3.77D-09 MaxDP=9.21D-08 DE=-2.30D-12 OVMax= 3.91D-07

 SCF Done:  E(RwB97XD) =  -151.559020457     A.U. after   12 cycles
             Convg  =    0.3771D-08             -V/T =  2.0059
 KE= 1.506667412103D+02 PE=-4.317240049471D+02 EE= 9.289488808751D+01
 Leave Link  502 at Sat May  9 22:05:10 2020, MaxMem= 1073741824 cpu:     344.0
 (Enter /home/matheus/.gaussian/g09/l601.exe)
 Copying SCF densities to generalized density rwf, IOpCl= 0 IROHF=0.

 **********************************************************************

            Population analysis using the SCF density.

 **********************************************************************

 Orbital symmetries:
       Occupied  (A) (A) (A) (A) (A) (A) (A) (A) (A)
       Virtual   (A) (A) (A) (A) (A) (A) (A) (A) (A) (A) (A) (A)
                 (A) (A) (A) (A) (A) (A) (A) (A) (A) (A) (A) (A)
                 (A) (A) (A) (A) (A) (A) (A) (A) (A) (A) (A) (A)
                 (A) (A) (A) (A) (A) (A) (A) (A) (A) (A) (A) (A)
                 (A) (A) (A) (A) (A) (A) (A) (A) (A) (A) (A) (A)
                 (A) (A) (A) (A) (A) (A) (A) (A) (A) (A) (A) (A)
                 (A) (A) (A) (A) (A) (A) (A) (A) (A) (A) (A) (A)
                 (A) (A) (A) (A) (A) (A) (A) (A) (A) (A) (A) (A)
                 (A) (A) (A) (A) (A) (A) (A) (A) (A) (A) (A) (A)
                 (A) (A) (A) (A) (A) (A) (A) (A) (A) (A) (A) (A)
                 (A) (A) (A) (A) (A) (A) (A) (A) (A) (A) (A) (A)
                 (A) (A) (A) (A) (A) (A) (A) (A) (A) (A) (A) (A)
                 (A) (A) (A) (A) (A) (A) (A) (A) (A) (A) (A) (A)
                 (A) (A) (A) (A) (A) (A) (A) (A) (A) (A) (A) (A)
                 (A) (A) (A) (A) (A) (A) (A) (A) (A) (A) (A) (A)
                 (A) (A) (A) (A) (A) (A) (A) (A)
 The electronic state is 1-A.
 Alpha  occ. eigenvalues --  -19.31685 -19.31680  -1.22100  -1.01139  -0.63535
 Alpha  occ. eigenvalues --   -0.59004  -0.50304  -0.43565  -0.35664
 Alpha virt. eigenvalues --    0.03192   0.03686   0.07008   0.09101   0.09472
 Alpha virt. eigenvalues --    0.10714   0.11194   0.14056   0.16690   0.17310
 Alpha virt. eigenvalues --    0.18331   0.19894   0.21274   0.23255   0.25796
 Alpha virt. eigenvalues --    0.27312   0.30363   0.31632   0.32343   0.33597
 Alpha virt. eigenvalues --    0.36131   0.38143   0.38962   0.39627   0.41185
 Alpha virt. eigenvalues --    0.42795   0.44357   0.47105   0.49256   0.49907
 Alpha virt. eigenvalues --    0.54758   0.58062   0.58745   0.63257   0.67087
 Alpha virt. eigenvalues --    0.68781   0.73135   0.73422   0.74198   0.75102
 Alpha virt. eigenvalues --    0.77886   0.81201   0.84988   0.87548   0.89694
 Alpha virt. eigenvalues --    0.91033   0.92259   0.95275   0.96894   0.98813
 Alpha virt. eigenvalues --    0.99509   1.03950   1.04973   1.07947   1.12175
 Alpha virt. eigenvalues --    1.13029   1.15673   1.17704   1.20671   1.22735
 Alpha virt. eigenvalues --    1.24879   1.30831   1.32422   1.32702   1.33812
 Alpha virt. eigenvalues --    1.34748   1.35554   1.36836   1.37527   1.41220
 Alpha virt. eigenvalues --    1.46881   1.49567   1.52136   1.53553   1.54694
 Alpha virt. eigenvalues --    1.56020   1.63378   1.67653   1.70323   1.79003
 Alpha virt. eigenvalues --    1.80258   1.81757   1.86850   1.94483   1.99957
 Alpha virt. eigenvalues --    2.02147   2.05023   2.12783   2.14883   2.20309
 Alpha virt. eigenvalues --    2.23255   2.25447   2.29661   2.32952   2.41059
 Alpha virt. eigenvalues --    2.45854   2.51535   2.52256   2.57255   2.63072
 Alpha virt. eigenvalues --    2.67714   2.70367   2.76998   2.82249   2.90533
 Alpha virt. eigenvalues --    3.03069   3.06360   3.08342   3.26974   3.31275
 Alpha virt. eigenvalues --    3.40672   3.52621   3.58338   3.67924   3.78920
 Alpha virt. eigenvalues --    3.79857   3.81236   3.83132   3.83490   3.84121
 Alpha virt. eigenvalues --    3.88450   3.90138   3.91260   3.93450   3.95659
 Alpha virt. eigenvalues --    3.97048   4.01496   4.06595   4.07099   4.10975
 Alpha virt. eigenvalues --    4.13022   4.16173   4.20629   4.27793   4.34891
 Alpha virt. eigenvalues --    4.42599   4.49014   4.52976   4.71264   4.90893
 Alpha virt. eigenvalues --    4.97078   4.99571   5.04589   5.09404   5.30425
 Alpha virt. eigenvalues --    5.41444   5.81355   5.99640   6.04963   6.09682
 Alpha virt. eigenvalues --    6.31169   6.31477   6.38451   6.47927   6.65608
 Alpha virt. eigenvalues --    6.70030   6.73234   6.80039   6.83537   6.84348
 Alpha virt. eigenvalues --    6.89311   6.90756   6.93794   6.97935   7.01721
 Alpha virt. eigenvalues --    7.20794   7.23151   7.36136   7.65641   7.80981
 Alpha virt. eigenvalues --    8.05041   8.10605  10.89368  14.03814  14.58680
 Alpha virt. eigenvalues --   14.84595  14.89734  15.12035  29.04315  29.04833
 Alpha virt. eigenvalues --   29.09216  29.14800  29.24328  49.11157 148.32618
 Alpha virt. eigenvalues --  148.40055 148.72775 752.49726
          Condensed to atoms (all electrons):
              1          2          3          4          5
     1  O    8.178750  -0.161865   0.198933  -0.001787  -0.003080
     2  O   -0.161865   8.191736   0.006678   0.209065  -0.001312
     3  H    0.198933   0.006678   0.574761   0.005508   0.000539
     4  H   -0.001787   0.209065   0.005508   0.556141  -0.004087
     5  Kr  -0.003080  -0.001312   0.000539  -0.004087   0.001426
 Mulliken atomic charges:
              1
     1  O   -0.210951
     2  O   -0.244303
     3  H    0.213581
     4  H    0.235160
     5  Kr   0.006513
 Sum of Mulliken atomic charges =   0.00000
 Mulliken charges with hydrogens summed into heavy atoms:
              1
     1  O    0.002630
     2  O   -0.009143
     5  Kr   0.006513
 Sum of Mulliken charges with hydrogens summed into heavy atoms =   0.00000
          Condensed to fragments (all electrons):
     1      -0.006513
     2       0.006513
 Electronic spatial extent (au):  <R**2>=            324.0868
 Charge=              0.0000 electrons
 Dipole moment (field-independent basis, Debye):
    X=             -0.2028    Y=             -0.0377    Z=              0.7921  Tot=              0.8185
 Quadrupole moment (field-independent basis, Debye-Ang):
   XX=             -9.8160   YY=            -10.6075   ZZ=            -12.6971
   XY=             -3.8689   XZ=              2.3825   YZ=             -0.8297
 Traceless Quadrupole moment (field-independent basis, Debye-Ang):
   XX=              1.2242   YY=              0.4327   ZZ=             -1.6570
   XY=             -3.8689   XZ=              2.3825   YZ=             -0.8297
 Octapole moment (field-independent basis, Debye-Ang**2):
  XXX=            -56.9379  YYY=             -1.2854  ZZZ=              0.5159  XYY=            -21.6047
  XXY=            -15.1579  XXZ=              7.1201  XZZ=            -25.1023  YZZ=             -0.8536
  YYZ=              1.0299  XYZ=             -2.5267
 Hexadecapole moment (field-independent basis, Debye-Ang**3):
 XXXX=           -236.9438 YYYY=            -45.3396 ZZZZ=            -11.6443 XXXY=            -45.6338
 XXXZ=             20.8258 YYYX=             -4.9430 YYYZ=             -1.0429 ZZZX=              1.0053
 ZZZY=             -0.5250 XXYY=            -51.4606 XXZZ=            -53.6000 YYZZ=            -11.1018
 XXYZ=             -7.4737 YYXZ=              2.7604 ZZXY=             -1.0997
 N-N= 3.660335519209D+01 E-N=-4.317240042573D+02  KE= 1.506667412103D+02
 No NMR shielding tensors so no spin-rotation constants.
 Leave Link  601 at Sat May  9 22:05:10 2020, MaxMem= 1073741824 cpu:       0.8
 (Enter /home/matheus/.gaussian/g09/l122.exe)
 Counterpoise: doing DCBS calculation for fragment   2 NewBq=T
 Leave Link  122 at Sat May  9 22:05:10 2020, MaxMem= 1073741824 cpu:       0.0
 (Enter /home/matheus/.gaussian/g09/l301.exe)
 Basis read from rwf:  (5D, 7F)
 No pseudopotential information found on rwf file.
 There are   197 symmetry adapted basis functions of A   symmetry.
 Integral buffers will be    131072 words long.
 Raffenetti 2 integral format.
 Two-electron integral symmetry is turned on.
   197 basis functions,   415 primitive gaussians,   229 cartesian basis functions
    18 alpha electrons       18 beta electrons
       nuclear repulsion energy         0.0000000000 Hartrees.
 IExCor= 4639 DFT=T Ex+Corr=wB97XD ExCW=0 ScaHFX=  1.000000
 ScaDFX=  1.000000  1.000000  1.000000  1.000000 ScalE2=  1.000000  1.000000
 IRadAn=      5 IRanWt=     -1 IRanGd=            0 ICorTp=0
  HFx wShort=  0.000000 wLong=  0.200000 cFull=  0.222036 cShort=  0.000000 cLong=  0.777964
  DFx wShort=  0.000000 wLong=  0.200000 cFull=  0.000000 cShort=  0.000000 cLong=  1.000000
 NAtoms=    5 NActive=    5 NUniq=    5 SFac= 1.00D+00 NAtFMM=   60 NAOKFM=F Big=F
 R6Disp: Dispersion energy =         0.0000000000 Hartrees.
 Nuclear repulsion after empirical dispersion term =        0.0000000000 Hartrees.
 No density basis found on file   718.
 Leave Link  301 at Sat May  9 22:05:11 2020, MaxMem= 1073741824 cpu:       0.2
 (Enter /home/matheus/.gaussian/g09/l302.exe)
 NPDir=0 NMtPBC=     1 NCelOv=     1 NCel=       1 NClECP=     1 NCelD=      1
         NCelK=      1 NCelE2=     1 NClLst=     1 CellRange=     0.0.
 One-electron integrals computed using PRISM.
 NBasis=   197 RedAO= T  NBF=   197
 NBsUse=   197 1.00D-06 NBFU=   197
 Precomputing XC quadrature grid using
 IXCGrd= 2 IRadAn=           5 IRanWt=          -1 IRanGd=           0 AccXCQ= 0.00D+00.
 NRdTot=     427 NPtTot=      123814 NUsed=      126881 NTot=      126913
 NSgBfM=   229   229   229   229   229 NAtAll=     5     5.
 Leave Link  302 at Sat May  9 22:05:11 2020, MaxMem= 1073741824 cpu:       1.0
 (Enter /home/matheus/.gaussian/g09/l303.exe)
 DipDrv:  MaxL=1.
 Leave Link  303 at Sat May  9 22:05:11 2020, MaxMem= 1073741824 cpu:       0.2
 (Enter /home/matheus/.gaussian/g09/l401.exe)
 Harris functional with IExCor= 4639 diagonalized for initial guess.
 ExpMin= 2.53D-02 ExpMax= 1.17D+07 ExpMxC= 1.33D+04 IAcc=3 IRadAn=         5 AccDes= 0.00D+00
 HarFok:  IExCor= 4639 AccDes= 0.00D+00 IRadAn=         5 IDoV= 1
 ScaDFX=  1.000000  1.000000  1.000000  1.000000
 FoFCou: FMM=F IPFlag=           0 FMFlag=      100000 FMFlg1=           0
         NFxFlg=           0 DoJE=T BraDBF=F KetDBF=T FulRan=T
         Omega=  0.000000  0.000000  1.000000  0.000000  0.000000 ICntrl=     500 IOpCl=  0
         NMat0=    1 NMatS0=    1 NMatT0=    0 NMatD0=    1 NMtDS0=    0 NMtDT0=    0
         I1Cent=           4 NGrid=           0.
 Petite list used in FoFCou.
 Harris En= -2730.20434096174    
 Initial guess orbital symmetries:
       Occupied  (A) (A) (A) (A) (A) (A) (A) (A) (A) (A) (A) (A)
                 (A) (A) (A) (A) (A) (A)
       Virtual   (A) (A) (A) (A) (A) (A) (A) (A) (A) (A) (A) (A)
                 (A) (A) (A) (A) (A) (A) (A) (A) (A) (A) (A) (A)
                 (A) (A) (A) (A) (A) (A) (A) (A) (A) (A) (A) (A)
                 (A) (A) (A) (A) (A) (A) (A) (A) (A) (A) (A) (A)
                 (A) (A) (A) (A) (A) (A) (A) (A) (A) (A) (A) (A)
                 (A) (A) (A) (A) (A) (A) (A) (A) (A) (A) (A) (A)
                 (A) (A) (A) (A) (A) (A) (A) (A) (A) (A) (A) (A)
                 (A) (A) (A) (A) (A) (A) (A) (A) (A) (A) (A) (A)
                 (A) (A) (A) (A) (A) (A) (A) (A) (A) (A) (A) (A)
                 (A) (A) (A) (A) (A) (A) (A) (A) (A) (A) (A) (A)
                 (A) (A) (A) (A) (A) (A) (A) (A) (A) (A) (A) (A)
                 (A) (A) (A) (A) (A) (A) (A) (A) (A) (A) (A) (A)
                 (A) (A) (A) (A) (A) (A) (A) (A) (A) (A) (A) (A)
                 (A) (A) (A) (A) (A) (A) (A) (A) (A) (A) (A) (A)
                 (A) (A) (A) (A) (A) (A) (A) (A) (A) (A) (A)
 The electronic state of the initial guess is 1-A.
 Leave Link  401 at Sat May  9 22:05:11 2020, MaxMem= 1073741824 cpu:       4.7
 (Enter /home/matheus/.gaussian/g09/l502.exe)
 Closed shell SCF:
 Requested convergence on RMS density matrix=1.00D-08 within 128 cycles.
 Requested convergence on MAX density matrix=1.00D-06.
 Requested convergence on             energy=1.00D-06.
 No special actions if energy rises.
 Using DIIS extrapolation, IDIIS=  1040.
 Integral symmetry usage will be decided dynamically.
       126823 words used for storage of precomputed grid.
 IEnd=      305770 IEndB=      305770 NGot=  1073741824 MDV=  1073505365
 LenX=  1073505365 LenY=  1073452483
 Fock matrices will be formed incrementally for  20 cycles.

 Cycle   1  Pass 1  IDiag  1:
 FoFJK:  IHMeth= 1 ICntrl=     0 DoSepK=T KAlg= 1 I1Cent= 0 FoldK=F
 FoFCou: FMM=F IPFlag=           0 FMFlag=      100000 FMFlg1=           0
         NFxFlg=           0 DoJE=T BraDBF=F KetDBF=F FulRan=T
         Omega=  0.000000  0.000000  1.000000  0.000000  0.000000 ICntrl=     500 IOpCl=  0
         NMat0=    1 NMatS0=    1 NMatT0=    0 NMatD0=    1 NMtDS0=    0 NMtDT0=    0
         I1Cent=           0 NGrid=           0.
 Symmetry not used in FoFCou.
 E= -2753.46461922988    
 DIIS: error= 6.01D-02 at cycle   1 NSaved=   1.
 NSaved= 1 IEnMin= 1 EnMin= -2753.46461922988     IErMin= 1 ErrMin= 6.01D-02
 ErrMax= 6.01D-02 EMaxC= 1.00D-01 BMatC= 1.87D+00 BMatP= 1.87D+00
 IDIUse=3 WtCom= 3.99D-01 WtEn= 6.01D-01
 Coeff-Com:  0.100D+01
 Coeff-En:   0.100D+01
 Coeff:      0.100D+01
 Gap=     0.634 Goal=   None    Shift=    0.000
 GapD=    0.634 DampG=2.000 DampE=0.500 DampFc=1.0000 IDamp=-1.
 RMSDP=5.62D-03 MaxDP=3.67D-01              OVMax= 1.78D-01

 Cycle   2  Pass 1  IDiag  1:
 RMSU=  3.91D-03    CP:  1.04D+00
 FoFJK:  IHMeth= 1 ICntrl=     0 DoSepK=T KAlg= 1 I1Cent= 0 FoldK=F
 E= -2753.72411398408     Delta-E=       -0.259494754206 Rises=F Damp=F
 DIIS: error= 2.90D-02 at cycle   2 NSaved=   2.
 NSaved= 2 IEnMin= 2 EnMin= -2753.72411398408     IErMin= 2 ErrMin= 2.90D-02
 ErrMax= 2.90D-02 EMaxC= 1.00D-01 BMatC= 4.75D-01 BMatP= 1.87D+00
 IDIUse=3 WtCom= 7.10D-01 WtEn= 2.90D-01
 Coeff-Com:  0.330D+00 0.670D+00
 Coeff-En:   0.183D+00 0.817D+00
 Coeff:      0.288D+00 0.712D+00
 Gap=     0.474 Goal=   None    Shift=    0.000
 RMSDP=2.51D-03 MaxDP=1.58D-01 DE=-2.59D-01 OVMax= 7.85D-02

 Cycle   3  Pass 1  IDiag  1:
 RMSU=  3.69D-04    CP:  1.03D+00  5.61D-01
 FoFJK:  IHMeth= 1 ICntrl=     0 DoSepK=T KAlg= 1 I1Cent= 0 FoldK=F
 E= -2753.87145363577     Delta-E=       -0.147339651691 Rises=F Damp=F
 DIIS: error= 3.82D-03 at cycle   3 NSaved=   3.
 NSaved= 3 IEnMin= 3 EnMin= -2753.87145363577     IErMin= 3 ErrMin= 3.82D-03
 ErrMax= 3.82D-03 EMaxC= 1.00D-01 BMatC= 8.98D-03 BMatP= 4.75D-01
 IDIUse=3 WtCom= 9.62D-01 WtEn= 3.82D-02
 Coeff-Com: -0.495D-02 0.113D+00 0.892D+00
 Coeff-En:   0.000D+00 0.000D+00 0.100D+01
 Coeff:     -0.476D-02 0.109D+00 0.896D+00
 Gap=     0.500 Goal=   None    Shift=    0.000
 RMSDP=2.81D-04 MaxDP=1.58D-02 DE=-1.47D-01 OVMax= 1.19D-02

 Cycle   4  Pass 1  IDiag  1:
 RMSU=  4.40D-05    CP:  1.03D+00  6.09D-01  9.48D-01
 FoFJK:  IHMeth= 1 ICntrl=     0 DoSepK=T KAlg= 1 I1Cent= 0 FoldK=F
 E= -2753.87434693913     Delta-E=       -0.002893303354 Rises=F Damp=F
 DIIS: error= 1.75D-04 at cycle   4 NSaved=   4.
 NSaved= 4 IEnMin= 4 EnMin= -2753.87434693913     IErMin= 4 ErrMin= 1.75D-04
 ErrMax= 1.75D-04 EMaxC= 1.00D-01 BMatC= 1.48D-05 BMatP= 8.98D-03
 IDIUse=3 WtCom= 9.98D-01 WtEn= 1.75D-03
 Coeff-Com: -0.868D-03-0.144D-01-0.527D-01 0.107D+01
 Coeff-En:   0.000D+00 0.000D+00 0.000D+00 0.100D+01
 Coeff:     -0.866D-03-0.144D-01-0.526D-01 0.107D+01
 Gap=     0.498 Goal=   None    Shift=    0.000
 RMSDP=2.25D-05 MaxDP=8.86D-04 DE=-2.89D-03 OVMax= 7.83D-04

 Cycle   5  Pass 1  IDiag  1:
 RMSU=  1.11D-05    CP:  1.03D+00  6.08D-01  9.67D-01  1.13D+00
 FoFJK:  IHMeth= 1 ICntrl=     0 DoSepK=T KAlg= 1 I1Cent= 0 FoldK=F
 E= -2753.87435490985     Delta-E=       -0.000007970719 Rises=F Damp=F
 DIIS: error= 1.18D-05 at cycle   5 NSaved=   5.
 NSaved= 5 IEnMin= 5 EnMin= -2753.87435490985     IErMin= 5 ErrMin= 1.18D-05
 ErrMax= 1.18D-05 EMaxC= 1.00D-01 BMatC= 3.83D-08 BMatP= 1.48D-05
 IDIUse=1 WtCom= 1.00D+00 WtEn= 0.00D+00
 Coeff-Com:  0.114D-03-0.102D-02-0.103D-01-0.144D-01 0.103D+01
 Coeff:      0.114D-03-0.102D-02-0.103D-01-0.144D-01 0.103D+01
 Gap=     0.498 Goal=   None    Shift=    0.000
 RMSDP=2.44D-06 MaxDP=1.09D-04 DE=-7.97D-06 OVMax= 1.81D-04

 Cycle   6  Pass 1  IDiag  1:
 RMSU=  9.09D-07    CP:  1.03D+00  6.08D-01  9.68D-01  1.15D+00  1.08D+00
 FoFJK:  IHMeth= 1 ICntrl=     0 DoSepK=T KAlg= 1 I1Cent= 0 FoldK=F
 E= -2753.87435502601     Delta-E=       -0.000000116167 Rises=F Damp=F
 DIIS: error= 4.13D-06 at cycle   6 NSaved=   6.
 NSaved= 6 IEnMin= 6 EnMin= -2753.87435502601     IErMin= 6 ErrMin= 4.13D-06
 ErrMax= 4.13D-06 EMaxC= 1.00D-01 BMatC= 3.78D-09 BMatP= 3.83D-08
 IDIUse=1 WtCom= 1.00D+00 WtEn= 0.00D+00
 Coeff-Com:  0.638D-05 0.197D-03 0.457D-03-0.350D-01 0.361D-01 0.998D+00
 Coeff:      0.638D-05 0.197D-03 0.457D-03-0.350D-01 0.361D-01 0.998D+00
 Gap=     0.498 Goal=   None    Shift=    0.000
 RMSDP=6.08D-07 MaxDP=2.60D-05 DE=-1.16D-07 OVMax= 2.78D-05

 Cycle   7  Pass 1  IDiag  1:
 RMSU=  9.30D-08    CP:  1.03D+00  6.08D-01  9.69D-01  1.16D+00  1.10D+00
                    CP:  1.20D+00
 FoFJK:  IHMeth= 1 ICntrl=     0 DoSepK=T KAlg= 1 I1Cent= 0 FoldK=F
 E= -2753.87435503015     Delta-E=       -0.000000004140 Rises=F Damp=F
 DIIS: error= 2.55D-07 at cycle   7 NSaved=   7.
 NSaved= 7 IEnMin= 7 EnMin= -2753.87435503015     IErMin= 7 ErrMin= 2.55D-07
 ErrMax= 2.55D-07 EMaxC= 1.00D-01 BMatC= 3.28D-11 BMatP= 3.78D-09
 IDIUse=1 WtCom= 1.00D+00 WtEn= 0.00D+00
 Coeff-Com:  0.539D-06 0.640D-04 0.241D-03-0.848D-02 0.139D-03 0.232D+00
 Coeff-Com:  0.776D+00
 Coeff:      0.539D-06 0.640D-04 0.241D-03-0.848D-02 0.139D-03 0.232D+00
 Coeff:      0.776D+00
 Gap=     0.498 Goal=   None    Shift=    0.000
 RMSDP=4.31D-08 MaxDP=1.37D-06 DE=-4.14D-09 OVMax= 2.44D-06

 Cycle   8  Pass 1  IDiag  1:
 RMSU=  1.71D-08    CP:  1.03D+00  6.08D-01  9.69D-01  1.16D+00  1.11D+00
                    CP:  1.23D+00  1.05D+00
 FoFJK:  IHMeth= 1 ICntrl=     0 DoSepK=T KAlg= 1 I1Cent= 0 FoldK=F
 E= -2753.87435503019     Delta-E=       -0.000000000033 Rises=F Damp=F
 DIIS: error= 5.78D-08 at cycle   8 NSaved=   8.
 NSaved= 8 IEnMin= 8 EnMin= -2753.87435503019     IErMin= 8 ErrMin= 5.78D-08
 ErrMax= 5.78D-08 EMaxC= 1.00D-01 BMatC= 1.40D-12 BMatP= 3.28D-11
 IDIUse=1 WtCom= 1.00D+00 WtEn= 0.00D+00
 Coeff-Com: -0.145D-06-0.377D-05 0.694D-05 0.159D-02-0.195D-02-0.466D-01
 Coeff-Com:  0.426D-01 0.100D+01
 Coeff:     -0.145D-06-0.377D-05 0.694D-05 0.159D-02-0.195D-02-0.466D-01
 Coeff:      0.426D-01 0.100D+01
 Gap=     0.498 Goal=   None    Shift=    0.000
 RMSDP=2.03D-08 MaxDP=8.58D-07 DE=-3.27D-11 OVMax= 5.26D-07

 Cycle   9  Pass 1  IDiag  1:
 RMSU=  3.12D-09    CP:  1.03D+00  6.08D-01  9.69D-01  1.16D+00  1.10D+00
                    CP:  1.24D+00  1.11D+00  1.12D+00
 FoFJK:  IHMeth= 1 ICntrl=     0 DoSepK=T KAlg= 1 I1Cent= 0 FoldK=F
 E= -2753.87435503020     Delta-E=       -0.000000000011 Rises=F Damp=F
 DIIS: error= 6.90D-09 at cycle   9 NSaved=   9.
 NSaved= 9 IEnMin= 9 EnMin= -2753.87435503020     IErMin= 9 ErrMin= 6.90D-09
 ErrMax= 6.90D-09 EMaxC= 1.00D-01 BMatC= 5.92D-15 BMatP= 1.40D-12
 IDIUse=1 WtCom= 1.00D+00 WtEn= 0.00D+00
 Coeff-Com:  0.105D-07 0.132D-06-0.103D-05-0.133D-03 0.768D-05 0.480D-02
 Coeff-Com: -0.106D-01-0.138D+00 0.114D+01
 Coeff:      0.105D-07 0.132D-06-0.103D-05-0.133D-03 0.768D-05 0.480D-02
 Coeff:     -0.106D-01-0.138D+00 0.114D+01
 Gap=     0.498 Goal=   None    Shift=    0.000
 RMSDP=1.66D-09 MaxDP=6.64D-08 DE=-1.14D-11 OVMax= 9.08D-08

 SCF Done:  E(RwB97XD) =  -2753.87435503     A.U. after    9 cycles
             Convg  =    0.1657D-08             -V/T =  2.0013
 KE= 2.750260788238D+03 PE=-6.580199274175D+03 EE= 1.076064130907D+03
 Leave Link  502 at Sat May  9 22:05:45 2020, MaxMem= 1073741824 cpu:     268.3
 (Enter /home/matheus/.gaussian/g09/l601.exe)
 Copying SCF densities to generalized density rwf, IOpCl= 0 IROHF=0.

 **********************************************************************

            Population analysis using the SCF density.

 **********************************************************************

 Orbital symmetries:
       Occupied  (A) (A) (A) (A) (A) (A) (A) (A) (A) (A) (A) (A)
                 (A) (A) (A) (A) (A) (A)
       Virtual   (A) (A) (A) (A) (A) (A) (A) (A) (A) (A) (A) (A)
                 (A) (A) (A) (A) (A) (A) (A) (A) (A) (A) (A) (A)
                 (A) (A) (A) (A) (A) (A) (A) (A) (A) (A) (A) (A)
                 (A) (A) (A) (A) (A) (A) (A) (A) (A) (A) (A) (A)
                 (A) (A) (A) (A) (A) (A) (A) (A) (A) (A) (A) (A)
                 (A) (A) (A) (A) (A) (A) (A) (A) (A) (A) (A) (A)
                 (A) (A) (A) (A) (A) (A) (A) (A) (A) (A) (A) (A)
                 (A) (A) (A) (A) (A) (A) (A) (A) (A) (A) (A) (A)
                 (A) (A) (A) (A) (A) (A) (A) (A) (A) (A) (A) (A)
                 (A) (A) (A) (A) (A) (A) (A) (A) (A) (A) (A) (A)
                 (A) (A) (A) (A) (A) (A) (A) (A) (A) (A) (A) (A)
                 (A) (A) (A) (A) (A) (A) (A) (A) (A) (A) (A) (A)
                 (A) (A) (A) (A) (A) (A) (A) (A) (A) (A) (A) (A)
                 (A) (A) (A) (A) (A) (A) (A) (A) (A) (A) (A) (A)
                 (A) (A) (A) (A) (A) (A) (A) (A) (A) (A) (A)
 The electronic state is 1-A.
 Alpha  occ. eigenvalues -- -513.05922 -67.32596 -60.87471 -60.87470 -60.87470
 Alpha  occ. eigenvalues --   -9.77891  -7.47187  -7.47186  -7.47186  -3.33929
 Alpha  occ. eigenvalues --   -3.33928  -3.33928  -3.33927  -3.33927  -0.98489
 Alpha  occ. eigenvalues --   -0.46647  -0.46643  -0.46642
 Alpha virt. eigenvalues --    0.03158   0.05128   0.08659   0.10149   0.11362
 Alpha virt. eigenvalues --    0.12551   0.13349   0.14665   0.16650   0.17340
 Alpha virt. eigenvalues --    0.18049   0.19703   0.21069   0.25426   0.26346
 Alpha virt. eigenvalues --    0.26945   0.27960   0.31529   0.33467   0.34964
 Alpha virt. eigenvalues --    0.35330   0.37113   0.37941   0.38866   0.41544
 Alpha virt. eigenvalues --    0.42228   0.43143   0.51932   0.54349   0.57042
 Alpha virt. eigenvalues --    0.58868   0.66378   0.67044   0.69508   0.71370
 Alpha virt. eigenvalues --    0.73980   0.74472   0.75131   0.76102   0.77122
 Alpha virt. eigenvalues --    0.79594   0.80010   0.83330   0.84560   0.85035
 Alpha virt. eigenvalues --    0.86633   0.87860   0.89052   0.90961   0.94095
 Alpha virt. eigenvalues --    0.97219   0.97617   1.00366   1.01794   1.02531
 Alpha virt. eigenvalues --    1.04525   1.06164   1.07127   1.11844   1.13046
 Alpha virt. eigenvalues --    1.14715   1.16548   1.18610   1.25520   1.26999
 Alpha virt. eigenvalues --    1.32015   1.35151   1.41519   1.42998   1.43552
 Alpha virt. eigenvalues --    1.57314   1.58972   1.63142   1.74052   1.77984
 Alpha virt. eigenvalues --    1.82825   1.86116   1.87100   1.89337   2.14273
 Alpha virt. eigenvalues --    2.18430   2.25645   2.27008   2.28746   2.29245
 Alpha virt. eigenvalues --    2.31532   2.32299   2.35179   2.37146   2.39086
 Alpha virt. eigenvalues --    2.42877   2.46238   2.46670   2.47660   2.48977
 Alpha virt. eigenvalues --    2.50268   2.52807   2.54413   2.55624   2.59254
 Alpha virt. eigenvalues --    2.61458   2.62244   2.63291   2.64949   2.66527
 Alpha virt. eigenvalues --    2.70525   2.74289   2.76356   2.80072   2.88156
 Alpha virt. eigenvalues --    2.90657   2.99001   3.04897   3.13161   3.14942
 Alpha virt. eigenvalues --    3.22934   3.28256   3.32548   3.36746   3.52465
 Alpha virt. eigenvalues --    3.61027   3.66030   3.84050   3.87807   4.03889
 Alpha virt. eigenvalues --    4.35389   4.48391   4.52710   4.56156   4.59654
 Alpha virt. eigenvalues --    4.72493   4.88919   4.89747   4.95182   5.05231
 Alpha virt. eigenvalues --    5.13038   5.16331   5.59688   5.65488   5.87693
 Alpha virt. eigenvalues --    5.95248   6.03087   6.13489   6.84413   6.85689
 Alpha virt. eigenvalues --    7.30781   7.40738   7.63841   7.64739   7.71453
 Alpha virt. eigenvalues --    7.83381   8.04645   8.10946   8.18447   8.23703
 Alpha virt. eigenvalues --    8.37293   8.39869   8.66571   8.89945   9.62868
 Alpha virt. eigenvalues --    9.71150   9.79357   9.87857   9.97747  10.04702
 Alpha virt. eigenvalues --   10.17130  10.25297  10.48573  10.94157  11.48791
 Alpha virt. eigenvalues --   11.58168  11.63529  12.04595  12.08759  13.24230
 Alpha virt. eigenvalues --   13.65500  14.53946  62.80715  64.55864
          Condensed to atoms (all electrons):
              1          2          3          4          5
     1  O    0.003205  -0.002769  -0.001481   0.001597  -0.011993
     2  O   -0.002769   0.007146   0.000926  -0.004472  -0.003903
     3  H   -0.001481   0.000926   0.000890  -0.000493   0.002605
     4  H    0.001597  -0.004472  -0.000493   0.004264  -0.021426
     5  Kr  -0.011993  -0.003903   0.002605  -0.021426  36.067311
 Mulliken atomic charges:
              1
     1  O    0.011440
     2  O    0.003071
     3  H   -0.002447
     4  H    0.020530
     5  Kr  -0.032595
 Sum of Mulliken atomic charges =   0.00000
 Mulliken charges with hydrogens summed into heavy atoms:
              1
     1  O    0.008994
     2  O    0.023601
     5  Kr  -0.032595
 Sum of Mulliken charges with hydrogens summed into heavy atoms =   0.00000
          Condensed to fragments (all electrons):
     1       0.032595
     2      -0.032595
 Electronic spatial extent (au):  <R**2>=            167.3238
 Charge=              0.0000 electrons
 Dipole moment (field-independent basis, Debye):
    X=              0.0004    Y=              0.0005    Z=              0.0000  Tot=              0.0007
 Quadrupole moment (field-independent basis, Debye-Ang):
   XX=            -17.6275   YY=            -17.6406   ZZ=            -17.6476
   XY=              0.0050   XZ=             -0.0001   YZ=              0.0002
 Traceless Quadrupole moment (field-independent basis, Debye-Ang):
   XX=              0.0110   YY=             -0.0020   ZZ=             -0.0091
   XY=              0.0050   XZ=             -0.0001   YZ=              0.0002
 Octapole moment (field-independent basis, Debye-Ang**2):
  XXX=             52.7527  YYY=              0.9516  ZZZ=             -0.1355  XYY=             17.5980
  XXY=              0.3057  XXZ=             -0.0455  XZZ=             17.6020  YZZ=              0.3177
  YYZ=             -0.0447  XYZ=             -0.0004
 Hexadecapole moment (field-independent basis, Debye-Ang**3):
 XXXX=           -123.6664 YYYY=            -18.4668 ZZZZ=            -18.4512 XXXY=             -0.9222
 XXXZ=              0.1362 YYYX=             -0.9321 YYYZ=              0.0013 ZZZX=              0.1356
 ZZZY=              0.0031 XXYY=            -23.7005 XXZZ=            -23.7002 YYZZ=             -6.1496
 XXYZ=              0.0010 YYXZ=              0.0454 ZZXY=             -0.3093
 N-N= 0.000000000000D+00 E-N=-6.580199274929D+03  KE= 2.750260788238D+03
 No NMR shielding tensors so no spin-rotation constants.
 Leave Link  601 at Sat May  9 22:05:45 2020, MaxMem= 1073741824 cpu:       0.8
 (Enter /home/matheus/.gaussian/g09/l122.exe)
 Counterpoise: doing MCBS calculation for fragment   1
 Leave Link  122 at Sat May  9 22:05:45 2020, MaxMem= 1073741824 cpu:       0.0
 (Enter /home/matheus/.gaussian/g09/l301.exe)
 Basis read from rwf:  (5D, 7F)
 No pseudopotential information found on rwf file.
 There are   138 symmetry adapted basis functions of A   symmetry.
 Integral buffers will be    131072 words long.
 Raffenetti 2 integral format.
 Two-electron integral symmetry is turned on.
   138 basis functions,   198 primitive gaussians,   160 cartesian basis functions
     9 alpha electrons        9 beta electrons
       nuclear repulsion energy        36.6035600706 Hartrees.
 IExCor= 4639 DFT=T Ex+Corr=wB97XD ExCW=0 ScaHFX=  1.000000
 ScaDFX=  1.000000  1.000000  1.000000  1.000000 ScalE2=  1.000000  1.000000
 IRadAn=      5 IRanWt=     -1 IRanGd=            0 ICorTp=0
  HFx wShort=  0.000000 wLong=  0.200000 cFull=  0.222036 cShort=  0.000000 cLong=  0.777964
  DFx wShort=  0.000000 wLong=  0.200000 cFull=  0.000000 cShort=  0.000000 cLong=  1.000000
 NAtoms=    5 NActive=    4 NUniq=    4 SFac= 1.00D+00 NAtFMM=   60 NAOKFM=F Big=F
 R6Disp: Dispersion energy =        -0.0002048785 Hartrees.
 Nuclear repulsion after empirical dispersion term =       36.6033551921 Hartrees.
 No density basis found on file   718.
 Leave Link  301 at Sat May  9 22:05:45 2020, MaxMem= 1073741824 cpu:       0.2
 (Enter /home/matheus/.gaussian/g09/l302.exe)
 NPDir=0 NMtPBC=     1 NCelOv=     1 NCel=       1 NClECP=     1 NCelD=      1
         NCelK=      1 NCelE2=     1 NClLst=     1 CellRange=     0.0.
 One-electron integrals computed using PRISM.
 NBasis=   138 RedAO= T  NBF=   138
 NBsUse=   138 1.00D-06 NBFU=   138
 Precomputing XC quadrature grid using
 IXCGrd= 2 IRadAn=           5 IRanWt=          -1 IRanGd=           0 AccXCQ= 0.00D+00.
 NRdTot=     344 NPtTot=       92556 NUsed=       95038 NTot=       95070
 NSgBfM=   160   160   160   160   160 NAtAll=     4     4.
 Leave Link  302 at Sat May  9 22:05:45 2020, MaxMem= 1073741824 cpu:       0.8
 (Enter /home/matheus/.gaussian/g09/l303.exe)
 DipDrv:  MaxL=1.
 Leave Link  303 at Sat May  9 22:05:45 2020, MaxMem= 1073741824 cpu:       0.2
 (Enter /home/matheus/.gaussian/g09/l401.exe)
 Harris functional with IExCor= 4639 diagonalized for initial guess.
 ExpMin= 2.53D-02 ExpMax= 1.53D+04 ExpMxC= 5.22D+02 IAcc=3 IRadAn=         5 AccDes= 0.00D+00
 HarFok:  IExCor= 4639 AccDes= 0.00D+00 IRadAn=         5 IDoV= 1
 ScaDFX=  1.000000  1.000000  1.000000  1.000000
 FoFCou: FMM=F IPFlag=           0 FMFlag=      100000 FMFlg1=           0
         NFxFlg=           0 DoJE=T BraDBF=F KetDBF=T FulRan=T
         Omega=  0.000000  0.000000  1.000000  0.000000  0.000000 ICntrl=     500 IOpCl=  0
         NMat0=    1 NMatS0=    1 NMatT0=    0 NMatD0=    1 NMtDS0=    0 NMtDT0=    0
         I1Cent=           4 NGrid=           0.
 Petite list used in FoFCou.
 Harris En= -146.292266830466    
 Initial guess orbital symmetries:
       Occupied  (A) (A) (A) (A) (A) (A) (A) (A) (A)
       Virtual   (A) (A) (A) (A) (A) (A) (A) (A) (A) (A) (A) (A)
                 (A) (A) (A) (A) (A) (A) (A) (A) (A) (A) (A) (A)
                 (A) (A) (A) (A) (A) (A) (A) (A) (A) (A) (A) (A)
                 (A) (A) (A) (A) (A) (A) (A) (A) (A) (A) (A) (A)
                 (A) (A) (A) (A) (A) (A) (A) (A) (A) (A) (A) (A)
                 (A) (A) (A) (A) (A) (A) (A) (A) (A) (A) (A) (A)
                 (A) (A) (A) (A) (A) (A) (A) (A) (A) (A) (A) (A)
                 (A) (A) (A) (A) (A) (A) (A) (A) (A) (A) (A) (A)
                 (A) (A) (A) (A) (A) (A) (A) (A) (A) (A) (A) (A)
                 (A) (A) (A) (A) (A) (A) (A) (A) (A) (A) (A) (A)
                 (A) (A) (A) (A) (A) (A) (A) (A) (A)
 The electronic state of the initial guess is 1-A.
 Leave Link  401 at Sat May  9 22:05:46 2020, MaxMem= 1073741824 cpu:       2.7
 (Enter /home/matheus/.gaussian/g09/l502.exe)
 Closed shell SCF:
 Requested convergence on RMS density matrix=1.00D-08 within 128 cycles.
 Requested convergence on MAX density matrix=1.00D-06.
 Requested convergence on             energy=1.00D-06.
 No special actions if energy rises.
 Using DIIS extrapolation, IDIIS=  1040.
 Integral symmetry usage will be decided dynamically.
        94980 words used for storage of precomputed grid.
 IEnd=      192360 IEndB=      192360 NGot=  1073741824 MDV=  1073591865
 LenX=  1073591865 LenY=  1073565824
 Fock matrices will be formed incrementally for  20 cycles.

 Cycle   1  Pass 1  IDiag  1:
 FoFJK:  IHMeth= 1 ICntrl=     0 DoSepK=T KAlg= 1 I1Cent= 0 FoldK=F
 FoFCou: FMM=F IPFlag=           0 FMFlag=      100000 FMFlg1=           0
         NFxFlg=           0 DoJE=T BraDBF=F KetDBF=F FulRan=T
         Omega=  0.000000  0.000000  1.000000  0.000000  0.000000 ICntrl=     500 IOpCl=  0
         NMat0=    1 NMatS0=    1 NMatT0=    0 NMatD0=    1 NMtDS0=    0 NMtDT0=    0
         I1Cent=           0 NGrid=           0.
 Symmetry not used in FoFCou.
 E= -151.477300573235    
 DIIS: error= 4.19D-02 at cycle   1 NSaved=   1.
 NSaved= 1 IEnMin= 1 EnMin= -151.477300573235     IErMin= 1 ErrMin= 4.19D-02
 ErrMax= 4.19D-02 EMaxC= 1.00D-01 BMatC= 2.98D-01 BMatP= 2.98D-01
 IDIUse=3 WtCom= 5.81D-01 WtEn= 4.19D-01
 Coeff-Com:  0.100D+01
 Coeff-En:   0.100D+01
 Coeff:      0.100D+01
 Gap=     0.502 Goal=   None    Shift=    0.000
 GapD=    0.502 DampG=2.000 DampE=0.500 DampFc=1.0000 IDamp=-1.
 RMSDP=3.28D-03 MaxDP=1.02D-01              OVMax= 1.09D-01

 Cycle   2  Pass 1  IDiag  1:
 RMSU=  2.28D-03    CP:  9.57D-01
 FoFJK:  IHMeth= 1 ICntrl=     0 DoSepK=T KAlg= 1 I1Cent= 0 FoldK=F
 E= -151.506503966125     Delta-E=       -0.029203392890 Rises=F Damp=F
 DIIS: error= 2.69D-02 at cycle   2 NSaved=   2.
[...]
 DIIS: error= 6.73D-07 at cycle   3 NSaved=   3.
 NSaved= 3 IEnMin= 3 EnMin= -2753.87423855487     IErMin= 3 ErrMin= 6.73D-07
 ErrMax= 6.73D-07 EMaxC= 1.00D-01 BMatC= 1.12D-10 BMatP= 4.04D-09
 IDIUse=1 WtCom= 1.00D+00 WtEn= 0.00D+00
 Coeff-Com:  0.141D-05-0.964D-01 0.110D+01
 Coeff:      0.141D-05-0.964D-01 0.110D+01
 Gap=     0.496 Goal=   None    Shift=    0.000
 RMSDP=2.12D-07 MaxDP=8.25D-06 DE=-7.51D-09 OVMax= 1.01D-05

 Cycle   4  Pass 1  IDiag  1:
 RMSU=  5.78D-08    CP:  1.00D+00  1.08D+00  1.22D+00
 FoFJK:  IHMeth= 1 ICntrl=     0 DoSepK=T KAlg= 1 I1Cent= 0 FoldK=F
 E= -2753.87423855508     Delta-E=       -0.000000000206 Rises=F Damp=F
 DIIS: error= 4.44D-07 at cycle   4 NSaved=   4.
 NSaved= 4 IEnMin= 4 EnMin= -2753.87423855508     IErMin= 4 ErrMin= 4.44D-07
 ErrMax= 4.44D-07 EMaxC= 1.00D-01 BMatC= 1.82D-11 BMatP= 1.12D-10
 IDIUse=1 WtCom= 1.00D+00 WtEn= 0.00D+00
 Coeff-Com:  0.210D-03-0.522D-01 0.336D+00 0.716D+00
 Coeff:      0.210D-03-0.522D-01 0.336D+00 0.716D+00
 Gap=     0.496 Goal=   None    Shift=    0.000
 RMSDP=2.44D-08 MaxDP=1.08D-06 DE=-2.06D-10 OVMax= 1.41D-06

 Cycle   5  Pass 1  IDiag  1:
 RMSU=  1.10D-08    CP:  1.00D+00  1.08D+00  1.24D+00  1.08D+00
 FoFJK:  IHMeth= 1 ICntrl=     0 DoSepK=T KAlg= 1 I1Cent= 0 FoldK=F
 E= -2753.87423855507     Delta-E=        0.000000000006 Rises=F Damp=F
 DIIS: error= 2.13D-08 at cycle   5 NSaved=   5.
 NSaved= 5 IEnMin= 4 EnMin= -2753.87423855508     IErMin= 5 ErrMin= 2.13D-08
 ErrMax= 2.13D-08 EMaxC= 1.00D-01 BMatC= 1.46D-13 BMatP= 1.82D-11
 IDIUse=1 WtCom= 1.00D+00 WtEn= 0.00D+00
 Coeff-Com: -0.353D-05 0.389D-02-0.382D-01-0.211D-01 0.106D+01
 Coeff:     -0.353D-05 0.389D-02-0.382D-01-0.211D-01 0.106D+01
 Gap=     0.496 Goal=   None    Shift=    0.000
 RMSDP=1.05D-08 MaxDP=6.51D-07 DE= 6.37D-12 OVMax= 3.66D-07

 Cycle   6  Pass 1  IDiag  1:
 RMSU=  1.42D-09    CP:  1.00D+00  1.08D+00  1.24D+00  1.15D+00  1.16D+00
 FoFJK:  IHMeth= 1 ICntrl=     0 DoSepK=T KAlg= 1 I1Cent= 0 FoldK=F
 E= -2753.87423855508     Delta-E=       -0.000000000005 Rises=F Damp=F
 DIIS: error= 8.72D-09 at cycle   6 NSaved=   6.
 NSaved= 6 IEnMin= 4 EnMin= -2753.87423855508     IErMin= 6 ErrMin= 8.72D-09
 ErrMax= 8.72D-09 EMaxC= 1.00D-01 BMatC= 1.91D-14 BMatP= 1.46D-13
 IDIUse=1 WtCom= 1.00D+00 WtEn= 0.00D+00
 Coeff-Com: -0.114D-04 0.350D-02-0.261D-01-0.365D-01 0.288D+00 0.771D+00
 Coeff:     -0.114D-04 0.350D-02-0.261D-01-0.365D-01 0.288D+00 0.771D+00
 Gap=     0.496 Goal=   None    Shift=    0.000
 RMSDP=1.21D-09 MaxDP=6.84D-08 DE=-5.46D-12 OVMax= 6.42D-08

 SCF Done:  E(RwB97XD) =  -2753.87423856     A.U. after    6 cycles
             Convg  =    0.1207D-08             -V/T =  2.0013
 KE= 2.750294619508D+03 PE=-6.580235263626D+03 EE= 1.076066405563D+03
 Leave Link  502 at Sat May  9 22:33:38 2020, MaxMem= 1073741824 cpu:     131.8
 (Enter /home/matheus/.gaussian/g09/l122.exe)
 Restoring MOs from calculation   4 to rwf.
 Counterpoise: doing MCBS calculation for fragment   1
 Leave Link  122 at Sat May  9 22:33:38 2020, MaxMem= 1073741824 cpu:       0.0
 (Enter /home/matheus/.gaussian/g09/l301.exe)
 Basis read from rwf:  (5D, 7F)
 No pseudopotential information found on rwf file.
 There are   138 symmetry adapted basis functions of A   symmetry.
 Integral buffers will be    131072 words long.
 Raffenetti 2 integral format.
 Two-electron integral symmetry is turned on.
   138 basis functions,   198 primitive gaussians,   160 cartesian basis functions
     9 alpha electrons        9 beta electrons
       nuclear repulsion energy        36.6035600706 Hartrees.
 IExCor= 4639 DFT=T Ex+Corr=wB97XD ExCW=0 ScaHFX=  1.000000
 ScaDFX=  1.000000  1.000000  1.000000  1.000000 ScalE2=  1.000000  1.000000
 IRadAn=      5 IRanWt=     -1 IRanGd=            0 ICorTp=0
  HFx wShort=  0.000000 wLong=  0.200000 cFull=  0.222036 cShort=  0.000000 cLong=  0.777964
  DFx wShort=  0.000000 wLong=  0.200000 cFull=  0.000000 cShort=  0.000000 cLong=  1.000000
 NAtoms=    5 NActive=    4 NUniq=    4 SFac= 1.00D+00 NAtFMM=   60 NAOKFM=F Big=F
 R6Disp: Dispersion energy =        -0.0002048785 Hartrees.
 Nuclear repulsion after empirical dispersion term =       36.6033551921 Hartrees.
 No density basis found on file   718.
 Leave Link  301 at Sat May  9 22:33:38 2020, MaxMem= 1073741824 cpu:       0.2
 (Enter /home/matheus/.gaussian/g09/l302.exe)
 NPDir=0 NMtPBC=     1 NCelOv=     1 NCel=       1 NClECP=     1 NCelD=      1
         NCelK=      1 NCelE2=     1 NClLst=     1 CellRange=     0.0.
 One-electron integrals computed using PRISM.
 NBasis=   138 RedAO= T  NBF=   138
 NBsUse=   138 1.00D-06 NBFU=   138
 Precomputing XC quadrature grid using
 IXCGrd= 2 IRadAn=           5 IRanWt=          -1 IRanGd=           0 AccXCQ= 0.00D+00.
 NRdTot=     344 NPtTot=       92556 NUsed=       95038 NTot=       95070
 NSgBfM=   160   160   160   160   160 NAtAll=     4     4.
 Leave Link  302 at Sat May  9 22:33:38 2020, MaxMem= 1073741824 cpu:       0.8
 (Enter /home/matheus/.gaussian/g09/l303.exe)
 DipDrv:  MaxL=1.
 Leave Link  303 at Sat May  9 22:33:38 2020, MaxMem= 1073741824 cpu:       0.1
 (Enter /home/matheus/.gaussian/g09/l401.exe)
 Initial guess read from the read-write file.
 Guess basis will be translated and rotated to current coordinates.
 Initial guess orbital symmetries:
       Occupied  (A) (A) (A) (A) (A) (A) (A) (A) (A)
       Virtual   (A) (A) (A) (A) (A) (A) (A) (A) (A) (A) (A) (A)
                 (A) (A) (A) (A) (A) (A) (A) (A) (A) (A) (A) (A)
                 (A) (A) (A) (A) (A) (A) (A) (A) (A) (A) (A) (A)
                 (A) (A) (A) (A) (A) (A) (A) (A) (A) (A) (A) (A)
                 (A) (A) (A) (A) (A) (A) (A) (A) (A) (A) (A) (A)
                 (A) (A) (A) (A) (A) (A) (A) (A) (A) (A) (A) (A)
                 (A) (A) (A) (A) (A) (A) (A) (A) (A) (A) (A) (A)
                 (A) (A) (A) (A) (A) (A) (A) (A) (A) (A) (A) (A)
                 (A) (A) (A) (A) (A) (A) (A) (A) (A) (A) (A) (A)
                 (A) (A) (A) (A) (A) (A) (A) (A) (A) (A) (A) (A)
                 (A) (A) (A) (A) (A) (A) (A) (A) (A)
 The electronic state of the initial guess is 1-A.
 Generating alternative initial guess.
 Harris functional with IExCor= 4639 diagonalized for initial guess.
 ExpMin= 2.53D-02 ExpMax= 1.53D+04 ExpMxC= 5.22D+02 IAcc=3 IRadAn=         5 AccDes= 0.00D+00
 HarFok:  IExCor= 4639 AccDes= 0.00D+00 IRadAn=         5 IDoV= 1
 ScaDFX=  1.000000  1.000000  1.000000  1.000000
 FoFCou: FMM=F IPFlag=           0 FMFlag=      100000 FMFlg1=           0
         NFxFlg=           0 DoJE=T BraDBF=F KetDBF=T FulRan=T
         Omega=  0.000000  0.000000  1.000000  0.000000  0.000000 ICntrl=     500 IOpCl=  0
         NMat0=    1 NMatS0=    1 NMatT0=    0 NMatD0=    1 NMtDS0=    0 NMtDT0=    0
         I1Cent=           4 NGrid=           0.
 Petite list used in FoFCou.
 Harris En= -146.292266870160    
 Leave Link  401 at Sat May  9 22:33:38 2020, MaxMem= 1073741824 cpu:       2.6
 (Enter /home/matheus/.gaussian/g09/l502.exe)
 Closed shell SCF:
 Requested convergence on RMS density matrix=1.00D-08 within 128 cycles.
 Requested convergence on MAX density matrix=1.00D-06.
 Requested convergence on             energy=1.00D-06.
 No special actions if energy rises.
 Using DIIS extrapolation, IDIIS=  1040.
 Integral symmetry usage will be decided dynamically.
        94980 words used for storage of precomputed grid.
 IEnd=      192360 IEndB=      192360 NGot=  1073741824 MDV=  1073591865
 LenX=  1073591865 LenY=  1073565824
 Fock matrices will be formed incrementally for  20 cycles.

 Cycle   1  Pass 1  IDiag  1:
 FoFJK:  IHMeth= 1 ICntrl=     0 DoSepK=T KAlg= 1 I1Cent= 0 FoldK=F
 FoFCou: FMM=F IPFlag=           0 FMFlag=      100000 FMFlg1=           0
         NFxFlg=           0 DoJE=T BraDBF=F KetDBF=F FulRan=T
         Omega=  0.000000  0.000000  1.000000  0.000000  0.000000 ICntrl=     500 IOpCl=  0
         NMat0=    1 NMatS0=    1 NMatT0=    0 NMatD0=    1 NMtDS0=    0 NMtDT0=    0
         I1Cent=           0 NGrid=           0.
 Symmetry not used in FoFCou.
 E= -151.558959008889    
 DIIS: error= 2.20D-05 at cycle   1 NSaved=   1.
 NSaved= 1 IEnMin= 1 EnMin= -151.558959008889     IErMin= 1 ErrMin= 2.20D-05
 ErrMax= 2.20D-05 EMaxC= 1.00D-01 BMatC= 4.32D-08 BMatP= 4.32D-08
 IDIUse=1 WtCom= 1.00D+00 WtEn= 0.00D+00
 Coeff-Com:  0.100D+01
 Coeff:      0.100D+01
 Gap=     0.392 Goal=   None    Shift=    0.000
 RMSDP=1.18D-06 MaxDP=2.24D-05              OVMax= 8.98D-05

 Cycle   2  Pass 1  IDiag  1:
 RMSU=  8.35D-07    CP:  1.00D+00
 FoFJK:  IHMeth= 1 ICntrl=     0 DoSepK=T KAlg= 1 I1Cent= 0 FoldK=F
 E= -151.558959053147     Delta-E=       -0.000000044258 Rises=F Damp=F
 DIIS: error= 3.42D-06 at cycle   2 NSaved=   2.
 NSaved= 2 IEnMin= 2 EnMin= -151.558959053147     IErMin= 2 ErrMin= 3.42D-06
 ErrMax= 3.42D-06 EMaxC= 1.00D-01 BMatC= 1.29D-09 BMatP= 4.32D-08
 IDIUse=1 WtCom= 1.00D+00 WtEn= 0.00D+00
 Coeff-Com: -0.110D+00 0.111D+01
 Coeff:     -0.110D+00 0.111D+01
 Gap=     0.392 Goal=   None    Shift=    0.000
 RMSDP=3.70D-07 MaxDP=7.77D-06 DE=-4.43D-08 OVMax= 3.08D-05

 Cycle   3  Pass 1  IDiag  1:
 RMSU=  1.67D-07    CP:  1.00D+00  1.24D+00
 FoFJK:  IHMeth= 1 ICntrl=     0 DoSepK=T KAlg= 1 I1Cent= 0 FoldK=F
 E= -151.558959056028     Delta-E=       -0.000000002881 Rises=F Damp=F
 DIIS: error= 1.02D-06 at cycle   3 NSaved=   3.
 NSaved= 3 IEnMin= 3 EnMin= -151.558959056028     IErMin= 3 ErrMin= 1.02D-06
 ErrMax= 1.02D-06 EMaxC= 1.00D-01 BMatC= 1.38D-10 BMatP= 1.29D-09
 IDIUse=1 WtCom= 1.00D+00 WtEn= 0.00D+00
 Coeff-Com: -0.263D-01 0.111D+00 0.915D+00
 Coeff:     -0.263D-01 0.111D+00 0.915D+00
 Gap=     0.392 Goal=   None    Shift=    0.000
 RMSDP=1.09D-07 MaxDP=2.48D-06 DE=-2.88D-09 OVMax= 8.06D-06

 Cycle   4  Pass 1  IDiag  1:
 RMSU=  5.70D-08    CP:  1.00D+00  1.29D+00  1.18D+00
 FoFJK:  IHMeth= 1 ICntrl=     0 DoSepK=T KAlg= 1 I1Cent= 0 FoldK=F
 E= -151.558959056192     Delta-E=       -0.000000000164 Rises=F Damp=F
 DIIS: error= 7.46D-07 at cycle   4 NSaved=   4.
 NSaved= 4 IEnMin= 4 EnMin= -151.558959056192     IErMin= 4 ErrMin= 7.46D-07
 ErrMax= 7.46D-07 EMaxC= 1.00D-01 BMatC= 1.08D-10 BMatP= 1.38D-10
 IDIUse=1 WtCom= 1.00D+00 WtEn= 0.00D+00
 Coeff-Com:  0.217D-02-0.111D+00 0.503D+00 0.606D+00
 Coeff:      0.217D-02-0.111D+00 0.503D+00 0.606D+00
 Gap=     0.392 Goal=   None    Shift=    0.000
 RMSDP=5.30D-08 MaxDP=2.08D-06 DE=-1.64D-10 OVMax= 2.93D-06

 Cycle   5  Pass 1  IDiag  1:
 RMSU=  1.66D-08    CP:  1.00D+00  1.30D+00  1.34D+00  7.00D-01
 FoFJK:  IHMeth= 1 ICntrl=     0 DoSepK=T KAlg= 1 I1Cent= 0 FoldK=F
 E= -151.558959056275     Delta-E=       -0.000000000083 Rises=F Damp=F
 DIIS: error= 1.87D-07 at cycle   5 NSaved=   5.
 NSaved= 5 IEnMin= 5 EnMin= -151.558959056275     IErMin= 5 ErrMin= 1.87D-07
 ErrMax= 1.87D-07 EMaxC= 1.00D-01 BMatC= 6.90D-12 BMatP= 1.08D-10
 IDIUse=1 WtCom= 1.00D+00 WtEn= 0.00D+00
 Coeff-Com:  0.416D-02-0.634D-01 0.946D-01 0.243D+00 0.722D+00
 Coeff:      0.416D-02-0.634D-01 0.946D-01 0.243D+00 0.722D+00
 Gap=     0.392 Goal=   None    Shift=    0.000
 RMSDP=1.72D-08 MaxDP=5.06D-07 DE=-8.33D-11 OVMax= 1.17D-06

 Cycle   6  Pass 1  IDiag  1:
 RMSU=  7.90D-09    CP:  1.00D+00  1.31D+00  1.37D+00  7.98D-01  9.89D-01
 FoFJK:  IHMeth= 1 ICntrl=     0 DoSepK=T KAlg= 1 I1Cent= 0 FoldK=F
 E= -151.558959056282     Delta-E=       -0.000000000008 Rises=F Damp=F
 DIIS: error= 7.56D-08 at cycle   6 NSaved=   6.
 NSaved= 6 IEnMin= 6 EnMin= -151.558959056282     IErMin= 6 ErrMin= 7.56D-08
 ErrMax= 7.56D-08 EMaxC= 1.00D-01 BMatC= 8.56D-13 BMatP= 6.90D-12
 IDIUse=1 WtCom= 1.00D+00 WtEn= 0.00D+00
 Coeff-Com:  0.129D-02-0.102D-01-0.247D-01 0.175D-01 0.273D+00 0.743D+00
 Coeff:      0.129D-02-0.102D-01-0.247D-01 0.175D-01 0.273D+00 0.743D+00
 Gap=     0.392 Goal=   None    Shift=    0.000
 RMSDP=7.10D-09 MaxDP=2.00D-07 DE=-7.59D-12 OVMax= 6.06D-07

 SCF Done:  E(RwB97XD) =  -151.558959056     A.U. after    6 cycles
             Convg  =    0.7100D-08             -V/T =  2.0059
 KE= 1.506664129092D+02 PE=-4.317226093682D+02 EE= 9.289388221062D+01
 Leave Link  502 at Sat May  9 22:33:45 2020, MaxMem= 1073741824 cpu:      54.6
 (Enter /home/matheus/.gaussian/g09/l122.exe)
 Restoring MOs from calculation   5 to rwf.
 Counterpoise: doing MCBS calculation for fragment   2
 Leave Link  122 at Sat May  9 22:33:45 2020, MaxMem= 1073741824 cpu:       0.0
 (Enter /home/matheus/.gaussian/g09/l301.exe)
 Basis read from rwf:  (5D, 7F)
 No pseudopotential information found on rwf file.
 There are    59 symmetry adapted basis functions of A   symmetry.
 Integral buffers will be    131072 words long.
 Raffenetti 2 integral format.
 Two-electron integral symmetry is turned on.
    59 basis functions,   217 primitive gaussians,    69 cartesian basis functions
    18 alpha electrons       18 beta electrons
       nuclear repulsion energy         0.0000000000 Hartrees.
 IExCor= 4639 DFT=T Ex+Corr=wB97XD ExCW=0 ScaHFX=  1.000000
 ScaDFX=  1.000000  1.000000  1.000000  1.000000 ScalE2=  1.000000  1.000000
 IRadAn=      5 IRanWt=     -1 IRanGd=            0 ICorTp=0
  HFx wShort=  0.000000 wLong=  0.200000 cFull=  0.222036 cShort=  0.000000 cLong=  0.777964
  DFx wShort=  0.000000 wLong=  0.200000 cFull=  0.000000 cShort=  0.000000 cLong=  1.000000
 NAtoms=    5 NActive=    1 NUniq=    1 SFac= 1.00D+00 NAtFMM=   60 NAOKFM=F Big=F
 R6Disp: Dispersion energy =         0.0000000000 Hartrees.
 Nuclear repulsion after empirical dispersion term =        0.0000000000 Hartrees.
 No density basis found on file   718.
 Leave Link  301 at Sat May  9 22:33:45 2020, MaxMem= 1073741824 cpu:       0.2
 (Enter /home/matheus/.gaussian/g09/l302.exe)
 NPDir=0 NMtPBC=     1 NCelOv=     1 NCel=       1 NClECP=     1 NCelD=      1
         NCelK=      1 NCelE2=     1 NClLst=     1 CellRange=     0.0.
 One-electron integrals computed using PRISM.
 NBasis=    59 RedAO= T  NBF=    59
 NBsUse=    59 1.00D-06 NBFU=    59
 Precomputing XC quadrature grid using
 IXCGrd= 2 IRadAn=           5 IRanWt=          -1 IRanGd=           0 AccXCQ= 0.00D+00.
 NRdTot=      81 NPtTot=       30352 NUsed=       30981 NTot=       31013
 NSgBfM=    69    69    69    69    69 NAtAll=     1     1.
 Leave Link  302 at Sat May  9 22:33:45 2020, MaxMem= 1073741824 cpu:       0.7
 (Enter /home/matheus/.gaussian/g09/l303.exe)
 DipDrv:  MaxL=1.
 Leave Link  303 at Sat May  9 22:33:45 2020, MaxMem= 1073741824 cpu:       0.1
 (Enter /home/matheus/.gaussian/g09/l401.exe)
 Initial guess read from the read-write file.
 Guess basis will be translated and rotated to current coordinates.
 Initial guess orbital symmetries:
       Occupied  (A) (A) (A) (A) (A) (A) (A) (A) (A) (A) (A) (A)
                 (A) (A) (A) (A) (A) (A)
       Virtual   (A) (A) (A) (A) (A) (A) (A) (A) (A) (A) (A) (A)
                 (A) (A) (A) (A) (A) (A) (A) (A) (A) (A) (A) (A)
                 (A) (A) (A) (A) (A) (A) (A) (A) (A) (A) (A) (A)
                 (A) (A) (A) (A) (A)
 The electronic state of the initial guess is 1-A.
 Generating alternative initial guess.
 Harris functional with IExCor= 4639 diagonalized for initial guess.
 ExpMin= 4.00D-02 ExpMax= 1.17D+07 ExpMxC= 1.33D+04 IAcc=3 IRadAn=         5 AccDes= 0.00D+00
 HarFok:  IExCor= 4639 AccDes= 0.00D+00 IRadAn=         5 IDoV= 1
 ScaDFX=  1.000000  1.000000  1.000000  1.000000
 FoFCou: FMM=F IPFlag=           0 FMFlag=      100000 FMFlg1=           0
         NFxFlg=           0 DoJE=T BraDBF=F KetDBF=T FulRan=T
         Omega=  0.000000  0.000000  1.000000  0.000000  0.000000 ICntrl=     500 IOpCl=  0
         NMat0=    1 NMatS0=    1 NMatT0=    0 NMatD0=    1 NMtDS0=    0 NMtDT0=    0
         I1Cent=           4 NGrid=           0.
 Petite list used in FoFCou.
 Harris En= -2730.20235208354    
 Leave Link  401 at Sat May  9 22:33:45 2020, MaxMem= 1073741824 cpu:       1.1
 (Enter /home/matheus/.gaussian/g09/l502.exe)
 Closed shell SCF:
 Requested convergence on RMS density matrix=1.00D-08 within 128 cycles.
 Requested convergence on MAX density matrix=1.00D-06.
 Requested convergence on             energy=1.00D-06.
 No special actions if energy rises.
 Using DIIS extrapolation, IDIIS=  1040.
 Integral symmetry usage will be decided dynamically.
        30923 words used for storage of precomputed grid.
 IEnd=       64406 IEndB=       64406 NGot=  1073741824 MDV=  1073698889
 LenX=  1073698889 LenY=  1073693687
 Fock matrices will be formed incrementally for  20 cycles.

 Cycle   1  Pass 1  IDiag  1:
 FoFJK:  IHMeth= 1 ICntrl=     0 DoSepK=T KAlg= 1 I1Cent= 0 FoldK=F
 FoFCou: FMM=F IPFlag=           0 FMFlag=      100000 FMFlg1=           0
         NFxFlg=           0 DoJE=T BraDBF=F KetDBF=F FulRan=T
         Omega=  0.000000  0.000000  1.000000  0.000000  0.000000 ICntrl=     500 IOpCl=  0
         NMat0=    1 NMatS0=    1 NMatT0=    0 NMatD0=    1 NMtDS0=    0 NMtDT0=    0
         I1Cent=           0 NGrid=           0.
 Symmetry not used in FoFCou.
 E= -2753.87421986326    
 DIIS: error= 9.29D-14 at cycle   1 NSaved=   1.
 NSaved= 1 IEnMin= 1 EnMin= -2753.87421986326     IErMin= 1 ErrMin= 9.29D-14
 ErrMax= 9.29D-14 EMaxC= 1.00D-01 BMatC= 1.02D-24 BMatP= 1.02D-24
 IDIUse=1 WtCom= 1.00D+00 WtEn= 0.00D+00
 Coeff-Com:  0.100D+01
 Coeff:      0.100D+01
 Gap=     0.562 Goal=   None    Shift=    0.000
 RMSDP=1.70D-14 MaxDP=3.73D-13              OVMax= 1.37D-13

 SCF Done:  E(RwB97XD) =  -2753.87421986     A.U. after    1 cycles
             Convg  =    0.1702D-13             -V/T =  2.0013
 KE= 2.750300381543D+03 PE=-6.580241205809D+03 EE= 1.076066604402D+03
 Leave Link  502 at Sat May  9 22:33:47 2020, MaxMem= 1073741824 cpu:      12.6
 (Enter /home/matheus/.gaussian/g09/l122.exe)
 Restoring MOs from calculation   1 to rwf.
 Counterpoise: corrected energy =   -2905.433461776141
 Counterpoise: BSSE energy =       0.000022473588
 Leave Link  122 at Sat May  9 22:33:47 2020, MaxMem= 1073741824 cpu:       0.0
 (Enter /home/matheus/.gaussian/g09/l108.exe)
 Scan completed.

 Summary of the potential surface scan:
   N      R1          SCF    
 ----  ---------  -----------
    1     3.0000  -2753.87422
    2     3.1000  -2753.87422
    3     3.2000  -2753.87422
    4     3.3000  -2753.87422
    5     3.4000  -2753.87422
    6     3.5000  -2753.87422
    7     3.6000  -2753.87422
    8     3.7000  -2753.87422
    9     3.8000  -2753.87422
   10     3.9000  -2753.87422
   11     4.0000  -2753.87422
   12     4.1000  -2753.87422
   13     4.2000  -2753.87422
   14     4.3000  -2753.87422
   15     4.4000  -2753.87422
   16     4.5000  -2753.87422
   17     4.6000  -2753.87422
   18     4.7000  -2753.87422
   19     4.8000  -2753.87422
   20     4.9000  -2753.87422
   21     5.0000  -2753.87422
 ----  ---------  -----------
  
 Leave Link  108 at Sat May  9 22:33:47 2020, MaxMem= 1073741824 cpu:       0.0
 (Enter /home/matheus/.gaussian/g09/l9999.exe)
 1\1\GINC-REDGIANT\Scan\RwB97XD\Aug-CC-pVTZ\H2Kr1O2\MATHEUS\09-May-2020
 \1\\#p wb97xd/aug-cc-PVTz int=ultrafine counterpoise=2 Scan\\TCC\\0,1\
 O,0,0.,0.,0.725\O,0,0.,0.,-0.725\H,0,0.4593602974,-0.795635374,1.02351
 04166\H,0,0.,0.9187205947,-1.0235104166\Kr,0,0.,R1,0.\\R1=3.,s,20,0.1\
 \Version=EM64L-G09RevC.01\State=1-A\HF=-2753.8742199,-2753.8742199,-27
 53.8742199,-2753.8742199,-2753.8742199,-2753.8742199,-2753.8742199,-27
 53.8742199,-2753.8742199,-2753.8742199,-2753.8742199,-2753.8742199,-27
 53.8742199,-2753.8742199,-2753.8742199,-2753.8742199,-2753.8742199,-27
 53.8742199,-2753.8742199,-2753.8742199,-2753.8742199\RMSD=9.120e-09,1.
 920e-10,6.363e-11,4.203e-11,2.497e-11,1.570e-11,9.722e-12,6.058e-12,3.
 764e-12,2.339e-12,1.452e-12,9.043e-13,5.663e-13,3.573e-13,2.188e-13,1.
 342e-13,8.400e-14,5.528e-14,3.236e-14,1.945e-14,1.702e-14\PG=C01 [X(H2
 Kr1O2)]\\@


 THERE IS NO SCIENCE WITHOUT FANCY, NOR ART WITHOUT FACTS.
     -- VLADIMIR NABAKOV
 Job cpu time:  0 days  3 hours 58 minutes 39.6 seconds.
 File lengths (MBytes):  RWF=     33 Int=      0 D2E=      0 Chk=      8 Scr=      1
 Normal termination of Gaussian 09 at Sat May  9 22:33:47 2020.
