 Entering Gaussian System, Link 0=g09
 Input=/home/matheus/.tcc/Inputs/Inputs-wb97xd-default/H2O2-Kr_17.com
 Output=/home/matheus/.tcc/Logs/Logs-wb97xd-default/H2O2-Kr_17.log
 Initial command:
 /home/matheus/.gaussian/g09/l1.exe /home/matheus/.gaussian/g09/scratch/Gau-29424.inp -scrdir=/home/matheus/.gaussian/g09/scratch/
 Entering Link 1 = /home/matheus/.gaussian/g09/l1.exe PID=     29428.
  
 Copyright (c) 1988,1990,1992,1993,1995,1998,2003,2009,2011,
            Gaussian, Inc.  All Rights Reserved.
  
 This is part of the Gaussian(R) 09 program.  It is based on
 the Gaussian(R) 03 system (copyright 2003, Gaussian, Inc.),
 the Gaussian(R) 98 system (copyright 1998, Gaussian, Inc.),
 the Gaussian(R) 94 system (copyright 1995, Gaussian, Inc.),
 the Gaussian 92(TM) system (copyright 1992, Gaussian, Inc.),
 the Gaussian 90(TM) system (copyright 1990, Gaussian, Inc.),
 the Gaussian 88(TM) system (copyright 1988, Gaussian, Inc.),
 the Gaussian 86(TM) system (copyright 1986, Carnegie Mellon
 University), and the Gaussian 82(TM) system (copyright 1983,
 Carnegie Mellon University). Gaussian is a federally registered
 trademark of Gaussian, Inc.
  
 This software contains proprietary and confidential information,
 including trade secrets, belonging to Gaussian, Inc.
  
 This software is provided under written license and may be
 used, copied, transmitted, or stored only in accord with that
 written license.
  
 The following legend is applicable only to US Government
 contracts under FAR:
  
                    RESTRICTED RIGHTS LEGEND
  
 Use, reproduction and disclosure by the US Government is
 subject to restrictions as set forth in subparagraphs (a)
 and (c) of the Commercial Computer Software - Restricted
 Rights clause in FAR 52.227-19.
  
 Gaussian, Inc.
 340 Quinnipiac St., Bldg. 40, Wallingford CT 06492
  
  
 ---------------------------------------------------------------
 Warning -- This program may not be used in any manner that
 competes with the business of Gaussian, Inc. or will provide
 assistance to any competitor of Gaussian, Inc.  The licensee
 of this program is prohibited from giving any competitor of
 Gaussian, Inc. access to this program.  By using this program,
 the user acknowledges that Gaussian, Inc. is engaged in the
 business of creating and licensing software in the field of
 computational chemistry and represents and warrants to the
 licensee that it is not a competitor of Gaussian, Inc. and that
 it will not use this program in any manner prohibited above.
 ---------------------------------------------------------------
  

 Cite this work as:
 Gaussian 09, Revision C.01,
 M. J. Frisch, G. W. Trucks, H. B. Schlegel, G. E. Scuseria, 
 M. A. Robb, J. R. Cheeseman, G. Scalmani, V. Barone, B. Mennucci, 
 G. A. Petersson, H. Nakatsuji, M. Caricato, X. Li, H. P. Hratchian, 
 A. F. Izmaylov, J. Bloino, G. Zheng, J. L. Sonnenberg, M. Hada, 
 M. Ehara, K. Toyota, R. Fukuda, J. Hasegawa, M. Ishida, T. Nakajima, 
 Y. Honda, O. Kitao, H. Nakai, T. Vreven, J. A. Montgomery, Jr., 
 J. E. Peralta, F. Ogliaro, M. Bearpark, J. J. Heyd, E. Brothers, 
 K. N. Kudin, V. N. Staroverov, T. Keith, R. Kobayashi, J. Normand, 
 K. Raghavachari, A. Rendell, J. C. Burant, S. S. Iyengar, J. Tomasi, 
 M. Cossi, N. Rega, J. M. Millam, M. Klene, J. E. Knox, J. B. Cross, 
 V. Bakken, C. Adamo, J. Jaramillo, R. Gomperts, R. E. Stratmann, 
 O. Yazyev, A. J. Austin, R. Cammi, C. Pomelli, J. W. Ochterski, 
 R. L. Martin, K. Morokuma, V. G. Zakrzewski, G. A. Voth, 
 P. Salvador, J. J. Dannenberg, S. Dapprich, A. D. Daniels, 
 O. Farkas, J. B. Foresman, J. V. Ortiz, J. Cioslowski, 
 and D. J. Fox, Gaussian, Inc., Wallingford CT, 2010.
 
 ******************************************
 Gaussian 09:  EM64L-G09RevC.01 23-Sep-2011
                 9-May-2020 
 ******************************************
 %mem=8GB
 %nproc=8
 Will use up to    8 processors via shared memory.
 -------------------------------------------------------
 #p wb97xd/aug-cc-PVTz int=ultrafine counterpoise=2 Scan
 -------------------------------------------------------
 1/38=1,60=1,62=2/1,8;
 2/12=2,17=6,18=5,29=3,40=1/2;
 1/38=1,53=5172,62=2/22;
 3/5=16,6=1,7=10,11=2,16=1,25=1,30=1,74=-58,75=-5/1,2,3;
 4//1;
 5/5=2,38=5/2;
 6/7=2,8=2,9=2,10=2,18=1,28=1/1;
 1/53=4052,62=2,63=1/22;
 3/5=7,6=11,7=10,11=2,16=1,25=1,30=1,74=-58,75=-5,82=7/1,2,3;
 4//1;
 5/5=2,38=5/2;
 6/7=2,8=2,9=2,10=2,18=1,28=1/1;
 1/53=3042,62=2,63=2/22;
 3/5=7,6=11,7=10,11=2,16=1,25=1,30=1,74=-58,75=-5,82=7/1,2,3;
 4//1;
 5/5=2,38=5/2;
 6/7=2,8=2,9=2,10=2,18=1,28=1/1;
 1/53=2032,62=2,63=3/22;
 3/5=7,6=11,7=10,11=2,16=1,25=1,30=1,74=-58,75=-5,82=7/1,2,3;
 4//1;
 5/5=2,38=5/2;
 6/7=2,8=2,9=2,10=2,18=1,28=1/1;
 1/53=1022,62=2,63=4/22;
 3/5=7,6=11,7=10,11=2,16=1,25=1,30=1,74=-58,75=-5,82=7/1,2,3;
 4//1;
 5/5=2,38=5/2;
 6/7=2,8=2,9=2,10=2,18=1,28=1/1;
 1/53=5014,62=2,63=5/22;
 1/60=1,62=2/8(1);
 99/9=1/99;
 2/29=3/2;
 1/53=5173,62=2/22;
 3/5=7,6=11,7=10,11=2,16=1,25=1,30=1,74=-58,75=-5,82=7/1,2,3;
 4/5=5,16=3/1;
 5/5=2,38=5/2;
 1/53=4053,62=2,63=1/22;
 3/5=7,6=11,7=10,11=2,16=1,25=1,30=1,74=-58,75=-5,82=7/1,2,3;
 4/5=5,16=3/1;
 5/5=2,38=5/2;
 1/53=3043,62=2,63=2/22;
 3/5=7,6=11,7=10,11=2,16=1,25=1,30=1,74=-58,75=-5,82=7/1,2,3;
 4/5=5,16=3/1;
 5/5=2,38=5/2;
 1/53=2033,62=2,63=3/22;
 3/5=7,6=11,7=10,11=2,16=1,25=1,30=1,74=-58,75=-5,82=7/1,2,3;
 4/5=5,16=3/1;
 5/5=2,38=5/2;
 1/53=1024,62=2,63=4/22;
 3/5=7,6=11,7=10,11=2,16=1,25=1,30=1,74=-58,75=-5,82=7/1,2,3;
 4/5=5,16=3/1;
 5/5=2,38=5/2;
 1/53=5014,62=2,63=5/22;
 1/60=1,62=2/8(-22);
 99/9=1/99;
 Leave Link    1 at Sat May  9 23:04:11 2020, MaxMem= 1073741824 cpu:       0.2
 (Enter /home/matheus/.gaussian/g09/l101.exe)
 ---
 TCC
 ---
 Charge =  0 Multiplicity = 1 in supermolecule
 Charge =  0 Multiplicity = 1 in fragment  1.
 Charge =  0 Multiplicity = 1 in fragment  2.
 Symbolic Z-Matrix:
 O(Fragment=1)         0.        0.        0.725 
 O(Fragment=1)         0.        0.       -0.725 
 H(Fragment=1)         0.15953  -0.90476   1.02351 
 H(Fragment=1)         0.        0.91872  -1.02351 
 Kr(Fragment=2)        0.       R1        0. 
       Variables:
  R1                    3.     Scan 20    0.1    
 
 NAtoms=      5 NQM=        0 NQMF=       0 NMMI=      5 NMMIF=      0
                NMic=       0 NMicF=      0.
                    Isotopes and Nuclear Properties:
 (Nuclear quadrupole moments (NQMom) in fm**2, nuclear magnetic moments (NMagM)
  in nuclear magnetons)

  Atom         1           2           3           4           5
 IAtWgt=          16          16           1           1          84
 AtmWgt=  15.9949146  15.9949146   1.0078250   1.0078250  83.9115064
 NucSpn=           0           0           1           1           0
 AtZEff=   0.0000000   0.0000000   0.0000000   0.0000000   0.0000000
 NQMom=    0.0000000   0.0000000   0.0000000   0.0000000   0.0000000
 NMagM=    0.0000000   0.0000000   2.7928460   2.7928460   0.0000000
 Leave Link  101 at Sat May  9 23:04:11 2020, MaxMem= 1073741824 cpu:       0.4
 (Enter /home/matheus/.gaussian/g09/l108.exe)
 Scan the potential surface.
 Variable   Value     No. Steps Step-Size
 -------- ----------- --------- ---------
     1       3.000000      20      0.1000
 A total of     21 points will be computed.
 Leave Link  108 at Sat May  9 23:04:11 2020, MaxMem= 1073741824 cpu:       0.0
 (Enter /home/matheus/.gaussian/g09/l202.exe)
 ---------------------------------------------------------------------------------------------------
                            Z-MATRIX (ANGSTROMS AND DEGREES)
   CD    Cent   Atom    N1       Length/X        N2       Alpha/Y        N3        Beta/Z          J
 ---------------------------------------------------------------------------------------------------
      1      1  O        0   0.000000          0.000000          0.725000
      2      2  O        0   0.000000          0.000000         -0.725000
      3      3  H        0   0.159534         -0.904763          1.023510
      4      4  H        0   0.000000          0.918721         -1.023510
      5      5  Kr       0   0.000000          3.000000          0.000000
 ---------------------------------------------------------------------------------------------------
                         Z-Matrix orientation:                         
 ---------------------------------------------------------------------
 Center     Atomic      Atomic             Coordinates (Angstroms)
 Number     Number       Type             X           Y           Z
 ---------------------------------------------------------------------
      1          8           0        0.000000    0.000000    0.725000
      2          8           0        0.000000    0.000000   -0.725000
      3          1           0        0.159534   -0.904763    1.023510
      4          1           0        0.000000    0.918721   -1.023510
      5         36           0        0.000000    3.000000    0.000000
 ---------------------------------------------------------------------
                    Distance matrix (angstroms):
                    1          2          3          4          5
     1  O    0.000000
     2  O    1.450000   0.000000
     3  H    0.966000   1.975180   0.000000
     4  H    1.975180   0.966000   2.746059   0.000000
     5  Kr   3.086361   3.086361   4.039827   2.319331   0.000000
 Stoichiometry    H2KrO2
 Framework group  C1[X(H2KrO2)]
 Deg. of freedom     9
 Full point group                 C1      NOp   1
 Largest Abelian subgroup         C1      NOp   1
 Largest concise Abelian subgroup C1      NOp   1
                         Standard orientation:                         
 ---------------------------------------------------------------------
 Center     Atomic      Atomic             Coordinates (Angstroms)
 Number     Number       Type             X           Y           Z
 ---------------------------------------------------------------------
      1          8           0        2.013524   -0.686962   -0.021683
      2          8           0        1.986222    0.762620   -0.000129
      3          1           0        2.924418   -0.970655    0.129799
      4          1           0        1.062052    1.043690    0.007960
      5         36           0       -0.999568   -0.018842    0.001020
 ---------------------------------------------------------------------
 Rotational constants (GHZ):     26.6931850      2.3029701      2.1204694
 Leave Link  202 at Sat May  9 23:04:11 2020, MaxMem= 1073741824 cpu:       0.0
 (Enter /home/matheus/.gaussian/g09/l122.exe)
 Leave Link  122 at Sat May  9 23:04:11 2020, MaxMem= 1073741824 cpu:       0.0
 (Enter /home/matheus/.gaussian/g09/l301.exe)
 Standard basis: Aug-CC-pVTZ (5D, 7F)
 Ernie: Thresh=  0.10000D-02 Tol=  0.10000D-05 Strict=F.
 Ernie:  38 primitive shells out of 205 were deleted.
 There are   197 symmetry adapted basis functions of A   symmetry.
 Integral buffers will be    131072 words long.
 Raffenetti 2 integral format.
 Two-electron integral symmetry is turned on.
   197 basis functions,   415 primitive gaussians,   229 cartesian basis functions
    27 alpha electrons       27 beta electrons
       nuclear repulsion energy       148.2893698349 Hartrees.
 IExCor= 4639 DFT=T Ex+Corr=wB97XD ExCW=0 ScaHFX=  1.000000
 ScaDFX=  1.000000  1.000000  1.000000  1.000000 ScalE2=  1.000000  1.000000
 IRadAn=      5 IRanWt=     -1 IRanGd=            0 ICorTp=0
  HFx wShort=  0.000000 wLong=  0.200000 cFull=  0.222036 cShort=  0.000000 cLong=  0.777964
  DFx wShort=  0.000000 wLong=  0.200000 cFull=  0.000000 cShort=  0.000000 cLong=  1.000000
 NAtoms=    5 NActive=    5 NUniq=    5 SFac= 1.00D+00 NAtFMM=   60 NAOKFM=F Big=F
 R6Disp: Dispersion energy =        -0.0007663178 Hartrees.
 Nuclear repulsion after empirical dispersion term =      148.2886035171 Hartrees.
 Leave Link  301 at Sat May  9 23:04:11 2020, MaxMem= 1073741824 cpu:       0.2
 (Enter /home/matheus/.gaussian/g09/l302.exe)
 NPDir=0 NMtPBC=     1 NCelOv=     1 NCel=       1 NClECP=     1 NCelD=      1
         NCelK=      1 NCelE2=     1 NClLst=     1 CellRange=     0.0.
 One-electron integrals computed using PRISM.
 NBasis=   197 RedAO= T  NBF=   197
 NBsUse=   197 1.00D-06 NBFU=   197
 Precomputing XC quadrature grid using
 IXCGrd= 2 IRadAn=           5 IRanWt=          -1 IRanGd=           0 AccXCQ= 0.00D+00.
 NRdTot=     427 NPtTot=      123814 NUsed=      126881 NTot=      126913
 NSgBfM=   229   229   229   229   229 NAtAll=     5     5.
 Leave Link  302 at Sat May  9 23:04:12 2020, MaxMem= 1073741824 cpu:       1.0
 (Enter /home/matheus/.gaussian/g09/l303.exe)
 DipDrv:  MaxL=1.
 Leave Link  303 at Sat May  9 23:04:12 2020, MaxMem= 1073741824 cpu:       0.3
 (Enter /home/matheus/.gaussian/g09/l401.exe)
 Harris functional with IExCor= 4639 diagonalized for initial guess.
 ExpMin= 2.53D-02 ExpMax= 1.17D+07 ExpMxC= 1.33D+04 IAcc=3 IRadAn=         5 AccDes= 0.00D+00
 HarFok:  IExCor= 4639 AccDes= 0.00D+00 IRadAn=         5 IDoV= 1
 ScaDFX=  1.000000  1.000000  1.000000  1.000000
 FoFCou: FMM=F IPFlag=           0 FMFlag=      100000 FMFlg1=           0
         NFxFlg=           0 DoJE=T BraDBF=F KetDBF=T FulRan=T
         Omega=  0.000000  0.000000  1.000000  0.000000  0.000000 ICntrl=     500 IOpCl=  0
         NMat0=    1 NMatS0=    1 NMatT0=    0 NMatD0=    1 NMtDS0=    0 NMtDT0=    0
         I1Cent=           4 NGrid=           0.
 Petite list used in FoFCou.
 Harris En= -2876.48580303390    
 Initial guess orbital symmetries:
       Occupied  (A) (A) (A) (A) (A) (A) (A) (A) (A) (A) (A) (A)
                 (A) (A) (A) (A) (A) (A) (A) (A) (A) (A) (A) (A)
                 (A) (A) (A)
       Virtual   (A) (A) (A) (A) (A) (A) (A) (A) (A) (A) (A) (A)
                 (A) (A) (A) (A) (A) (A) (A) (A) (A) (A) (A) (A)
                 (A) (A) (A) (A) (A) (A) (A) (A) (A) (A) (A) (A)
                 (A) (A) (A) (A) (A) (A) (A) (A) (A) (A) (A) (A)
                 (A) (A) (A) (A) (A) (A) (A) (A) (A) (A) (A) (A)
                 (A) (A) (A) (A) (A) (A) (A) (A) (A) (A) (A) (A)
                 (A) (A) (A) (A) (A) (A) (A) (A) (A) (A) (A) (A)
                 (A) (A) (A) (A) (A) (A) (A) (A) (A) (A) (A) (A)
                 (A) (A) (A) (A) (A) (A) (A) (A) (A) (A) (A) (A)
                 (A) (A) (A) (A) (A) (A) (A) (A) (A) (A) (A) (A)
                 (A) (A) (A) (A) (A) (A) (A) (A) (A) (A) (A) (A)
                 (A) (A) (A) (A) (A) (A) (A) (A) (A) (A) (A) (A)
                 (A) (A) (A) (A) (A) (A) (A) (A) (A) (A) (A) (A)
                 (A) (A) (A) (A) (A) (A) (A) (A) (A) (A) (A) (A)
                 (A) (A)
 The electronic state of the initial guess is 1-A.
 Leave Link  401 at Sat May  9 23:04:12 2020, MaxMem= 1073741824 cpu:       5.4
 (Enter /home/matheus/.gaussian/g09/l502.exe)
 Closed shell SCF:
 Requested convergence on RMS density matrix=1.00D-08 within 128 cycles.
 Requested convergence on MAX density matrix=1.00D-06.
 Requested convergence on             energy=1.00D-06.
 No special actions if energy rises.
 Using DIIS extrapolation, IDIIS=  1040.
 Integral symmetry usage will be decided dynamically.
       126823 words used for storage of precomputed grid.
 IEnd=      305770 IEndB=      305770 NGot=  1073741824 MDV=  1073505365
 LenX=  1073505365 LenY=  1073452483
 Fock matrices will be formed incrementally for  20 cycles.

 Cycle   1  Pass 1  IDiag  1:
 FoFJK:  IHMeth= 1 ICntrl=     0 DoSepK=T KAlg= 1 I1Cent= 0 FoldK=F
 FoFCou: FMM=F IPFlag=           0 FMFlag=      100000 FMFlg1=           0
         NFxFlg=           0 DoJE=T BraDBF=F KetDBF=F FulRan=T
         Omega=  0.000000  0.000000  1.000000  0.000000  0.000000 ICntrl=     500 IOpCl=  0
         NMat0=    1 NMatS0=    1 NMatT0=    0 NMatD0=    1 NMtDS0=    0 NMtDT0=    0
         I1Cent=           0 NGrid=           0.
 Symmetry not used in FoFCou.
 E= -2904.93491741417    
 DIIS: error= 7.75D-02 at cycle   1 NSaved=   1.
 NSaved= 1 IEnMin= 1 EnMin= -2904.93491741417     IErMin= 1 ErrMin= 7.75D-02
 ErrMax= 7.75D-02 EMaxC= 1.00D-01 BMatC= 2.17D+00 BMatP= 2.17D+00
 IDIUse=3 WtCom= 2.25D-01 WtEn= 7.75D-01
 Coeff-Com:  0.100D+01
 Coeff-En:   0.100D+01
 Coeff:      0.100D+01
 Gap=     0.497 Goal=   None    Shift=    0.000
 GapD=    0.497 DampG=2.000 DampE=0.500 DampFc=1.0000 IDamp=-1.
 RMSDP=6.14D-03 MaxDP=3.67D-01              OVMax= 1.79D-01

 Cycle   2  Pass 1  IDiag  1:
 RMSU=  4.31D-03    CP:  1.03D+00
 FoFJK:  IHMeth= 1 ICntrl=     0 DoSepK=T KAlg= 1 I1Cent= 0 FoldK=F
 E= -2905.22727700834     Delta-E=       -0.292359594176 Rises=F Damp=F
 DIIS: error= 3.76D-02 at cycle   2 NSaved=   2.
 NSaved= 2 IEnMin= 2 EnMin= -2905.22727700834     IErMin= 2 ErrMin= 3.76D-02
 ErrMax= 3.76D-02 EMaxC= 1.00D-01 BMatC= 5.62D-01 BMatP= 2.17D+00
 IDIUse=3 WtCom= 6.24D-01 WtEn= 3.76D-01
 Coeff-Com:  0.330D+00 0.670D+00
 Coeff-En:   0.217D+00 0.783D+00
 Coeff:      0.287D+00 0.713D+00
 Gap=     0.436 Goal=   None    Shift=    0.000
 RMSDP=2.73D-03 MaxDP=1.58D-01 DE=-2.92D-01 OVMax= 7.67D-02

 Cycle   3  Pass 1  IDiag  1:
 RMSU=  5.70D-04    CP:  1.02D+00  5.75D-01
 FoFJK:  IHMeth= 1 ICntrl=     0 DoSepK=T KAlg= 1 I1Cent= 0 FoldK=F
 E= -2905.41813920549     Delta-E=       -0.190862197145 Rises=F Damp=F
 DIIS: error= 6.81D-03 at cycle   3 NSaved=   3.
 NSaved= 3 IEnMin= 3 EnMin= -2905.41813920549     IErMin= 3 ErrMin= 6.81D-03
 ErrMax= 6.81D-03 EMaxC= 1.00D-01 BMatC= 2.03D-02 BMatP= 5.62D-01
 IDIUse=3 WtCom= 9.32D-01 WtEn= 6.81D-02
 Coeff-Com:  0.341D-01 0.195D+00 0.770D+00
 Coeff-En:   0.000D+00 0.000D+00 0.100D+01
 Coeff:      0.318D-01 0.182D+00 0.786D+00
 Gap=     0.401 Goal=   None    Shift=    0.000
 RMSDP=5.11D-04 MaxDP=2.03D-02 DE=-1.91D-01 OVMax= 2.62D-02

 Cycle   4  Pass 1  IDiag  1:
 RMSU=  2.39D-04    CP:  1.02D+00  6.36D-01  8.67D-01
 FoFJK:  IHMeth= 1 ICntrl=     0 DoSepK=T KAlg= 1 I1Cent= 0 FoldK=F
 E= -2905.42706613788     Delta-E=       -0.008926932391 Rises=F Damp=F
 DIIS: error= 2.93D-03 at cycle   4 NSaved=   4.
 NSaved= 4 IEnMin= 4 EnMin= -2905.42706613788     IErMin= 4 ErrMin= 2.93D-03
 ErrMax= 2.93D-03 EMaxC= 1.00D-01 BMatC= 1.99D-03 BMatP= 2.03D-02
 IDIUse=3 WtCom= 9.71D-01 WtEn= 2.93D-02
 Coeff-Com: -0.106D-02 0.562D-01 0.381D+00 0.564D+00
 Coeff-En:   0.000D+00 0.000D+00 0.000D+00 0.100D+01
 Coeff:     -0.103D-02 0.545D-01 0.370D+00 0.577D+00
 Gap=     0.386 Goal=   None    Shift=    0.000
 RMSDP=1.26D-04 MaxDP=7.17D-03 DE=-8.93D-03 OVMax= 7.68D-03

 Cycle   5  Pass 1  IDiag  1:
 RMSU=  3.99D-05    CP:  1.02D+00  6.34D-01  9.14D-01  6.90D-01
 FoFJK:  IHMeth= 1 ICntrl=     0 DoSepK=T KAlg= 1 I1Cent= 0 FoldK=F
 E= -2905.42826163804     Delta-E=       -0.001195500162 Rises=F Damp=F
 DIIS: error= 3.51D-04 at cycle   5 NSaved=   5.
 NSaved= 5 IEnMin= 5 EnMin= -2905.42826163804     IErMin= 5 ErrMin= 3.51D-04
 ErrMax= 3.51D-04 EMaxC= 1.00D-01 BMatC= 3.74D-05 BMatP= 1.99D-03
 IDIUse=3 WtCom= 9.96D-01 WtEn= 3.51D-03
 Coeff-Com: -0.114D-02 0.186D-01 0.142D+00 0.237D+00 0.604D+00
 Coeff-En:   0.000D+00 0.000D+00 0.000D+00 0.000D+00 0.100D+01
 Coeff:     -0.114D-02 0.186D-01 0.141D+00 0.236D+00 0.605D+00
 Gap=     0.385 Goal=   None    Shift=    0.000
 RMSDP=2.28D-05 MaxDP=9.94D-04 DE=-1.20D-03 OVMax= 1.87D-03

 Cycle   6  Pass 1  IDiag  1:
 RMSU=  1.54D-05    CP:  1.02D+00  6.34D-01  9.17D-01  7.07D-01  9.69D-01
 FoFJK:  IHMeth= 1 ICntrl=     0 DoSepK=T KAlg= 1 I1Cent= 0 FoldK=F
 E= -2905.42828153786     Delta-E=       -0.000019899816 Rises=F Damp=F
 DIIS: error= 1.72D-04 at cycle   6 NSaved=   6.
 NSaved= 6 IEnMin= 6 EnMin= -2905.42828153786     IErMin= 6 ErrMin= 1.72D-04
 ErrMax= 1.72D-04 EMaxC= 1.00D-01 BMatC= 8.44D-06 BMatP= 3.74D-05
 IDIUse=3 WtCom= 9.98D-01 WtEn= 1.72D-03
 Coeff-Com: -0.360D-03-0.561D-02-0.269D-01-0.317D-01 0.317D+00 0.747D+00
 Coeff-En:   0.000D+00 0.000D+00 0.000D+00 0.000D+00 0.141D+00 0.859D+00
 Coeff:     -0.359D-03-0.560D-02-0.268D-01-0.316D-01 0.317D+00 0.748D+00
 Gap=     0.385 Goal=   None    Shift=    0.000
 RMSDP=1.22D-05 MaxDP=4.67D-04 DE=-1.99D-05 OVMax= 6.62D-04

 Cycle   7  Pass 1  IDiag  1:
 RMSU=  3.99D-06    CP:  1.02D+00  6.34D-01  9.24D-01  7.15D-01  1.12D+00
                    CP:  9.28D-01
 FoFJK:  IHMeth= 1 ICntrl=     0 DoSepK=T KAlg= 1 I1Cent= 0 FoldK=F
 E= -2905.42828761441     Delta-E=       -0.000006076551 Rises=F Damp=F
 DIIS: error= 1.58D-05 at cycle   7 NSaved=   7.
 NSaved= 7 IEnMin= 7 EnMin= -2905.42828761441     IErMin= 7 ErrMin= 1.58D-05
 ErrMax= 1.58D-05 EMaxC= 1.00D-01 BMatC= 3.98D-08 BMatP= 8.44D-06
 IDIUse=1 WtCom= 1.00D+00 WtEn= 0.00D+00
 Coeff-Com:  0.235D-04-0.853D-03-0.596D-02-0.846D-02-0.966D-02 0.354D-01
 Coeff-Com:  0.989D+00
 Coeff:      0.235D-04-0.853D-03-0.596D-02-0.846D-02-0.966D-02 0.354D-01
 Coeff:      0.989D+00
 Gap=     0.385 Goal=   None    Shift=    0.000
 RMSDP=2.27D-06 MaxDP=9.09D-05 DE=-6.08D-06 OVMax= 1.54D-04

 Cycle   8  Pass 1  IDiag  1:
 RMSU=  8.48D-07    CP:  1.02D+00  6.34D-01  9.25D-01  7.18D-01  1.14D+00
                    CP:  9.73D-01  1.15D+00
 FoFJK:  IHMeth= 1 ICntrl=     0 DoSepK=T KAlg= 1 I1Cent= 0 FoldK=F
 E= -2905.42828769827     Delta-E=       -0.000000083867 Rises=F Damp=F
 DIIS: error= 2.06D-06 at cycle   8 NSaved=   8.
 NSaved= 8 IEnMin= 8 EnMin= -2905.42828769827     IErMin= 8 ErrMin= 2.06D-06
 ErrMax= 2.06D-06 EMaxC= 1.00D-01 BMatC= 2.14D-09 BMatP= 3.98D-08
 IDIUse=1 WtCom= 1.00D+00 WtEn= 0.00D+00
 Coeff-Com:  0.110D-04 0.732D-04 0.238D-03-0.290D-04-0.126D-01-0.237D-01
 Coeff-Com:  0.723D-01 0.964D+00
 Coeff:      0.110D-04 0.732D-04 0.238D-03-0.290D-04-0.126D-01-0.237D-01
 Coeff:      0.723D-01 0.964D+00
 Gap=     0.385 Goal=   None    Shift=    0.000
 RMSDP=5.22D-07 MaxDP=1.98D-05 DE=-8.39D-08 OVMax= 3.77D-05

 Cycle   9  Pass 1  IDiag  1:
 RMSU=  1.50D-07    CP:  1.02D+00  6.34D-01  9.25D-01  7.18D-01  1.15D+00
                    CP:  9.80D-01  1.20D+00  1.22D+00
 FoFJK:  IHMeth= 1 ICntrl=     0 DoSepK=T KAlg= 1 I1Cent= 0 FoldK=F
 E= -2905.42828770273     Delta-E=       -0.000000004459 Rises=F Damp=F
 DIIS: error= 7.12D-07 at cycle   9 NSaved=   9.
 NSaved= 9 IEnMin= 9 EnMin= -2905.42828770273     IErMin= 9 ErrMin= 7.12D-07
 ErrMax= 7.12D-07 EMaxC= 1.00D-01 BMatC= 1.93D-10 BMatP= 2.14D-09
 IDIUse=1 WtCom= 1.00D+00 WtEn= 0.00D+00
 Coeff-Com: -0.652D-06 0.568D-04 0.381D-03 0.376D-03-0.103D-02-0.441D-02
 Coeff-Com: -0.526D-01 0.117D+00 0.941D+00
 Coeff:     -0.652D-06 0.568D-04 0.381D-03 0.376D-03-0.103D-02-0.441D-02
 Coeff:     -0.526D-01 0.117D+00 0.941D+00
 Gap=     0.385 Goal=   None    Shift=    0.000
 RMSDP=1.20D-07 MaxDP=4.57D-06 DE=-4.46D-09 OVMax= 9.15D-06

 Cycle  10  Pass 1  IDiag  1:
 RMSU=  4.16D-08    CP:  1.02D+00  6.34D-01  9.25D-01  7.18D-01  1.15D+00
                    CP:  9.81D-01  1.21D+00  1.29D+00  1.11D+00
 FoFJK:  IHMeth= 1 ICntrl=     0 DoSepK=T KAlg= 1 I1Cent= 0 FoldK=F
 E= -2905.42828770307     Delta-E=       -0.000000000338 Rises=F Damp=F
 DIIS: error= 1.45D-07 at cycle  10 NSaved=  10.
 NSaved=10 IEnMin=10 EnMin= -2905.42828770307     IErMin=10 ErrMin= 1.45D-07
 ErrMax= 1.45D-07 EMaxC= 1.00D-01 BMatC= 9.77D-12 BMatP= 1.93D-10
 IDIUse=1 WtCom= 1.00D+00 WtEn= 0.00D+00
 Coeff-Com: -0.424D-06 0.144D-05 0.149D-04 0.208D-04 0.848D-03 0.156D-02
 Coeff-Com: -0.694D-02-0.624D-01 0.532D-01 0.101D+01
 Coeff:     -0.424D-06 0.144D-05 0.149D-04 0.208D-04 0.848D-03 0.156D-02
 Coeff:     -0.694D-02-0.624D-01 0.532D-01 0.101D+01
 Gap=     0.385 Goal=   None    Shift=    0.000
 RMSDP=2.93D-08 MaxDP=6.18D-07 DE=-3.38D-10 OVMax= 2.81D-06

 Cycle  11  Pass 1  IDiag  1:
 RMSU=  1.12D-08    CP:  1.02D+00  6.34D-01  9.25D-01  7.18D-01  1.15D+00
                    CP:  9.81D-01  1.21D+00  1.29D+00  1.19D+00  1.23D+00
 FoFJK:  IHMeth= 1 ICntrl=     0 DoSepK=T KAlg= 1 I1Cent= 0 FoldK=F
 E= -2905.42828770309     Delta-E=       -0.000000000019 Rises=F Damp=F
 DIIS: error= 4.89D-08 at cycle  11 NSaved=  11.
 NSaved=11 IEnMin=11 EnMin= -2905.42828770309     IErMin=11 ErrMin= 4.89D-08
 ErrMax= 4.89D-08 EMaxC= 1.00D-01 BMatC= 7.13D-13 BMatP= 9.77D-12
 IDIUse=1 WtCom= 1.00D+00 WtEn= 0.00D+00
 Coeff-Com:  0.142D-06-0.203D-05-0.163D-04-0.540D-05 0.120D-04 0.111D-03
 Coeff-Com:  0.266D-02-0.444D-02-0.398D-01-0.293D-01 0.107D+01
 Coeff:      0.142D-06-0.203D-05-0.163D-04-0.540D-05 0.120D-04 0.111D-03
 Coeff:      0.266D-02-0.444D-02-0.398D-01-0.293D-01 0.107D+01
 Gap=     0.385 Goal=   None    Shift=    0.000
 RMSDP=8.93D-09 MaxDP=1.70D-07 DE=-1.86D-11 OVMax= 1.09D-06

 SCF Done:  E(RwB97XD) =  -2905.42828770     A.U. after   11 cycles
             Convg  =    0.8934D-08             -V/T =  2.0015
 KE= 2.900971570678D+03 PE=-7.235038134439D+03 EE= 1.280349672541D+03
 Leave Link  502 at Sat May  9 23:04:56 2020, MaxMem= 1073741824 cpu:     350.7
 (Enter /home/matheus/.gaussian/g09/l601.exe)
 Copying SCF densities to generalized density rwf, IOpCl= 0 IROHF=0.

 **********************************************************************

            Population analysis using the SCF density.

 **********************************************************************

 Orbital symmetries:
       Occupied  (A) (A) (A) (A) (A) (A) (A) (A) (A) (A) (A) (A)
                 (A) (A) (A) (A) (A) (A) (A) (A) (A) (A) (A) (A)
                 (A) (A) (A)
       Virtual   (A) (A) (A) (A) (A) (A) (A) (A) (A) (A) (A) (A)
                 (A) (A) (A) (A) (A) (A) (A) (A) (A) (A) (A) (A)
                 (A) (A) (A) (A) (A) (A) (A) (A) (A) (A) (A) (A)
                 (A) (A) (A) (A) (A) (A) (A) (A) (A) (A) (A) (A)
                 (A) (A) (A) (A) (A) (A) (A) (A) (A) (A) (A) (A)
                 (A) (A) (A) (A) (A) (A) (A) (A) (A) (A) (A) (A)
                 (A) (A) (A) (A) (A) (A) (A) (A) (A) (A) (A) (A)
                 (A) (A) (A) (A) (A) (A) (A) (A) (A) (A) (A) (A)
                 (A) (A) (A) (A) (A) (A) (A) (A) (A) (A) (A) (A)
                 (A) (A) (A) (A) (A) (A) (A) (A) (A) (A) (A) (A)
                 (A) (A) (A) (A) (A) (A) (A) (A) (A) (A) (A) (A)
                 (A) (A) (A) (A) (A) (A) (A) (A) (A) (A) (A) (A)
                 (A) (A) (A) (A) (A) (A) (A) (A) (A) (A) (A) (A)
                 (A) (A) (A) (A) (A) (A) (A) (A) (A) (A) (A) (A)
                 (A) (A)
 The electronic state is 1-A.
 Alpha  occ. eigenvalues -- -513.06811 -67.33495 -60.88380 -60.88366 -60.88359
 Alpha  occ. eigenvalues --  -19.31476 -19.31059  -9.78802  -7.48137  -7.48087
 Alpha  occ. eigenvalues --   -7.48067  -3.34874  -3.34863  -3.34848  -3.34807
 Alpha  occ. eigenvalues --   -3.34806  -1.21842  -1.01020  -0.99414  -0.63122
 Alpha  occ. eigenvalues --   -0.59690  -0.49894  -0.48130  -0.47370  -0.46958
 Alpha  occ. eigenvalues --   -0.43722  -0.34881
 Alpha virt. eigenvalues --    0.03599   0.04223   0.07748   0.09866   0.10778
 Alpha virt. eigenvalues --    0.11641   0.13491   0.14217   0.17079   0.17401
 Alpha virt. eigenvalues --    0.18041   0.19446   0.20662   0.23049   0.23364
 Alpha virt. eigenvalues --    0.24387   0.26437   0.28059   0.29882   0.33311
 Alpha virt. eigenvalues --    0.33940   0.34260   0.36516   0.38515   0.39330
 Alpha virt. eigenvalues --    0.40105   0.42542   0.47880   0.51108   0.53739
 Alpha virt. eigenvalues --    0.56070   0.58483   0.63217   0.64185   0.67610
 Alpha virt. eigenvalues --    0.69937   0.70399   0.71938   0.73412   0.74105
 Alpha virt. eigenvalues --    0.75025   0.75335   0.77147   0.78321   0.79394
 Alpha virt. eigenvalues --    0.81452   0.84174   0.85959   0.87884   0.89125
 Alpha virt. eigenvalues --    0.90615   0.92540   0.94761   0.97091   0.97758
 Alpha virt. eigenvalues --    1.01738   1.02111   1.03230   1.04440   1.06687
 Alpha virt. eigenvalues --    1.10515   1.11709   1.14297   1.17155   1.18049
 Alpha virt. eigenvalues --    1.25477   1.29575   1.33549   1.38245   1.39128
 Alpha virt. eigenvalues --    1.47493   1.50112   1.51560   1.54342   1.56339
 Alpha virt. eigenvalues --    1.60512   1.76052   1.77467   1.83553   1.91967
 Alpha virt. eigenvalues --    1.96669   1.97060   2.02139   2.10846   2.12621
 Alpha virt. eigenvalues --    2.13424   2.14787   2.15848   2.17738   2.23577
 Alpha virt. eigenvalues --    2.25414   2.26584   2.28299   2.30847   2.32372
 Alpha virt. eigenvalues --    2.35538   2.36682   2.41995   2.44233   2.45825
 Alpha virt. eigenvalues --    2.46057   2.47730   2.49810   2.53159   2.55304
 Alpha virt. eigenvalues --    2.56842   2.59436   2.63602   2.66235   2.67599
 Alpha virt. eigenvalues --    2.68865   2.71865   2.73244   2.78658   2.86936
 Alpha virt. eigenvalues --    2.94558   3.05330   3.06885   3.13256   3.49750
 Alpha virt. eigenvalues --    3.72559   3.81456   3.88651   4.03202   4.03852
 Alpha virt. eigenvalues --    4.09413   4.13017   4.17403   4.21200   4.24409
 Alpha virt. eigenvalues --    4.36418   4.41195   4.51094   4.52638   4.71580
 Alpha virt. eigenvalues --    4.87571   4.99860   5.01145   5.05580   5.05935
 Alpha virt. eigenvalues --    5.34953   5.42338   5.81204   5.95694   6.06764
 Alpha virt. eigenvalues --    6.11726   6.27960   6.34058   6.41644   6.45182
 Alpha virt. eigenvalues --    6.68552   6.69370   6.72050   6.78763   6.84236
 Alpha virt. eigenvalues --    6.87129   6.90386   6.92208   6.93231   6.95995
 Alpha virt. eigenvalues --    6.99722   7.20208   7.23070   7.36887   7.60262
 Alpha virt. eigenvalues --    7.82127   8.09708   8.12826  14.13794  14.57956
          Condensed to atoms (all electrons):
              1          2          3          4          5
     1  O    8.164193  -0.160705   0.185889   0.006354  -0.029235
     2  O   -0.160705   8.257508   0.004679   0.199262  -0.018729
     3  H    0.185889   0.004679   0.616300   0.003495   0.003005
     4  H    0.006354   0.199262   0.003495   0.538840  -0.003573
     5  Kr  -0.029235  -0.018729   0.003005  -0.003573  36.042276
 Mulliken atomic charges:
              1
     1  O   -0.166495
     2  O   -0.282015
     3  H    0.186632
     4  H    0.255622
     5  Kr   0.006256
 Sum of Mulliken atomic charges =   0.00000
 Mulliken charges with hydrogens summed into heavy atoms:
              1
     1  O    0.020137
     2  O   -0.026393
     5  Kr   0.006256
 Sum of Mulliken charges with hydrogens summed into heavy atoms =   0.00000
          Condensed to fragments (all electrons):
     1      -0.006256
     2       0.006256
 Electronic spatial extent (au):  <R**2>=            492.3117
 Charge=              0.0000 electrons
 Dipole moment (field-independent basis, Debye):
    X=             -0.1994    Y=             -0.2897    Z=              0.2695  Tot=              0.4431
 Quadrupole moment (field-independent basis, Debye-Ang):
   XX=            -26.2182   YY=            -28.3078   ZZ=            -30.6078
   XY=             -3.8279   XZ=              0.8709   YZ=             -0.2832
 Traceless Quadrupole moment (field-independent basis, Debye-Ang):
   XX=              2.1597   YY=              0.0701   ZZ=             -2.2299
   XY=             -3.8279   XZ=              0.8709   YZ=             -0.2832
 Octapole moment (field-independent basis, Debye-Ang**2):
  XXX=              0.4423  YYY=             -0.6329  ZZZ=              0.0912  XYY=             -4.2564
  XXY=            -16.3073  XXZ=              2.6533  XZZ=             -8.5868  YZZ=             -0.3442
  YYZ=              0.3258  XYZ=             -0.8956
 Hexadecapole moment (field-independent basis, Debye-Ang**3):
 XXXX=           -340.2076 YYYY=            -63.7986 ZZZZ=            -29.6111 XXXY=            -51.5329
 XXXZ=              8.1539 YYYX=             -5.4821 YYYZ=             -0.3432 ZZZX=              0.3207
 ZZZY=             -0.1461 XXYY=            -74.9110 XXZZ=            -79.9555 YYZZ=            -17.4949
 XXYZ=             -2.7383 YYXZ=              0.9825 ZZXY=             -0.4455
 N-N= 1.482886035171D+02 E-N=-7.235038136935D+03  KE= 2.900971570678D+03
 No NMR shielding tensors so no spin-rotation constants.
 Leave Link  601 at Sat May  9 23:04:57 2020, MaxMem= 1073741824 cpu:       0.8
 (Enter /home/matheus/.gaussian/g09/l122.exe)
 Counterpoise: doing DCBS calculation for fragment   1 NewBq=T
 Leave Link  122 at Sat May  9 23:04:57 2020, MaxMem= 1073741824 cpu:       0.0
 (Enter /home/matheus/.gaussian/g09/l301.exe)
 Basis read from rwf:  (5D, 7F)
 No pseudopotential information found on rwf file.
 There are   197 symmetry adapted basis functions of A   symmetry.
 Integral buffers will be    131072 words long.
 Raffenetti 2 integral format.
 Two-electron integral symmetry is turned on.
   197 basis functions,   415 primitive gaussians,   229 cartesian basis functions
     9 alpha electrons        9 beta electrons
       nuclear repulsion energy        36.6009457491 Hartrees.
 IExCor= 4639 DFT=T Ex+Corr=wB97XD ExCW=0 ScaHFX=  1.000000
 ScaDFX=  1.000000  1.000000  1.000000  1.000000 ScalE2=  1.000000  1.000000
 IRadAn=      5 IRanWt=     -1 IRanGd=            0 ICorTp=0
  HFx wShort=  0.000000 wLong=  0.200000 cFull=  0.222036 cShort=  0.000000 cLong=  0.777964
  DFx wShort=  0.000000 wLong=  0.200000 cFull=  0.000000 cShort=  0.000000 cLong=  1.000000
 NAtoms=    5 NActive=    5 NUniq=    5 SFac= 1.00D+00 NAtFMM=   60 NAOKFM=F Big=F
 R6Disp: Dispersion energy =        -0.0001980872 Hartrees.
 Nuclear repulsion after empirical dispersion term =       36.6007476619 Hartrees.
 No density basis found on file   718.
 Leave Link  301 at Sat May  9 23:04:57 2020, MaxMem= 1073741824 cpu:       0.2
 (Enter /home/matheus/.gaussian/g09/l302.exe)
 NPDir=0 NMtPBC=     1 NCelOv=     1 NCel=       1 NClECP=     1 NCelD=      1
         NCelK=      1 NCelE2=     1 NClLst=     1 CellRange=     0.0.
 One-electron integrals computed using PRISM.
 NBasis=   197 RedAO= T  NBF=   197
 NBsUse=   197 1.00D-06 NBFU=   197
 Precomputing XC quadrature grid using
 IXCGrd= 2 IRadAn=           5 IRanWt=          -1 IRanGd=           0 AccXCQ= 0.00D+00.
 NRdTot=     427 NPtTot=      123814 NUsed=      126881 NTot=      126913
 NSgBfM=   229   229   229   229   229 NAtAll=     5     5.
 Leave Link  302 at Sat May  9 23:04:57 2020, MaxMem= 1073741824 cpu:       1.0
 (Enter /home/matheus/.gaussian/g09/l303.exe)
 DipDrv:  MaxL=1.
 Leave Link  303 at Sat May  9 23:04:57 2020, MaxMem= 1073741824 cpu:       0.2
 (Enter /home/matheus/.gaussian/g09/l401.exe)
 Harris functional with IExCor= 4639 diagonalized for initial guess.
 ExpMin= 2.53D-02 ExpMax= 1.17D+07 ExpMxC= 1.33D+04 IAcc=3 IRadAn=         5 AccDes= 0.00D+00
 HarFok:  IExCor= 4639 AccDes= 0.00D+00 IRadAn=         5 IDoV= 1
 ScaDFX=  1.000000  1.000000  1.000000  1.000000
 FoFCou: FMM=F IPFlag=           0 FMFlag=      100000 FMFlg1=           0
         NFxFlg=           0 DoJE=T BraDBF=F KetDBF=T FulRan=T
         Omega=  0.000000  0.000000  1.000000  0.000000  0.000000 ICntrl=     500 IOpCl=  0
         NMat0=    1 NMatS0=    1 NMatT0=    0 NMatD0=    1 NMtDS0=    0 NMtDT0=    0
         I1Cent=           4 NGrid=           0.
 Petite list used in FoFCou.
 Harris En= -146.291298642868    
 Initial guess orbital symmetries:
       Occupied  (A) (A) (A) (A) (A) (A) (A) (A) (A)
       Virtual   (A) (A) (A) (A) (A) (A) (A) (A) (A) (A) (A) (A)
                 (A) (A) (A) (A) (A) (A) (A) (A) (A) (A) (A) (A)
                 (A) (A) (A) (A) (A) (A) (A) (A) (A) (A) (A) (A)
                 (A) (A) (A) (A) (A) (A) (A) (A) (A) (A) (A) (A)
                 (A) (A) (A) (A) (A) (A) (A) (A) (A) (A) (A) (A)
                 (A) (A) (A) (A) (A) (A) (A) (A) (A) (A) (A) (A)
                 (A) (A) (A) (A) (A) (A) (A) (A) (A) (A) (A) (A)
                 (A) (A) (A) (A) (A) (A) (A) (A) (A) (A) (A) (A)
                 (A) (A) (A) (A) (A) (A) (A) (A) (A) (A) (A) (A)
                 (A) (A) (A) (A) (A) (A) (A) (A) (A) (A) (A) (A)
                 (A) (A) (A) (A) (A) (A) (A) (A) (A) (A) (A) (A)
                 (A) (A) (A) (A) (A) (A) (A) (A) (A) (A) (A) (A)
                 (A) (A) (A) (A) (A) (A) (A) (A) (A) (A) (A) (A)
                 (A) (A) (A) (A) (A) (A) (A) (A) (A) (A) (A) (A)
                 (A) (A) (A) (A) (A) (A) (A) (A) (A) (A) (A) (A)
                 (A) (A) (A) (A) (A) (A) (A) (A)
 The electronic state of the initial guess is 1-A.
 Leave Link  401 at Sat May  9 23:04:57 2020, MaxMem= 1073741824 cpu:       5.0
 (Enter /home/matheus/.gaussian/g09/l502.exe)
 Closed shell SCF:
 Requested convergence on RMS density matrix=1.00D-08 within 128 cycles.
 Requested convergence on MAX density matrix=1.00D-06.
 Requested convergence on             energy=1.00D-06.
 No special actions if energy rises.
 Using DIIS extrapolation, IDIIS=  1040.
 Integral symmetry usage will be decided dynamically.
       126823 words used for storage of precomputed grid.
 IEnd=      305770 IEndB=      305770 NGot=  1073741824 MDV=  1073505365
 LenX=  1073505365 LenY=  1073452483
 Fock matrices will be formed incrementally for  20 cycles.

 Cycle   1  Pass 1  IDiag  1:
 FoFJK:  IHMeth= 1 ICntrl=     0 DoSepK=T KAlg= 1 I1Cent= 0 FoldK=F
 FoFCou: FMM=F IPFlag=           0 FMFlag=      100000 FMFlg1=           0
         NFxFlg=           0 DoJE=T BraDBF=F KetDBF=F FulRan=T
         Omega=  0.000000  0.000000  1.000000  0.000000  0.000000 ICntrl=     500 IOpCl=  0
         NMat0=    1 NMatS0=    1 NMatT0=    0 NMatD0=    1 NMtDS0=    0 NMtDT0=    0
         I1Cent=           0 NGrid=           0.
 Symmetry not used in FoFCou.
 E= -151.476798093558    
 DIIS: error= 3.41D-02 at cycle   1 NSaved=   1.
 NSaved= 1 IEnMin= 1 EnMin= -151.476798093558     IErMin= 1 ErrMin= 3.41D-02
 ErrMax= 3.41D-02 EMaxC= 1.00D-01 BMatC= 2.99D-01 BMatP= 2.99D-01
 IDIUse=3 WtCom= 6.59D-01 WtEn= 3.41D-01
 Coeff-Com:  0.100D+01
 Coeff-En:   0.100D+01
 Coeff:      0.100D+01
 Gap=     0.496 Goal=   None    Shift=    0.000
 GapD=    0.496 DampG=2.000 DampE=0.500 DampFc=1.0000 IDamp=-1.
 RMSDP=2.32D-03 MaxDP=1.00D-01              OVMax= 1.09D-01

 Cycle   2  Pass 1  IDiag  1:
 RMSU=  1.61D-03    CP:  9.56D-01
 FoFJK:  IHMeth= 1 ICntrl=     0 DoSepK=T KAlg= 1 I1Cent= 0 FoldK=F
 E= -151.505938453744     Delta-E=       -0.029140360185 Rises=F Damp=F
 DIIS: error= 1.71D-02 at cycle   2 NSaved=   2.
 NSaved= 2 IEnMin= 2 EnMin= -151.505938453744     IErMin= 2 ErrMin= 1.71D-02
 ErrMax= 1.71D-02 EMaxC= 1.00D-01 BMatC= 8.90D-02 BMatP= 2.99D-01
 IDIUse=3 WtCom= 8.29D-01 WtEn= 1.71D-01
 Coeff-Com:  0.330D+00 0.670D+00
 Coeff-En:   0.366D+00 0.634D+00
 Coeff:      0.336D+00 0.664D+00
 Gap=     0.435 Goal=   None    Shift=    0.000
 RMSDP=9.80D-04 MaxDP=4.77D-02 DE=-2.91D-02 OVMax= 5.86D-02

 Cycle   3  Pass 1  IDiag  1:
 RMSU=  3.67D-04    CP:  9.76D-01  6.45D-01
 FoFJK:  IHMeth= 1 ICntrl=     0 DoSepK=T KAlg= 1 I1Cent= 0 FoldK=F
 E= -151.553900974771     Delta-E=       -0.047962521027 Rises=F Damp=F
 DIIS: error= 4.69D-03 at cycle   3 NSaved=   3.
 NSaved= 3 IEnMin= 3 EnMin= -151.553900974771     IErMin= 3 ErrMin= 4.69D-03
 ErrMax= 4.69D-03 EMaxC= 1.00D-01 BMatC= 6.36D-03 BMatP= 8.90D-02
 IDIUse=3 WtCom= 9.53D-01 WtEn= 4.69D-02
 Coeff-Com:  0.114D-01 0.218D+00 0.770D+00
 Coeff-En:   0.000D+00 0.000D+00 0.100D+01
 Coeff:      0.109D-01 0.208D+00 0.781D+00
 Gap=     0.386 Goal=   None    Shift=    0.000
 RMSDP=2.76D-04 MaxDP=1.24D-02 DE=-4.80D-02 OVMax= 1.64D-02

 Cycle   4  Pass 1  IDiag  1:
 RMSU=  6.35D-05    CP:  9.70D-01  7.49D-01  8.15D-01
 FoFJK:  IHMeth= 1 ICntrl=     0 DoSepK=T KAlg= 1 I1Cent= 0 FoldK=F
 E= -151.557956133722     Delta-E=       -0.004055158951 Rises=F Damp=F
 DIIS: error= 4.25D-04 at cycle   4 NSaved=   4.
 NSaved= 4 IEnMin= 4 EnMin= -151.557956133722     IErMin= 4 ErrMin= 4.25D-04
 ErrMax= 4.25D-04 EMaxC= 1.00D-01 BMatC= 4.71D-05 BMatP= 6.36D-03
 IDIUse=3 WtCom= 9.96D-01 WtEn= 4.25D-03
 Coeff-Com: -0.972D-03-0.384D-02 0.661D-01 0.939D+00
 Coeff-En:   0.000D+00 0.000D+00 0.000D+00 0.100D+01
 Coeff:     -0.968D-03-0.382D-02 0.659D-01 0.939D+00
 Gap=     0.384 Goal=   None    Shift=    0.000
 RMSDP=3.52D-05 MaxDP=1.95D-03 DE=-4.06D-03 OVMax= 1.44D-03

 Cycle   5  Pass 1  IDiag  1:
 RMSU=  1.19D-05    CP:  9.71D-01  7.43D-01  8.58D-01  1.15D+00
 FoFJK:  IHMeth= 1 ICntrl=     0 DoSepK=T KAlg= 1 I1Cent= 0 FoldK=F
 E= -151.557990734885     Delta-E=       -0.000034601164 Rises=F Damp=F
 DIIS: error= 3.83D-05 at cycle   5 NSaved=   5.
 NSaved= 5 IEnMin= 5 EnMin= -151.557990734885     IErMin= 5 ErrMin= 3.83D-05
 ErrMax= 3.83D-05 EMaxC= 1.00D-01 BMatC= 3.23D-07 BMatP= 4.71D-05
 IDIUse=1 WtCom= 1.00D+00 WtEn= 0.00D+00
 Coeff-Com: -0.416D-03-0.833D-02-0.309D-01-0.330D-01 0.107D+01
 Coeff:     -0.416D-03-0.833D-02-0.309D-01-0.330D-01 0.107D+01
 Gap=     0.383 Goal=   None    Shift=    0.000
 RMSDP=8.13D-06 MaxDP=3.57D-04 DE=-3.46D-05 OVMax= 5.62D-04

 Cycle   6  Pass 1  IDiag  1:
 RMSU=  2.19D-06    CP:  9.71D-01  7.43D-01  8.65D-01  1.21D+00  1.22D+00
 FoFJK:  IHMeth= 1 ICntrl=     0 DoSepK=T KAlg= 1 I1Cent= 0 FoldK=F
 E= -151.557991556864     Delta-E=       -0.000000821978 Rises=F Damp=F
 DIIS: error= 1.08D-05 at cycle   6 NSaved=   6.
 NSaved= 6 IEnMin= 6 EnMin= -151.557991556864     IErMin= 6 ErrMin= 1.08D-05
 ErrMax= 1.08D-05 EMaxC= 1.00D-01 BMatC= 2.56D-08 BMatP= 3.23D-07
 IDIUse=1 WtCom= 1.00D+00 WtEn= 0.00D+00
 Coeff-Com: -0.307D-04-0.119D-02-0.667D-02-0.273D-01 0.164D+00 0.871D+00
 Coeff:     -0.307D-04-0.119D-02-0.667D-02-0.273D-01 0.164D+00 0.871D+00
 Gap=     0.383 Goal=   None    Shift=    0.000
 RMSDP=1.32D-06 MaxDP=5.17D-05 DE=-8.22D-07 OVMax= 1.03D-04

 Cycle   7  Pass 1  IDiag  1:
 RMSU=  5.64D-07    CP:  9.71D-01  7.43D-01  8.65D-01  1.21D+00  1.27D+00
                    CP:  1.22D+00
 FoFJK:  IHMeth= 1 ICntrl=     0 DoSepK=T KAlg= 1 I1Cent= 0 FoldK=F
 E= -151.557991585667     Delta-E=       -0.000000028803 Rises=F Damp=F
 DIIS: error= 7.90D-06 at cycle   7 NSaved=   7.
 NSaved= 7 IEnMin= 7 EnMin= -151.557991585667     IErMin= 7 ErrMin= 7.90D-06
 ErrMax= 7.90D-06 EMaxC= 1.00D-01 BMatC= 1.66D-08 BMatP= 2.56D-08
 IDIUse=1 WtCom= 1.00D+00 WtEn= 0.00D+00
 Coeff-Com:  0.204D-04 0.126D-03-0.656D-03-0.114D-01-0.172D-01 0.468D+00
 Coeff-Com:  0.562D+00
 Coeff:      0.204D-04 0.126D-03-0.656D-03-0.114D-01-0.172D-01 0.468D+00
 Coeff:      0.562D+00
 Gap=     0.383 Goal=   None    Shift=    0.000
 RMSDP=4.67D-07 MaxDP=2.12D-05 DE=-2.88D-08 OVMax= 3.42D-05

 Cycle   8  Pass 1  IDiag  1:
 RMSU=  1.97D-07    CP:  9.71D-01  7.43D-01  8.65D-01  1.21D+00  1.28D+00
                    CP:  1.31D+00  7.69D-01
 FoFJK:  IHMeth= 1 ICntrl=     0 DoSepK=T KAlg= 1 I1Cent= 0 FoldK=F
 E= -151.557991597701     Delta-E=       -0.000000012034 Rises=F Damp=F
 DIIS: error= 1.91D-06 at cycle   8 NSaved=   8.
 NSaved= 8 IEnMin= 8 EnMin= -151.557991597701     IErMin= 8 ErrMin= 1.91D-06
 ErrMax= 1.91D-06 EMaxC= 1.00D-01 BMatC= 1.11D-09 BMatP= 1.66D-08
 IDIUse=1 WtCom= 1.00D+00 WtEn= 0.00D+00
 Coeff-Com:  0.760D-05 0.233D-03 0.113D-02 0.229D-02-0.386D-01-0.577D-01
 Coeff-Com:  0.169D+00 0.924D+00
 Coeff:      0.760D-05 0.233D-03 0.113D-02 0.229D-02-0.386D-01-0.577D-01
 Coeff:      0.169D+00 0.924D+00
 Gap=     0.383 Goal=   None    Shift=    0.000
 RMSDP=2.00D-07 MaxDP=6.11D-06 DE=-1.20D-08 OVMax= 1.76D-05

 Cycle   9  Pass 1  IDiag  1:
 RMSU=  5.66D-08    CP:  9.71D-01  7.43D-01  8.65D-01  1.21D+00  1.28D+00
                    CP:  1.35D+00  9.06D-01  1.05D+00
 FoFJK:  IHMeth= 1 ICntrl=     0 DoSepK=T KAlg= 1 I1Cent= 0 FoldK=F
 E= -151.557991599036     Delta-E=       -0.000000001335 Rises=F Damp=F
 DIIS: error= 2.34D-07 at cycle   9 NSaved=   9.
 NSaved= 9 IEnMin= 9 EnMin= -151.557991599036     IErMin= 9 ErrMin= 2.34D-07
 ErrMax= 2.34D-07 EMaxC= 1.00D-01 BMatC= 1.65D-11 BMatP= 1.11D-09
 IDIUse=1 WtCom= 1.00D+00 WtEn= 0.00D+00
 Coeff-Com: -0.247D-06 0.696D-05 0.872D-04 0.528D-03-0.296D-04-0.281D-01
 Coeff-Com: -0.144D-01 0.761D-01 0.966D+00
 Coeff:     -0.247D-06 0.696D-05 0.872D-04 0.528D-03-0.296D-04-0.281D-01
 Coeff:     -0.144D-01 0.761D-01 0.966D+00
 Gap=     0.383 Goal=   None    Shift=    0.000
 RMSDP=3.56D-08 MaxDP=6.58D-07 DE=-1.33D-09 OVMax= 3.75D-06

 Cycle  10  Pass 1  IDiag  1:
 RMSU=  1.26D-08    CP:  9.71D-01  7.43D-01  8.65D-01  1.21D+00  1.28D+00
                    CP:  1.35D+00  9.14D-01  1.10D+00  1.30D+00
 FoFJK:  IHMeth= 1 ICntrl=     0 DoSepK=T KAlg= 1 I1Cent= 0 FoldK=F
 E= -151.557991599074     Delta-E=       -0.000000000038 Rises=F Damp=F
 DIIS: error= 8.01D-08 at cycle  10 NSaved=  10.
 NSaved=10 IEnMin=10 EnMin= -151.557991599074     IErMin=10 ErrMin= 8.01D-08
 ErrMax= 8.01D-08 EMaxC= 1.00D-01 BMatC= 1.83D-12 BMatP= 1.65D-11
 IDIUse=1 WtCom= 1.00D+00 WtEn= 0.00D+00
 Coeff-Com:  0.102D-06-0.652D-05-0.616D-04-0.222D-03 0.190D-02 0.495D-02
 Coeff-Com: -0.570D-02-0.471D-01-0.162D+00 0.121D+01
 Coeff:      0.102D-06-0.652D-05-0.616D-04-0.222D-03 0.190D-02 0.495D-02
 Coeff:     -0.570D-02-0.471D-01-0.162D+00 0.121D+01
 Gap=     0.383 Goal=   None    Shift=    0.000
 RMSDP=1.86D-08 MaxDP=4.45D-07 DE=-3.78D-11 OVMax= 2.12D-06

 Cycle  11  Pass 1  IDiag  1:
 RMSU=  4.44D-09    CP:  9.71D-01  7.43D-01  8.65D-01  1.21D+00  1.28D+00
                    CP:  1.34D+00  9.17D-01  1.11D+00  1.44D+00  1.46D+00
 FoFJK:  IHMeth= 1 ICntrl=     0 DoSepK=T KAlg= 1 I1Cent= 0 FoldK=F
 E= -151.557991599080     Delta-E=       -0.000000000007 Rises=F Damp=F
 DIIS: error= 3.42D-08 at cycle  11 NSaved=  11.
 NSaved=11 IEnMin=11 EnMin= -151.557991599080     IErMin=11 ErrMin= 3.42D-08
 ErrMax= 3.42D-08 EMaxC= 1.00D-01 BMatC= 1.08D-13 BMatP= 1.83D-12
 IDIUse=1 WtCom= 1.00D+00 WtEn= 0.00D+00
 Coeff-Com: -0.102D-06-0.338D-07 0.806D-05 0.278D-04-0.362D-03-0.298D-03
 Coeff-Com:  0.209D-02 0.995D-02-0.690D-02-0.348D+00 0.134D+01
 Coeff:     -0.102D-06-0.338D-07 0.806D-05 0.278D-04-0.362D-03-0.298D-03
 Coeff:      0.209D-02 0.995D-02-0.690D-02-0.348D+00 0.134D+01
 Gap=     0.383 Goal=   None    Shift=    0.000
 RMSDP=6.38D-09 MaxDP=1.49D-07 DE=-6.65D-12 OVMax= 9.75D-07

 SCF Done:  E(RwB97XD) =  -151.557991599     A.U. after   11 cycles
             Convg  =    0.6375D-08             -V/T =  2.0059
 KE= 1.506660543094D+02 PE=-4.317246785068D+02 EE= 9.289988493643D+01
 Leave Link  502 at Sat May  9 23:05:36 2020, MaxMem= 1073741824 cpu:     309.2
 (Enter /home/matheus/.gaussian/g09/l601.exe)
 Copying SCF densities to generalized density rwf, IOpCl= 0 IROHF=0.

 **********************************************************************

            Population analysis using the SCF density.

 **********************************************************************

 Orbital symmetries:
       Occupied  (A) (A) (A) (A) (A) (A) (A) (A) (A)
       Virtual   (A) (A) (A) (A) (A) (A) (A) (A) (A) (A) (A) (A)
                 (A) (A) (A) (A) (A) (A) (A) (A) (A) (A) (A) (A)
                 (A) (A) (A) (A) (A) (A) (A) (A) (A) (A) (A) (A)
                 (A) (A) (A) (A) (A) (A) (A) (A) (A) (A) (A) (A)
                 (A) (A) (A) (A) (A) (A) (A) (A) (A) (A) (A) (A)
                 (A) (A) (A) (A) (A) (A) (A) (A) (A) (A) (A) (A)
                 (A) (A) (A) (A) (A) (A) (A) (A) (A) (A) (A) (A)
                 (A) (A) (A) (A) (A) (A) (A) (A) (A) (A) (A) (A)
                 (A) (A) (A) (A) (A) (A) (A) (A) (A) (A) (A) (A)
                 (A) (A) (A) (A) (A) (A) (A) (A) (A) (A) (A) (A)
                 (A) (A) (A) (A) (A) (A) (A) (A) (A) (A) (A) (A)
                 (A) (A) (A) (A) (A) (A) (A) (A) (A) (A) (A) (A)
                 (A) (A) (A) (A) (A) (A) (A) (A) (A) (A) (A) (A)
                 (A) (A) (A) (A) (A) (A) (A) (A) (A) (A) (A) (A)
                 (A) (A) (A) (A) (A) (A) (A) (A) (A) (A) (A) (A)
                 (A) (A) (A) (A) (A) (A) (A) (A)
 The electronic state is 1-A.
 Alpha  occ. eigenvalues --  -19.31605 -19.31600  -1.22050  -1.01128  -0.63267
 Alpha  occ. eigenvalues --   -0.59254  -0.49943  -0.44278  -0.35111
 Alpha virt. eigenvalues --    0.03230   0.03674   0.06984   0.09241   0.09437
 Alpha virt. eigenvalues --    0.10704   0.11212   0.14037   0.16608   0.17522
 Alpha virt. eigenvalues --    0.18288   0.20111   0.21205   0.23119   0.26946
 Alpha virt. eigenvalues --    0.27344   0.29710   0.31348   0.31935   0.33564
 Alpha virt. eigenvalues --    0.37068   0.37927   0.38741   0.39483   0.41833
 Alpha virt. eigenvalues --    0.43169   0.44164   0.47277   0.49306   0.50000
 Alpha virt. eigenvalues --    0.54564   0.57897   0.59876   0.64784   0.66654
 Alpha virt. eigenvalues --    0.68097   0.72187   0.74061   0.74600   0.75107
 Alpha virt. eigenvalues --    0.77434   0.81672   0.83212   0.86896   0.89871
 Alpha virt. eigenvalues --    0.90742   0.91693   0.95093   0.96863   0.99047
 Alpha virt. eigenvalues --    1.00442   1.03687   1.04774   1.09063   1.13540
 Alpha virt. eigenvalues --    1.14313   1.15355   1.16918   1.17769   1.23814
 Alpha virt. eigenvalues --    1.25475   1.30042   1.32891   1.33111   1.34026
 Alpha virt. eigenvalues --    1.34376   1.35076   1.37076   1.37172   1.45124
 Alpha virt. eigenvalues --    1.48118   1.49929   1.52170   1.52725   1.56011
 Alpha virt. eigenvalues --    1.57000   1.64123   1.66577   1.72224   1.77542
 Alpha virt. eigenvalues --    1.79389   1.82532   1.87922   1.95801   1.98586
 Alpha virt. eigenvalues --    2.00805   2.04501   2.12001   2.13341   2.17612
 Alpha virt. eigenvalues --    2.23438   2.26333   2.28791   2.35282   2.40968
 Alpha virt. eigenvalues --    2.46018   2.53632   2.54373   2.55861   2.64423
 Alpha virt. eigenvalues --    2.66219   2.67926   2.72077   2.83240   2.92062
 Alpha virt. eigenvalues --    3.04647   3.06563   3.09882   3.26940   3.31075
 Alpha virt. eigenvalues --    3.38698   3.49187   3.61166   3.68889   3.77997
 Alpha virt. eigenvalues --    3.80201   3.80647   3.82679   3.83569   3.84307
 Alpha virt. eigenvalues --    3.87893   3.89253   3.90932   3.92624   3.94990
 Alpha virt. eigenvalues --    3.96613   4.05034   4.07794   4.10547   4.10841
 Alpha virt. eigenvalues --    4.11467   4.18822   4.19331   4.26065   4.33060
 Alpha virt. eigenvalues --    4.39388   4.44529   4.55242   4.72191   4.87581
 Alpha virt. eigenvalues --    5.00011   5.01663   5.05683   5.05720   5.35184
 Alpha virt. eigenvalues --    5.42236   5.81166   5.95545   6.06586   6.11478
 Alpha virt. eigenvalues --    6.27897   6.34011   6.41511   6.45025   6.68330
 Alpha virt. eigenvalues --    6.69218   6.71862   6.78629   6.84094   6.86956
 Alpha virt. eigenvalues --    6.90046   6.91850   6.92862   6.95771   6.99548
 Alpha virt. eigenvalues --    7.19988   7.23034   7.36645   7.59976   7.81924
 Alpha virt. eigenvalues --    8.09512   8.12434  10.90567  14.13808  14.56379
 Alpha virt. eigenvalues --   14.84502  14.89677  15.12404  29.04250  29.04871
 Alpha virt. eigenvalues --   29.09137  29.15144  29.24511  49.12045 148.32457
 Alpha virt. eigenvalues --  148.40135 148.73231 752.52811
          Condensed to atoms (all electrons):
              1          2          3          4          5
     1  O    8.196817  -0.157061   0.170724  -0.001242  -0.008882
     2  O   -0.157061   8.183537   0.005284   0.217092  -0.000444
     3  H    0.170724   0.005284   0.614675   0.005436   0.001627
     4  H   -0.001242   0.217092   0.005436   0.545175  -0.003518
     5  Kr  -0.008882  -0.000444   0.001627  -0.003518   0.001763
 Mulliken atomic charges:
              1
     1  O   -0.200357
     2  O   -0.248408
     3  H    0.202253
     4  H    0.237058
     5  Kr   0.009455
 Sum of Mulliken atomic charges =   0.00000
 Mulliken charges with hydrogens summed into heavy atoms:
              1
     1  O    0.001896
     2  O   -0.011351
     5  Kr   0.009455
 Sum of Mulliken charges with hydrogens summed into heavy atoms =   0.00000
          Condensed to fragments (all electrons):
     1      -0.009455
     2       0.009455
 Electronic spatial extent (au):  <R**2>=            324.5712
 Charge=              0.0000 electrons
 Dipole moment (field-independent basis, Debye):
    X=             -0.0233    Y=             -0.0040    Z=              0.2754  Tot=              0.2765
 Quadrupole moment (field-independent basis, Debye-Ang):
   XX=             -8.5938   YY=            -10.6924   ZZ=            -13.0584
   XY=             -3.9987   XZ=              0.8660   YZ=             -0.2819
 Traceless Quadrupole moment (field-independent basis, Debye-Ang):
   XX=              2.1877   YY=              0.0892   ZZ=             -2.2769
   XY=             -3.9987   XZ=              0.8660   YZ=             -0.2819
 Octapole moment (field-independent basis, Debye-Ang**2):
  XXX=            -51.3397  YYY=             -1.2219  ZZZ=              0.1559  XYY=            -21.6948
  XXY=            -16.2405  XXZ=              2.6806  XZZ=            -26.0751  YZZ=             -0.5378
  YYZ=              0.3469  XYZ=             -0.8949
 Hexadecapole moment (field-independent basis, Debye-Ang**3):
 XXXX=           -215.2435 YYYY=            -45.4932 ZZZZ=            -11.4727 XXXY=            -50.7440
 XXXZ=              8.0936 YYYX=             -4.8609 YYYZ=             -0.3416 ZZZX=              0.2572
 ZZZY=             -0.1447 XXYY=            -51.0862 XXZZ=            -56.2710 YYZZ=            -11.4134
 XXYZ=             -2.7390 YYXZ=              0.9605 ZZXY=             -0.1966
 N-N= 3.660074766190D+01 E-N=-4.317246784452D+02  KE= 1.506660543094D+02
 No NMR shielding tensors so no spin-rotation constants.
 Leave Link  601 at Sat May  9 23:05:36 2020, MaxMem= 1073741824 cpu:       0.8
 (Enter /home/matheus/.gaussian/g09/l122.exe)
 Counterpoise: doing DCBS calculation for fragment   2 NewBq=T
 Leave Link  122 at Sat May  9 23:05:36 2020, MaxMem= 1073741824 cpu:       0.0
 (Enter /home/matheus/.gaussian/g09/l301.exe)
 Basis read from rwf:  (5D, 7F)
 No pseudopotential information found on rwf file.
 There are   197 symmetry adapted basis functions of A   symmetry.
 Integral buffers will be    131072 words long.
 Raffenetti 2 integral format.
 Two-electron integral symmetry is turned on.
   197 basis functions,   415 primitive gaussians,   229 cartesian basis functions
    18 alpha electrons       18 beta electrons
       nuclear repulsion energy         0.0000000000 Hartrees.
 IExCor= 4639 DFT=T Ex+Corr=wB97XD ExCW=0 ScaHFX=  1.000000
 ScaDFX=  1.000000  1.000000  1.000000  1.000000 ScalE2=  1.000000  1.000000
 IRadAn=      5 IRanWt=     -1 IRanGd=            0 ICorTp=0
  HFx wShort=  0.000000 wLong=  0.200000 cFull=  0.222036 cShort=  0.000000 cLong=  0.777964
  DFx wShort=  0.000000 wLong=  0.200000 cFull=  0.000000 cShort=  0.000000 cLong=  1.000000
 NAtoms=    5 NActive=    5 NUniq=    5 SFac= 1.00D+00 NAtFMM=   60 NAOKFM=F Big=F
 R6Disp: Dispersion energy =         0.0000000000 Hartrees.
 Nuclear repulsion after empirical dispersion term =        0.0000000000 Hartrees.
 No density basis found on file   718.
 Leave Link  301 at Sat May  9 23:05:36 2020, MaxMem= 1073741824 cpu:       0.2
 (Enter /home/matheus/.gaussian/g09/l302.exe)
 NPDir=0 NMtPBC=     1 NCelOv=     1 NCel=       1 NClECP=     1 NCelD=      1
         NCelK=      1 NCelE2=     1 NClLst=     1 CellRange=     0.0.
 One-electron integrals computed using PRISM.
 NBasis=   197 RedAO= T  NBF=   197
 NBsUse=   197 1.00D-06 NBFU=   197
 Precomputing XC quadrature grid using
 IXCGrd= 2 IRadAn=           5 IRanWt=          -1 IRanGd=           0 AccXCQ= 0.00D+00.
 NRdTot=     427 NPtTot=      123814 NUsed=      126881 NTot=      126913
 NSgBfM=   229   229   229   229   229 NAtAll=     5     5.
 Leave Link  302 at Sat May  9 23:05:36 2020, MaxMem= 1073741824 cpu:       1.0
 (Enter /home/matheus/.gaussian/g09/l303.exe)
 DipDrv:  MaxL=1.
 Leave Link  303 at Sat May  9 23:05:37 2020, MaxMem= 1073741824 cpu:       0.2
 (Enter /home/matheus/.gaussian/g09/l401.exe)
 Harris functional with IExCor= 4639 diagonalized for initial guess.
 ExpMin= 2.53D-02 ExpMax= 1.17D+07 ExpMxC= 1.33D+04 IAcc=3 IRadAn=         5 AccDes= 0.00D+00
 HarFok:  IExCor= 4639 AccDes= 0.00D+00 IRadAn=         5 IDoV= 1
 ScaDFX=  1.000000  1.000000  1.000000  1.000000
 FoFCou: FMM=F IPFlag=           0 FMFlag=      100000 FMFlg1=           0
         NFxFlg=           0 DoJE=T BraDBF=F KetDBF=T FulRan=T
         Omega=  0.000000  0.000000  1.000000  0.000000  0.000000 ICntrl=     500 IOpCl=  0
         NMat0=    1 NMatS0=    1 NMatT0=    0 NMatD0=    1 NMtDS0=    0 NMtDT0=    0
         I1Cent=           4 NGrid=           0.
 Petite list used in FoFCou.
 Harris En= -2730.20436133958    
 Initial guess orbital symmetries:
       Occupied  (A) (A) (A) (A) (A) (A) (A) (A) (A) (A) (A) (A)
                 (A) (A) (A) (A) (A) (A)
       Virtual   (A) (A) (A) (A) (A) (A) (A) (A) (A) (A) (A) (A)
                 (A) (A) (A) (A) (A) (A) (A) (A) (A) (A) (A) (A)
                 (A) (A) (A) (A) (A) (A) (A) (A) (A) (A) (A) (A)
                 (A) (A) (A) (A) (A) (A) (A) (A) (A) (A) (A) (A)
                 (A) (A) (A) (A) (A) (A) (A) (A) (A) (A) (A) (A)
                 (A) (A) (A) (A) (A) (A) (A) (A) (A) (A) (A) (A)
                 (A) (A) (A) (A) (A) (A) (A) (A) (A) (A) (A) (A)
                 (A) (A) (A) (A) (A) (A) (A) (A) (A) (A) (A) (A)
                 (A) (A) (A) (A) (A) (A) (A) (A) (A) (A) (A) (A)
                 (A) (A) (A) (A) (A) (A) (A) (A) (A) (A) (A) (A)
                 (A) (A) (A) (A) (A) (A) (A) (A) (A) (A) (A) (A)
                 (A) (A) (A) (A) (A) (A) (A) (A) (A) (A) (A) (A)
                 (A) (A) (A) (A) (A) (A) (A) (A) (A) (A) (A) (A)
                 (A) (A) (A) (A) (A) (A) (A) (A) (A) (A) (A) (A)
                 (A) (A) (A) (A) (A) (A) (A) (A) (A) (A) (A)
 The electronic state of the initial guess is 1-A.
 Leave Link  401 at Sat May  9 23:05:37 2020, MaxMem= 1073741824 cpu:       4.6
 (Enter /home/matheus/.gaussian/g09/l502.exe)
 Closed shell SCF:
 Requested convergence on RMS density matrix=1.00D-08 within 128 cycles.
 Requested convergence on MAX density matrix=1.00D-06.
 Requested convergence on             energy=1.00D-06.
 No special actions if energy rises.
 Using DIIS extrapolation, IDIIS=  1040.
 Integral symmetry usage will be decided dynamically.
       126823 words used for storage of precomputed grid.
 IEnd=      305770 IEndB=      305770 NGot=  1073741824 MDV=  1073505365
 LenX=  1073505365 LenY=  1073452483
 Fock matrices will be formed incrementally for  20 cycles.

 Cycle   1  Pass 1  IDiag  1:
 FoFJK:  IHMeth= 1 ICntrl=     0 DoSepK=T KAlg= 1 I1Cent= 0 FoldK=F
 FoFCou: FMM=F IPFlag=           0 FMFlag=      100000 FMFlg1=           0
         NFxFlg=           0 DoJE=T BraDBF=F KetDBF=F FulRan=T
         Omega=  0.000000  0.000000  1.000000  0.000000  0.000000 ICntrl=     500 IOpCl=  0
         NMat0=    1 NMatS0=    1 NMatT0=    0 NMatD0=    1 NMtDS0=    0 NMtDT0=    0
         I1Cent=           0 NGrid=           0.
 Symmetry not used in FoFCou.
 E= -2753.46459113952    
 DIIS: error= 7.74D-02 at cycle   1 NSaved=   1.
 NSaved= 1 IEnMin= 1 EnMin= -2753.46459113952     IErMin= 1 ErrMin= 7.74D-02
 ErrMax= 7.74D-02 EMaxC= 1.00D-01 BMatC= 1.87D+00 BMatP= 1.87D+00
 IDIUse=3 WtCom= 2.26D-01 WtEn= 7.74D-01
 Coeff-Com:  0.100D+01
 Coeff-En:   0.100D+01
 Coeff:      0.100D+01
 Gap=     0.634 Goal=   None    Shift=    0.000
 GapD=    0.634 DampG=2.000 DampE=0.500 DampFc=1.0000 IDamp=-1.
 RMSDP=5.68D-03 MaxDP=3.67D-01              OVMax= 1.78D-01

 Cycle   2  Pass 1  IDiag  1:
 RMSU=  3.95D-03    CP:  1.04D+00
 FoFJK:  IHMeth= 1 ICntrl=     0 DoSepK=T KAlg= 1 I1Cent= 0 FoldK=F
 E= -2753.72409673240     Delta-E=       -0.259505592882 Rises=F Damp=F
 DIIS: error= 3.77D-02 at cycle   2 NSaved=   2.
 NSaved= 2 IEnMin= 2 EnMin= -2753.72409673240     IErMin= 2 ErrMin= 3.77D-02
 ErrMax= 3.77D-02 EMaxC= 1.00D-01 BMatC= 4.75D-01 BMatP= 1.87D+00
 IDIUse=3 WtCom= 6.23D-01 WtEn= 3.77D-01
 Coeff-Com:  0.330D+00 0.670D+00
 Coeff-En:   0.183D+00 0.817D+00
 Coeff:      0.275D+00 0.725D+00
 Gap=     0.470 Goal=   None    Shift=    0.000
 RMSDP=2.57D-03 MaxDP=1.61D-01 DE=-2.60D-01 OVMax= 8.00D-02

 Cycle   3  Pass 1  IDiag  1:
 RMSU=  3.81D-04    CP:  1.03D+00  5.56D-01
 FoFJK:  IHMeth= 1 ICntrl=     0 DoSepK=T KAlg= 1 I1Cent= 0 FoldK=F
 E= -2753.87048526818     Delta-E=       -0.146388535777 Rises=F Damp=F
 DIIS: error= 5.80D-03 at cycle   3 NSaved=   3.
 NSaved= 3 IEnMin= 3 EnMin= -2753.87048526818     IErMin= 3 ErrMin= 5.80D-03
 ErrMax= 5.80D-03 EMaxC= 1.00D-01 BMatC= 1.21D-02 BMatP= 4.75D-01
 IDIUse=3 WtCom= 9.42D-01 WtEn= 5.80D-02
 Coeff-Com: -0.583D-02 0.129D+00 0.877D+00
 Coeff-En:   0.000D+00 0.000D+00 0.100D+01
 Coeff:     -0.549D-02 0.121D+00 0.884D+00
 Gap=     0.500 Goal=   None    Shift=    0.000
 RMSDP=3.31D-04 MaxDP=1.88D-02 DE=-1.46D-01 OVMax= 1.36D-02

 Cycle   4  Pass 1  IDiag  1:
 RMSU=  4.60D-05    CP:  1.03D+00  6.12D-01  9.34D-01
 FoFJK:  IHMeth= 1 ICntrl=     0 DoSepK=T KAlg= 1 I1Cent= 0 FoldK=F
 E= -2753.87434280364     Delta-E=       -0.003857535458 Rises=F Damp=F
 DIIS: error= 3.18D-04 at cycle   4 NSaved=   4.
 NSaved= 4 IEnMin= 4 EnMin= -2753.87434280364     IErMin= 4 ErrMin= 3.18D-04
 ErrMax= 3.18D-04 EMaxC= 1.00D-01 BMatC= 2.97D-05 BMatP= 1.21D-02
 IDIUse=3 WtCom= 9.97D-01 WtEn= 3.18D-03
 Coeff-Com: -0.792D-03-0.159D-01-0.396D-01 0.106D+01
 Coeff-En:   0.000D+00 0.000D+00 0.000D+00 0.100D+01
 Coeff:     -0.790D-03-0.159D-01-0.395D-01 0.106D+01
 Gap=     0.498 Goal=   None    Shift=    0.000
 RMSDP=2.56D-05 MaxDP=9.40D-04 DE=-3.86D-03 OVMax= 8.48D-04

 Cycle   5  Pass 1  IDiag  1:
 RMSU=  1.16D-05    CP:  1.03D+00  6.10D-01  9.54D-01  1.12D+00
 FoFJK:  IHMeth= 1 ICntrl=     0 DoSepK=T KAlg= 1 I1Cent= 0 FoldK=F
 E= -2753.87435565865     Delta-E=       -0.000012855010 Rises=F Damp=F
 DIIS: error= 1.15D-05 at cycle   5 NSaved=   5.
 NSaved= 5 IEnMin= 5 EnMin= -2753.87435565865     IErMin= 5 ErrMin= 1.15D-05
 ErrMax= 1.15D-05 EMaxC= 1.00D-01 BMatC= 3.72D-08 BMatP= 2.97D-05
 IDIUse=1 WtCom= 1.00D+00 WtEn= 0.00D+00
 Coeff-Com:  0.122D-03-0.727D-03-0.834D-02-0.390D-01 0.105D+01
 Coeff:      0.122D-03-0.727D-03-0.834D-02-0.390D-01 0.105D+01
 Gap=     0.498 Goal=   None    Shift=    0.000
 RMSDP=2.63D-06 MaxDP=1.16D-04 DE=-1.29D-05 OVMax= 1.88D-04

 Cycle   6  Pass 1  IDiag  1:
 RMSU=  9.48D-07    CP:  1.03D+00  6.10D-01  9.55D-01  1.14D+00  1.09D+00
 FoFJK:  IHMeth= 1 ICntrl=     0 DoSepK=T KAlg= 1 I1Cent= 0 FoldK=F
 E= -2753.87435578096     Delta-E=       -0.000000122316 Rises=F Damp=F
 DIIS: error= 4.17D-06 at cycle   6 NSaved=   6.
 NSaved= 6 IEnMin= 6 EnMin= -2753.87435578096     IErMin= 6 ErrMin= 4.17D-06
 ErrMax= 4.17D-06 EMaxC= 1.00D-01 BMatC= 4.12D-09 BMatP= 3.72D-08
 IDIUse=1 WtCom= 1.00D+00 WtEn= 0.00D+00
 Coeff-Com:  0.637D-05 0.237D-03 0.313D-04-0.369D-01 0.589D-01 0.978D+00
 Coeff:      0.637D-05 0.237D-03 0.313D-04-0.369D-01 0.589D-01 0.978D+00
 Gap=     0.498 Goal=   None    Shift=    0.000
 RMSDP=6.11D-07 MaxDP=2.64D-05 DE=-1.22D-07 OVMax= 2.74D-05

 Cycle   7  Pass 1  IDiag  1:
 RMSU=  9.91D-08    CP:  1.03D+00  6.10D-01  9.56D-01  1.14D+00  1.11D+00
                    CP:  1.19D+00
 FoFJK:  IHMeth= 1 ICntrl=     0 DoSepK=T KAlg= 1 I1Cent= 0 FoldK=F
 E= -2753.87435578526     Delta-E=       -0.000000004299 Rises=F Damp=F
 DIIS: error= 2.54D-07 at cycle   7 NSaved=   7.
 NSaved= 7 IEnMin= 7 EnMin= -2753.87435578526     IErMin= 7 ErrMin= 2.54D-07
 ErrMax= 2.54D-07 EMaxC= 1.00D-01 BMatC= 3.21D-11 BMatP= 4.12D-09
 IDIUse=1 WtCom= 1.00D+00 WtEn= 0.00D+00
 Coeff-Com:  0.358D-06 0.690D-04 0.120D-03-0.812D-02 0.453D-02 0.211D+00
 Coeff-Com:  0.793D+00
 Coeff:      0.358D-06 0.690D-04 0.120D-03-0.812D-02 0.453D-02 0.211D+00
 Coeff:      0.793D+00
 Gap=     0.498 Goal=   None    Shift=    0.000
 RMSDP=4.67D-08 MaxDP=1.49D-06 DE=-4.30D-09 OVMax= 2.48D-06

 Cycle   8  Pass 1  IDiag  1:
 RMSU=  1.76D-08    CP:  1.03D+00  6.10D-01  9.56D-01  1.14D+00  1.11D+00
                    CP:  1.22D+00  1.06D+00
 FoFJK:  IHMeth= 1 ICntrl=     0 DoSepK=T KAlg= 1 I1Cent= 0 FoldK=F
 E= -2753.87435578531     Delta-E=       -0.000000000044 Rises=F Damp=F
 DIIS: error= 7.01D-08 at cycle   8 NSaved=   8.
 NSaved= 8 IEnMin= 8 EnMin= -2753.87435578531     IErMin= 8 ErrMin= 7.01D-08
 ErrMax= 7.01D-08 EMaxC= 1.00D-01 BMatC= 1.71D-12 BMatP= 3.21D-11
 IDIUse=1 WtCom= 1.00D+00 WtEn= 0.00D+00
 Coeff-Com: -0.137D-06-0.416D-05 0.263D-04 0.156D-02-0.292D-02-0.429D-01
 Coeff-Com:  0.680D-01 0.976D+00
 Coeff:     -0.137D-06-0.416D-05 0.263D-04 0.156D-02-0.292D-02-0.429D-01
 Coeff:      0.680D-01 0.976D+00
 Gap=     0.498 Goal=   None    Shift=    0.000
 RMSDP=2.11D-08 MaxDP=8.70D-07 DE=-4.37D-11 OVMax= 5.41D-07

 Cycle   9  Pass 1  IDiag  1:
 RMSU=  3.52D-09    CP:  1.03D+00  6.10D-01  9.56D-01  1.14D+00  1.11D+00
                    CP:  1.23D+00  1.12D+00  1.11D+00
 FoFJK:  IHMeth= 1 ICntrl=     0 DoSepK=T KAlg= 1 I1Cent= 0 FoldK=F
 E= -2753.87435578532     Delta-E=       -0.000000000011 Rises=F Damp=F
 DIIS: error= 7.23D-09 at cycle   9 NSaved=   9.
 NSaved= 9 IEnMin= 9 EnMin= -2753.87435578532     IErMin= 9 ErrMin= 7.23D-09
 ErrMax= 7.23D-09 EMaxC= 1.00D-01 BMatC= 7.06D-15 BMatP= 1.71D-12
 IDIUse=1 WtCom= 1.00D+00 WtEn= 0.00D+00
 Coeff-Com:  0.109D-07 0.187D-06-0.253D-05-0.135D-03 0.966D-04 0.467D-02
 Coeff-Com: -0.147D-01-0.140D+00 0.115D+01
 Coeff:      0.109D-07 0.187D-06-0.253D-05-0.135D-03 0.966D-04 0.467D-02
 Coeff:     -0.147D-01-0.140D+00 0.115D+01
 Gap=     0.498 Goal=   None    Shift=    0.000
 RMSDP=2.07D-09 MaxDP=7.95D-08 DE=-1.09D-11 OVMax= 9.83D-08

 SCF Done:  E(RwB97XD) =  -2753.87435579     A.U. after    9 cycles
             Convg  =    0.2069D-08             -V/T =  2.0013
 KE= 2.750260237409D+03 PE=-6.580198670588D+03 EE= 1.076064077393D+03
 Leave Link  502 at Sat May  9 23:06:12 2020, MaxMem= 1073741824 cpu:     273.8
 (Enter /home/matheus/.gaussian/g09/l601.exe)
 Copying SCF densities to generalized density rwf, IOpCl= 0 IROHF=0.

 **********************************************************************

            Population analysis using the SCF density.

 **********************************************************************

 Orbital symmetries:
       Occupied  (A) (A) (A) (A) (A) (A) (A) (A) (A) (A) (A) (A)
                 (A) (A) (A) (A) (A) (A)
       Virtual   (A) (A) (A) (A) (A) (A) (A) (A) (A) (A) (A) (A)
                 (A) (A) (A) (A) (A) (A) (A) (A) (A) (A) (A) (A)
                 (A) (A) (A) (A) (A) (A) (A) (A) (A) (A) (A) (A)
                 (A) (A) (A) (A) (A) (A) (A) (A) (A) (A) (A) (A)
                 (A) (A) (A) (A) (A) (A) (A) (A) (A) (A) (A) (A)
                 (A) (A) (A) (A) (A) (A) (A) (A) (A) (A) (A) (A)
                 (A) (A) (A) (A) (A) (A) (A) (A) (A) (A) (A) (A)
                 (A) (A) (A) (A) (A) (A) (A) (A) (A) (A) (A) (A)
                 (A) (A) (A) (A) (A) (A) (A) (A) (A) (A) (A) (A)
                 (A) (A) (A) (A) (A) (A) (A) (A) (A) (A) (A) (A)
                 (A) (A) (A) (A) (A) (A) (A) (A) (A) (A) (A) (A)
                 (A) (A) (A) (A) (A) (A) (A) (A) (A) (A) (A) (A)
                 (A) (A) (A) (A) (A) (A) (A) (A) (A) (A) (A) (A)
                 (A) (A) (A) (A) (A) (A) (A) (A) (A) (A) (A) (A)
                 (A) (A) (A) (A) (A) (A) (A) (A) (A) (A) (A)
 The electronic state is 1-A.
 Alpha  occ. eigenvalues -- -513.05923 -67.32596 -60.87472 -60.87471 -60.87470
 Alpha  occ. eigenvalues --   -9.77891  -7.47187  -7.47186  -7.47186  -3.33929
 Alpha  occ. eigenvalues --   -3.33928  -3.33928  -3.33927  -3.33927  -0.98489
 Alpha  occ. eigenvalues --   -0.46647  -0.46643  -0.46642
 Alpha virt. eigenvalues --    0.03134   0.05119   0.08630   0.10362   0.11162
 Alpha virt. eigenvalues --    0.12555   0.13294   0.14834   0.16667   0.17261
 Alpha virt. eigenvalues --    0.18158   0.19631   0.21011   0.25622   0.26322
 Alpha virt. eigenvalues --    0.27241   0.27671   0.31702   0.33858   0.35081
 Alpha virt. eigenvalues --    0.35351   0.37035   0.38006   0.38718   0.41341
 Alpha virt. eigenvalues --    0.43081   0.43300   0.51823   0.54248   0.56602
 Alpha virt. eigenvalues --    0.61587   0.65017   0.67258   0.68431   0.70753
 Alpha virt. eigenvalues --    0.73809   0.74332   0.74703   0.76117   0.76380
 Alpha virt. eigenvalues --    0.80331   0.81118   0.83004   0.84061   0.84526
 Alpha virt. eigenvalues --    0.86458   0.87864   0.89010   0.91070   0.93973
 Alpha virt. eigenvalues --    0.96886   0.98490   1.00511   1.01404   1.02980
 Alpha virt. eigenvalues --    1.05235   1.05639   1.07456   1.12302   1.12416
 Alpha virt. eigenvalues --    1.15993   1.16487   1.18093   1.25621   1.28399
 Alpha virt. eigenvalues --    1.31784   1.34483   1.41956   1.42580   1.43076
 Alpha virt. eigenvalues --    1.56421   1.59018   1.70693   1.75348   1.77417
 Alpha virt. eigenvalues --    1.82986   1.85828   1.87030   1.88371   2.14108
 Alpha virt. eigenvalues --    2.18777   2.25335   2.26248   2.28913   2.29307
 Alpha virt. eigenvalues --    2.31652   2.33063   2.35904   2.39220   2.39510
 Alpha virt. eigenvalues --    2.41460   2.45176   2.46469   2.46956   2.49288
 Alpha virt. eigenvalues --    2.51994   2.53051   2.54159   2.56358   2.58742
 Alpha virt. eigenvalues --    2.60900   2.61685   2.62778   2.63980   2.66396
 Alpha virt. eigenvalues --    2.68910   2.70063   2.75952   2.78207   2.88179
 Alpha virt. eigenvalues --    2.89100   3.02739   3.05125   3.11462   3.15477
 Alpha virt. eigenvalues --    3.24272   3.28256   3.28932   3.35196   3.53042
 Alpha virt. eigenvalues --    3.60217   3.64808   3.85577   3.88014   4.03920
 Alpha virt. eigenvalues --    4.33644   4.43939   4.56343   4.57008   4.62782
 Alpha virt. eigenvalues --    4.73754   4.90766   4.91944   4.94211   5.03635
 Alpha virt. eigenvalues --    5.11932   5.14939   5.59932   5.67373   5.86409
 Alpha virt. eigenvalues --    5.88250   5.95122   6.22159   6.84788   6.94730
 Alpha virt. eigenvalues --    7.26900   7.42933   7.61061   7.66163   7.75061
 Alpha virt. eigenvalues --    7.79706   8.09722   8.10509   8.17460   8.26057
 Alpha virt. eigenvalues --    8.34375   8.38482   8.69451   8.90527   9.64767
 Alpha virt. eigenvalues --    9.71398   9.77678   9.84508   9.96522  10.06707
 Alpha virt. eigenvalues --   10.18456  10.21455  10.50299  10.93919  11.43291
 Alpha virt. eigenvalues --   11.57042  11.62293  12.03685  12.14163  13.22386
 Alpha virt. eigenvalues --   13.69772  14.53781  62.94611  64.52895
          Condensed to atoms (all electrons):
              1          2          3          4          5
     1  O    0.003746  -0.003268  -0.001796   0.001697  -0.010015
     2  O   -0.003268   0.007644   0.001306  -0.004738  -0.005103
     3  H   -0.001796   0.001306   0.001071  -0.000575   0.001105
     4  H    0.001697  -0.004738  -0.000575   0.004498  -0.021185
     5  Kr  -0.010015  -0.005103   0.001105  -0.021185  36.068183
 Mulliken atomic charges:
              1
     1  O    0.009635
     2  O    0.004159
     3  H   -0.001111
     4  H    0.020303
     5  Kr  -0.032985
 Sum of Mulliken atomic charges =   0.00000
 Mulliken charges with hydrogens summed into heavy atoms:
              1
     1  O    0.008524
     2  O    0.024461
     5  Kr  -0.032985
 Sum of Mulliken charges with hydrogens summed into heavy atoms =   0.00000
          Condensed to fragments (all electrons):
     1       0.032985
     2      -0.032985
 Electronic spatial extent (au):  <R**2>=            167.8346
 Charge=              0.0000 electrons
 Dipole moment (field-independent basis, Debye):
    X=              0.0005    Y=              0.0006    Z=              0.0000  Tot=              0.0008
 Quadrupole moment (field-independent basis, Debye-Ang):
   XX=            -17.6281   YY=            -17.6405   ZZ=            -17.6471
   XY=              0.0052   XZ=              0.0001   YZ=              0.0001
 Traceless Quadrupole moment (field-independent basis, Debye-Ang):
   XX=              0.0105   YY=             -0.0019   ZZ=             -0.0086
   XY=              0.0052   XZ=              0.0001   YZ=              0.0001
 Octapole moment (field-independent basis, Debye-Ang**2):
  XXX=             52.8600  YYY=              0.9997  ZZZ=             -0.0539  XYY=             17.6327
  XXY=              0.3206  XXZ=             -0.0183  XZZ=             17.6366  YZZ=              0.3335
  YYZ=             -0.0178  XYZ=             -0.0002
 Hexadecapole moment (field-independent basis, Debye-Ang**3):
 XXXX=           -124.0933 YYYY=            -18.4704 ZZZZ=            -18.4478 XXXY=             -0.9691
 XXXZ=              0.0546 YYYX=             -0.9802 YYYZ=              0.0006 ZZZX=              0.0541
 ZZZY=              0.0012 XXYY=            -23.7706 XXZZ=            -23.7694 YYZZ=             -6.1488
 XXYZ=              0.0003 YYXZ=              0.0181 ZZXY=             -0.3256
 N-N= 0.000000000000D+00 E-N=-6.580198671343D+03  KE= 2.750260237409D+03
 No NMR shielding tensors so no spin-rotation constants.
 Leave Link  601 at Sat May  9 23:06:12 2020, MaxMem= 1073741824 cpu:       0.9
 (Enter /home/matheus/.gaussian/g09/l122.exe)
 Counterpoise: doing MCBS calculation for fragment   1
 Leave Link  122 at Sat May  9 23:06:12 2020, MaxMem= 1073741824 cpu:       0.0
 (Enter /home/matheus/.gaussian/g09/l301.exe)
 Basis read from rwf:  (5D, 7F)
 No pseudopotential information found on rwf file.
 There are   138 symmetry adapted basis functions of A   symmetry.
 Integral buffers will be    131072 words long.
 Raffenetti 2 integral format.
 Two-electron integral symmetry is turned on.
   138 basis functions,   198 primitive gaussians,   160 cartesian basis functions
     9 alpha electrons        9 beta electrons
       nuclear repulsion energy        36.6009457491 Hartrees.
 IExCor= 4639 DFT=T Ex+Corr=wB97XD ExCW=0 ScaHFX=  1.000000
 ScaDFX=  1.000000  1.000000  1.000000  1.000000 ScalE2=  1.000000  1.000000
 IRadAn=      5 IRanWt=     -1 IRanGd=            0 ICorTp=0
  HFx wShort=  0.000000 wLong=  0.200000 cFull=  0.222036 cShort=  0.000000 cLong=  0.777964
  DFx wShort=  0.000000 wLong=  0.200000 cFull=  0.000000 cShort=  0.000000 cLong=  1.000000
 NAtoms=    5 NActive=    4 NUniq=    4 SFac= 1.00D+00 NAtFMM=   60 NAOKFM=F Big=F
 R6Disp: Dispersion energy =        -0.0001980872 Hartrees.
 Nuclear repulsion after empirical dispersion term =       36.6007476619 Hartrees.
 No density basis found on file   718.
 Leave Link  301 at Sat May  9 23:06:12 2020, MaxMem= 1073741824 cpu:       0.2
 (Enter /home/matheus/.gaussian/g09/l302.exe)
 NPDir=0 NMtPBC=     1 NCelOv=     1 NCel=       1 NClECP=     1 NCelD=      1
         NCelK=      1 NCelE2=     1 NClLst=     1 CellRange=     0.0.
 One-electron integrals computed using PRISM.
 NBasis=   138 RedAO= T  NBF=   138
 NBsUse=   138 1.00D-06 NBFU=   138
 Precomputing XC quadrature grid using
 IXCGrd= 2 IRadAn=           5 IRanWt=          -1 IRanGd=           0 AccXCQ= 0.00D+00.
 NRdTot=     344 NPtTot=       92556 NUsed=       95038 NTot=       95070
 NSgBfM=   160   160   160   160   160 NAtAll=     4     4.
 Leave Link  302 at Sat May  9 23:06:12 2020, MaxMem= 1073741824 cpu:       0.8
 (Enter /home/matheus/.gaussian/g09/l303.exe)
 DipDrv:  MaxL=1.
 Leave Link  303 at Sat May  9 23:06:12 2020, MaxMem= 1073741824 cpu:       0.1
 (Enter /home/matheus/.gaussian/g09/l401.exe)
 Harris functional with IExCor= 4639 diagonalized for initial guess.
 ExpMin= 2.53D-02 ExpMax= 1.53D+04 ExpMxC= 5.22D+02 IAcc=3 IRadAn=         5 AccDes= 0.00D+00
 HarFok:  IExCor= 4639 AccDes= 0.00D+00 IRadAn=         5 IDoV= 1
 ScaDFX=  1.000000  1.000000  1.000000  1.000000
 FoFCou: FMM=F IPFlag=           0 FMFlag=      100000 FMFlg1=           0
         NFxFlg=           0 DoJE=T BraDBF=F KetDBF=T FulRan=T
         Omega=  0.000000  0.000000  1.000000  0.000000  0.000000 ICntrl=     500 IOpCl=  0
         NMat0=    1 NMatS0=    1 NMatT0=    0 NMatD0=    1 NMtDS0=    0 NMtDT0=    0
         I1Cent=           4 NGrid=           0.
 Petite list used in FoFCou.
 Harris En= -146.291223327440    
 Initial guess orbital symmetries:
       Occupied  (A) (A) (A) (A) (A) (A) (A) (A) (A)
       Virtual   (A) (A) (A) (A) (A) (A) (A) (A) (A) (A) (A) (A)
                 (A) (A) (A) (A) (A) (A) (A) (A) (A) (A) (A) (A)
                 (A) (A) (A) (A) (A) (A) (A) (A) (A) (A) (A) (A)
                 (A) (A) (A) (A) (A) (A) (A) (A) (A) (A) (A) (A)
                 (A) (A) (A) (A) (A) (A) (A) (A) (A) (A) (A) (A)
                 (A) (A) (A) (A) (A) (A) (A) (A) (A) (A) (A) (A)
                 (A) (A) (A) (A) (A) (A) (A) (A) (A) (A) (A) (A)
                 (A) (A) (A) (A) (A) (A) (A) (A) (A) (A) (A) (A)
                 (A) (A) (A) (A) (A) (A) (A) (A) (A) (A) (A) (A)
                 (A) (A) (A) (A) (A) (A) (A) (A) (A) (A) (A) (A)
                 (A) (A) (A) (A) (A) (A) (A) (A) (A)
 The electronic state of the initial guess is 1-A.
 Leave Link  401 at Sat May  9 23:06:12 2020, MaxMem= 1073741824 cpu:       2.6
 (Enter /home/matheus/.gaussian/g09/l502.exe)
 Closed shell SCF:
 Requested convergence on RMS density matrix=1.00D-08 within 128 cycles.
 Requested convergence on MAX density matrix=1.00D-06.
 Requested convergence on             energy=1.00D-06.
 No special actions if energy rises.
 Using DIIS extrapolation, IDIIS=  1040.
 Integral symmetry usage will be decided dynamically.
        94980 words used for storage of precomputed grid.
 IEnd=      192360 IEndB=      192360 NGot=  1073741824 MDV=  1073591865
 LenX=  1073591865 LenY=  1073565824
 Fock matrices will be formed incrementally for  20 cycles.

 Cycle   1  Pass 1  IDiag  1:
 FoFJK:  IHMeth= 1 ICntrl=     0 DoSepK=T KAlg= 1 I1Cent= 0 FoldK=F
 FoFCou: FMM=F IPFlag=           0 FMFlag=      100000 FMFlg1=           0
         NFxFlg=           0 DoJE=T BraDBF=F KetDBF=F FulRan=T
         Omega=  0.000000  0.000000  1.000000  0.000000  0.000000 ICntrl=     500 IOpCl=  0
         NMat0=    1 NMatS0=    1 NMatT0=    0 NMatD0=    1 NMtDS0=    0 NMtDT0=    0
         I1Cent=           0 NGrid=           0.
 Symmetry not used in FoFCou.
 E= -151.476805766495    
 DIIS: error= 5.12D-02 at cycle   1 NSaved=   1.
 NSaved= 1 IEnMin= 1 EnMin= -151.476805766495     IErMin= 1 ErrMin= 5.12D-02
 ErrMax= 5.12D-02 EMaxC= 1.00D-01 BMatC= 2.98D-01 BMatP= 2.98D-01
 IDIUse=3 WtCom= 4.88D-01 WtEn= 5.12D-01
 Coeff-Com:  0.100D+01
 Coeff-En:   0.100D+01
 Coeff:      0.100D+01
 Gap=     0.497 Goal=   None    Shift=    0.000
 GapD=    0.497 DampG=2.000 DampE=0.500 DampFc=1.0000 IDamp=-1.
 RMSDP=3.24D-03 MaxDP=9.92D-02              OVMax= 1.09D-01

 Cycle   2  Pass 1  IDiag  1:
 RMSU=  2.25D-03    CP:  9.60D-01
 FoFJK:  IHMeth= 1 ICntrl=     0 DoSepK=T KAlg= 1 I1Cent= 0 FoldK=F
 E= -151.505897425445     Delta-E=       -0.029091658950 Rises=F Damp=F
 DIIS: error= 2.73D-02 at cycle   2 NSaved=   2.
 NSaved= 2 IEnMin= 2 EnMin= -151.505897425445     IErMin= 2 ErrMin= 2.73D-02
 ErrMax= 2.73D-02 EMaxC= 1.00D-01 BMatC= 8.90D-02 BMatP= 2.98D-01
 IDIUse=3 WtCom= 7.27D-01 WtEn= 2.73D-01
 Coeff-Com:  0.331D+00 0.669D+00
 Coeff-En:   0.366D+00 0.634D+00
 Coeff:      0.340D+00 0.660D+00
 Gap=     0.435 Goal=   None    Shift=    0.000
 RMSDP=1.39D-03 MaxDP=4.75D-02 DE=-2.91D-02 OVMax= 5.82D-02

 Cycle   3  Pass 1  IDiag  1:
 RMSU=  5.11D-04    CP:  9.79D-01  6.38D-01
 FoFJK:  IHMeth= 1 ICntrl=     0 DoSepK=T KAlg= 1 I1Cent= 0 FoldK=F
 E= -151.554059143729     Delta-E=       -0.048161718284 Rises=F Damp=F
 DIIS: error= 7.49D-03 at cycle   3 NSaved=   3.
 NSaved= 3 IEnMin= 3 EnMin= -151.554059143729     IErMin= 3 ErrMin= 7.49D-03
 ErrMax= 7.49D-03 EMaxC= 1.00D-01 BMatC= 6.01D-03 BMatP= 8.90D-02
 IDIUse=3 WtCom= 9.25D-01 WtEn= 7.49D-02
 Coeff-Com:  0.114D-01 0.214D+00 0.775D+00
 Coeff-En:   0.000D+00 0.000D+00 0.100D+01
 Coeff:      0.106D-01 0.198D+00 0.792D+00
 Gap=     0.390 Goal=   None    Shift=    0.000
 RMSDP=3.88D-04 MaxDP=1.22D-02 DE=-4.82D-02 OVMax= 1.63D-02

 Cycle   4  Pass 1  IDiag  1:
 RMSU=  9.02D-05    CP:  9.74D-01  7.42D-01  8.13D-01
 FoFJK:  IHMeth= 1 ICntrl=     0 DoSepK=T KAlg= 1 I1Cent= 0 FoldK=F
 E= -151.557875292404     Delta-E=       -0.003816148675 Rises=F Damp=F
 DIIS: error= 8.79D-04 at cycle   4 NSaved=   4.
 NSaved= 4 IEnMin= 4 EnMin= -151.557875292404     IErMin= 4 ErrMin= 8.79D-04
 ErrMax= 8.79D-04 EMaxC= 1.00D-01 BMatC= 7.42D-05 BMatP= 6.01D-03
 IDIUse=3 WtCom= 9.91D-01 WtEn= 8.79D-03
 Coeff-Com: -0.922D-03-0.673D-02 0.782D-01 0.929D+00
 Coeff-En:   0.000D+00 0.000D+00 0.000D+00 0.100D+01
 Coeff:     -0.914D-03-0.667D-02 0.775D-01 0.930D+00
 Gap=     0.387 Goal=   None    Shift=    0.000
 RMSDP=5.47D-05 MaxDP=2.21D-03 DE=-3.82D-03 OVMax= 1.69D-03

 Cycle   5  Pass 1  IDiag  1:
 RMSU=  1.64D-05    CP:  9.75D-01  7.33D-01  8.61D-01  1.14D+00
 FoFJK:  IHMeth= 1 ICntrl=     0 DoSepK=T KAlg= 1 I1Cent= 0 FoldK=F
[...]
 DIIS: error= 7.03D-07 at cycle   3 NSaved=   3.
 NSaved= 3 IEnMin= 3 EnMin= -2753.87423869743     IErMin= 3 ErrMin= 7.03D-07
 ErrMax= 7.03D-07 EMaxC= 1.00D-01 BMatC= 1.14D-10 BMatP= 4.13D-09
 IDIUse=1 WtCom= 1.00D+00 WtEn= 0.00D+00
 Coeff-Com:  0.125D-04-0.977D-01 0.110D+01
 Coeff:      0.125D-04-0.977D-01 0.110D+01
 Gap=     0.496 Goal=   None    Shift=    0.000
 RMSDP=2.18D-07 MaxDP=8.34D-06 DE=-7.67D-09 OVMax= 1.03D-05

 Cycle   4  Pass 1  IDiag  1:
 RMSU=  6.09D-08    CP:  1.00D+00  1.08D+00  1.21D+00
 FoFJK:  IHMeth= 1 ICntrl=     0 DoSepK=T KAlg= 1 I1Cent= 0 FoldK=F
 E= -2753.87423869765     Delta-E=       -0.000000000216 Rises=F Damp=F
 DIIS: error= 5.35D-07 at cycle   4 NSaved=   4.
 NSaved= 4 IEnMin= 4 EnMin= -2753.87423869765     IErMin= 4 ErrMin= 5.35D-07
 ErrMax= 5.35D-07 EMaxC= 1.00D-01 BMatC= 1.74D-11 BMatP= 1.14D-10
 IDIUse=1 WtCom= 1.00D+00 WtEn= 0.00D+00
 Coeff-Com:  0.212D-03-0.516D-01 0.329D+00 0.722D+00
 Coeff:      0.212D-03-0.516D-01 0.329D+00 0.722D+00
 Gap=     0.496 Goal=   None    Shift=    0.000
 RMSDP=2.60D-08 MaxDP=1.21D-06 DE=-2.16D-10 OVMax= 1.46D-06

 Cycle   5  Pass 1  IDiag  1:
 RMSU=  1.12D-08    CP:  1.00D+00  1.08D+00  1.24D+00  1.09D+00
 FoFJK:  IHMeth= 1 ICntrl=     0 DoSepK=T KAlg= 1 I1Cent= 0 FoldK=F
 E= -2753.87423869765     Delta-E=       -0.000000000002 Rises=F Damp=F
 DIIS: error= 2.23D-08 at cycle   5 NSaved=   5.
 NSaved= 5 IEnMin= 5 EnMin= -2753.87423869765     IErMin= 5 ErrMin= 2.23D-08
 ErrMax= 2.23D-08 EMaxC= 1.00D-01 BMatC= 1.40D-13 BMatP= 1.74D-11
 IDIUse=1 WtCom= 1.00D+00 WtEn= 0.00D+00
 Coeff-Com: -0.949D-05 0.522D-02-0.466D-01-0.353D-01 0.108D+01
 Coeff:     -0.949D-05 0.522D-02-0.466D-01-0.353D-01 0.108D+01
 Gap=     0.496 Goal=   None    Shift=    0.000
 RMSDP=1.13D-08 MaxDP=6.98D-07 DE=-2.27D-12 OVMax= 3.78D-07

 Cycle   6  Pass 1  IDiag  1:
 RMSU=  1.43D-09    CP:  1.00D+00  1.08D+00  1.24D+00  1.16D+00  1.17D+00
 FoFJK:  IHMeth= 1 ICntrl=     0 DoSepK=T KAlg= 1 I1Cent= 0 FoldK=F
 E= -2753.87423869765     Delta-E=       -0.000000000001 Rises=F Damp=F
 DIIS: error= 8.56D-09 at cycle   6 NSaved=   6.
 NSaved= 6 IEnMin= 6 EnMin= -2753.87423869765     IErMin= 6 ErrMin= 8.56D-09
 ErrMax= 8.56D-09 EMaxC= 1.00D-01 BMatC= 1.58D-14 BMatP= 1.40D-13
 IDIUse=1 WtCom= 1.00D+00 WtEn= 0.00D+00
 Coeff-Com: -0.111D-04 0.337D-02-0.251D-01-0.346D-01 0.292D+00 0.764D+00
 Coeff:     -0.111D-04 0.337D-02-0.251D-01-0.346D-01 0.292D+00 0.764D+00
 Gap=     0.496 Goal=   None    Shift=    0.000
 RMSDP=1.01D-09 MaxDP=5.62D-08 DE=-9.09D-13 OVMax= 5.40D-08

 SCF Done:  E(RwB97XD) =  -2753.87423870     A.U. after    6 cycles
             Convg  =    0.1009D-08             -V/T =  2.0013
 KE= 2.750294578296D+03 PE=-6.580235212440D+03 EE= 1.076066395447D+03
 Leave Link  502 at Sat May  9 23:33:08 2020, MaxMem= 1073741824 cpu:     138.9
 (Enter /home/matheus/.gaussian/g09/l122.exe)
 Restoring MOs from calculation   4 to rwf.
 Counterpoise: doing MCBS calculation for fragment   1
 Leave Link  122 at Sat May  9 23:33:08 2020, MaxMem= 1073741824 cpu:       0.0
 (Enter /home/matheus/.gaussian/g09/l301.exe)
 Basis read from rwf:  (5D, 7F)
 No pseudopotential information found on rwf file.
 There are   138 symmetry adapted basis functions of A   symmetry.
 Integral buffers will be    131072 words long.
 Raffenetti 2 integral format.
 Two-electron integral symmetry is turned on.
   138 basis functions,   198 primitive gaussians,   160 cartesian basis functions
     9 alpha electrons        9 beta electrons
       nuclear repulsion energy        36.6009457491 Hartrees.
 IExCor= 4639 DFT=T Ex+Corr=wB97XD ExCW=0 ScaHFX=  1.000000
 ScaDFX=  1.000000  1.000000  1.000000  1.000000 ScalE2=  1.000000  1.000000
 IRadAn=      5 IRanWt=     -1 IRanGd=            0 ICorTp=0
  HFx wShort=  0.000000 wLong=  0.200000 cFull=  0.222036 cShort=  0.000000 cLong=  0.777964
  DFx wShort=  0.000000 wLong=  0.200000 cFull=  0.000000 cShort=  0.000000 cLong=  1.000000
 NAtoms=    5 NActive=    4 NUniq=    4 SFac= 1.00D+00 NAtFMM=   60 NAOKFM=F Big=F
 R6Disp: Dispersion energy =        -0.0001980872 Hartrees.
 Nuclear repulsion after empirical dispersion term =       36.6007476619 Hartrees.
 No density basis found on file   718.
 Leave Link  301 at Sat May  9 23:33:08 2020, MaxMem= 1073741824 cpu:       0.2
 (Enter /home/matheus/.gaussian/g09/l302.exe)
 NPDir=0 NMtPBC=     1 NCelOv=     1 NCel=       1 NClECP=     1 NCelD=      1
         NCelK=      1 NCelE2=     1 NClLst=     1 CellRange=     0.0.
 One-electron integrals computed using PRISM.
 NBasis=   138 RedAO= T  NBF=   138
 NBsUse=   138 1.00D-06 NBFU=   138
 Precomputing XC quadrature grid using
 IXCGrd= 2 IRadAn=           5 IRanWt=          -1 IRanGd=           0 AccXCQ= 0.00D+00.
 NRdTot=     344 NPtTot=       92556 NUsed=       95038 NTot=       95070
 NSgBfM=   160   160   160   160   160 NAtAll=     4     4.
 Leave Link  302 at Sat May  9 23:33:08 2020, MaxMem= 1073741824 cpu:       0.8
 (Enter /home/matheus/.gaussian/g09/l303.exe)
 DipDrv:  MaxL=1.
 Leave Link  303 at Sat May  9 23:33:08 2020, MaxMem= 1073741824 cpu:       0.2
 (Enter /home/matheus/.gaussian/g09/l401.exe)
 Initial guess read from the read-write file.
 Guess basis will be translated and rotated to current coordinates.
 Initial guess orbital symmetries:
       Occupied  (A) (A) (A) (A) (A) (A) (A) (A) (A)
       Virtual   (A) (A) (A) (A) (A) (A) (A) (A) (A) (A) (A) (A)
                 (A) (A) (A) (A) (A) (A) (A) (A) (A) (A) (A) (A)
                 (A) (A) (A) (A) (A) (A) (A) (A) (A) (A) (A) (A)
                 (A) (A) (A) (A) (A) (A) (A) (A) (A) (A) (A) (A)
                 (A) (A) (A) (A) (A) (A) (A) (A) (A) (A) (A) (A)
                 (A) (A) (A) (A) (A) (A) (A) (A) (A) (A) (A) (A)
                 (A) (A) (A) (A) (A) (A) (A) (A) (A) (A) (A) (A)
                 (A) (A) (A) (A) (A) (A) (A) (A) (A) (A) (A) (A)
                 (A) (A) (A) (A) (A) (A) (A) (A) (A) (A) (A) (A)
                 (A) (A) (A) (A) (A) (A) (A) (A) (A) (A) (A) (A)
                 (A) (A) (A) (A) (A) (A) (A) (A) (A)
 The electronic state of the initial guess is 1-A.
 Generating alternative initial guess.
 Harris functional with IExCor= 4639 diagonalized for initial guess.
 ExpMin= 2.53D-02 ExpMax= 1.53D+04 ExpMxC= 5.22D+02 IAcc=3 IRadAn=         5 AccDes= 0.00D+00
 HarFok:  IExCor= 4639 AccDes= 0.00D+00 IRadAn=         5 IDoV= 1
 ScaDFX=  1.000000  1.000000  1.000000  1.000000
 FoFCou: FMM=F IPFlag=           0 FMFlag=      100000 FMFlg1=           0
         NFxFlg=           0 DoJE=T BraDBF=F KetDBF=T FulRan=T
         Omega=  0.000000  0.000000  1.000000  0.000000  0.000000 ICntrl=     500 IOpCl=  0
         NMat0=    1 NMatS0=    1 NMatT0=    0 NMatD0=    1 NMtDS0=    0 NMtDT0=    0
         I1Cent=           4 NGrid=           0.
 Petite list used in FoFCou.
 Harris En= -146.291223409496    
 Leave Link  401 at Sat May  9 23:33:09 2020, MaxMem= 1073741824 cpu:       2.9
 (Enter /home/matheus/.gaussian/g09/l502.exe)
 Closed shell SCF:
 Requested convergence on RMS density matrix=1.00D-08 within 128 cycles.
 Requested convergence on MAX density matrix=1.00D-06.
 Requested convergence on             energy=1.00D-06.
 No special actions if energy rises.
 Using DIIS extrapolation, IDIIS=  1040.
 Integral symmetry usage will be decided dynamically.
        94980 words used for storage of precomputed grid.
 IEnd=      192360 IEndB=      192360 NGot=  1073741824 MDV=  1073591865
 LenX=  1073591865 LenY=  1073565824
 Fock matrices will be formed incrementally for  20 cycles.

 Cycle   1  Pass 1  IDiag  1:
 FoFJK:  IHMeth= 1 ICntrl=     0 DoSepK=T KAlg= 1 I1Cent= 0 FoldK=F
 FoFCou: FMM=F IPFlag=           0 FMFlag=      100000 FMFlg1=           0
         NFxFlg=           0 DoJE=T BraDBF=F KetDBF=F FulRan=T
         Omega=  0.000000  0.000000  1.000000  0.000000  0.000000 ICntrl=     500 IOpCl=  0
         NMat0=    1 NMatS0=    1 NMatT0=    0 NMatD0=    1 NMtDS0=    0 NMtDT0=    0
         I1Cent=           0 NGrid=           0.
 Symmetry not used in FoFCou.
 E= -151.557927268809    
 DIIS: error= 2.65D-05 at cycle   1 NSaved=   1.
 NSaved= 1 IEnMin= 1 EnMin= -151.557927268809     IErMin= 1 ErrMin= 2.65D-05
 ErrMax= 2.65D-05 EMaxC= 1.00D-01 BMatC= 4.17D-08 BMatP= 4.17D-08
 IDIUse=1 WtCom= 1.00D+00 WtEn= 0.00D+00
 Coeff-Com:  0.100D+01
 Coeff:      0.100D+01
 Gap=     0.387 Goal=   None    Shift=    0.000
 RMSDP=1.08D-06 MaxDP=2.33D-05              OVMax= 9.43D-05

 Cycle   2  Pass 1  IDiag  1:
 RMSU=  7.64D-07    CP:  1.00D+00
 FoFJK:  IHMeth= 1 ICntrl=     0 DoSepK=T KAlg= 1 I1Cent= 0 FoldK=F
 E= -151.557927310873     Delta-E=       -0.000000042064 Rises=F Damp=F
 DIIS: error= 4.05D-06 at cycle   2 NSaved=   2.
 NSaved= 2 IEnMin= 2 EnMin= -151.557927310873     IErMin= 2 ErrMin= 4.05D-06
 ErrMax= 4.05D-06 EMaxC= 1.00D-01 BMatC= 1.24D-09 BMatP= 4.17D-08
 IDIUse=1 WtCom= 1.00D+00 WtEn= 0.00D+00
 Coeff-Com: -0.114D+00 0.111D+01
 Coeff:     -0.114D+00 0.111D+01
 Gap=     0.387 Goal=   None    Shift=    0.000
 RMSDP=3.54D-07 MaxDP=8.47D-06 DE=-4.21D-08 OVMax= 3.24D-05

 Cycle   3  Pass 1  IDiag  1:
 RMSU=  1.70D-07    CP:  1.00D+00  1.24D+00
 FoFJK:  IHMeth= 1 ICntrl=     0 DoSepK=T KAlg= 1 I1Cent= 0 FoldK=F
 E= -151.557927313654     Delta-E=       -0.000000002781 Rises=F Damp=F
 DIIS: error= 1.18D-06 at cycle   3 NSaved=   3.
 NSaved= 3 IEnMin= 3 EnMin= -151.557927313654     IErMin= 3 ErrMin= 1.18D-06
 ErrMax= 1.18D-06 EMaxC= 1.00D-01 BMatC= 1.32D-10 BMatP= 1.24D-09
 IDIUse=1 WtCom= 1.00D+00 WtEn= 0.00D+00
 Coeff-Com: -0.289D-01 0.130D+00 0.899D+00
 Coeff:     -0.289D-01 0.130D+00 0.899D+00
 Gap=     0.387 Goal=   None    Shift=    0.000
 RMSDP=9.68D-08 MaxDP=1.91D-06 DE=-2.78D-09 OVMax= 8.44D-06

 Cycle   4  Pass 1  IDiag  1:
 RMSU=  5.09D-08    CP:  1.00D+00  1.29D+00  1.13D+00
 FoFJK:  IHMeth= 1 ICntrl=     0 DoSepK=T KAlg= 1 I1Cent= 0 FoldK=F
 E= -151.557927313825     Delta-E=       -0.000000000171 Rises=F Damp=F
 DIIS: error= 7.25D-07 at cycle   4 NSaved=   4.
 NSaved= 4 IEnMin= 4 EnMin= -151.557927313825     IErMin= 4 ErrMin= 7.25D-07
 ErrMax= 7.25D-07 EMaxC= 1.00D-01 BMatC= 6.25D-11 BMatP= 1.32D-10
 IDIUse=1 WtCom= 1.00D+00 WtEn= 0.00D+00
 Coeff-Com:  0.569D-02-0.132D+00 0.404D+00 0.722D+00
 Coeff:      0.569D-02-0.132D+00 0.404D+00 0.722D+00
 Gap=     0.387 Goal=   None    Shift=    0.000
 RMSDP=5.05D-08 MaxDP=2.18D-06 DE=-1.71D-10 OVMax= 3.39D-06

 Cycle   5  Pass 1  IDiag  1:
 RMSU=  1.19D-08    CP:  1.00D+00  1.30D+00  1.30D+00  7.77D-01
 FoFJK:  IHMeth= 1 ICntrl=     0 DoSepK=T KAlg= 1 I1Cent= 0 FoldK=F
 E= -151.557927313877     Delta-E=       -0.000000000052 Rises=F Damp=F
 DIIS: error= 1.72D-07 at cycle   5 NSaved=   5.
 NSaved= 5 IEnMin= 5 EnMin= -151.557927313877     IErMin= 5 ErrMin= 1.72D-07
 ErrMax= 1.72D-07 EMaxC= 1.00D-01 BMatC= 4.09D-12 BMatP= 6.25D-11
 IDIUse=1 WtCom= 1.00D+00 WtEn= 0.00D+00
 Coeff-Com:  0.412D-02-0.662D-01 0.123D+00 0.306D+00 0.633D+00
 Coeff:      0.412D-02-0.662D-01 0.123D+00 0.306D+00 0.633D+00
 Gap=     0.387 Goal=   None    Shift=    0.000
 RMSDP=1.06D-08 MaxDP=3.22D-07 DE=-5.21D-11 OVMax= 6.38D-07

 Cycle   6  Pass 1  IDiag  1:
 RMSU=  5.97D-09    CP:  1.00D+00  1.31D+00  1.32D+00  8.23D-01  8.13D-01
 FoFJK:  IHMeth= 1 ICntrl=     0 DoSepK=T KAlg= 1 I1Cent= 0 FoldK=F
 E= -151.557927313880     Delta-E=       -0.000000000003 Rises=F Damp=F
 DIIS: error= 7.30D-08 at cycle   6 NSaved=   6.
 NSaved= 6 IEnMin= 6 EnMin= -151.557927313880     IErMin= 6 ErrMin= 7.30D-08
 ErrMax= 7.30D-08 EMaxC= 1.00D-01 BMatC= 7.83D-13 BMatP= 4.09D-12
 IDIUse=1 WtCom= 1.00D+00 WtEn= 0.00D+00
 Coeff-Com:  0.926D-03-0.731D-02-0.160D-01 0.127D-01 0.308D+00 0.702D+00
 Coeff:      0.926D-03-0.731D-02-0.160D-01 0.127D-01 0.308D+00 0.702D+00
 Gap=     0.387 Goal=   None    Shift=    0.000
 RMSDP=4.40D-09 MaxDP=1.53D-07 DE=-3.41D-12 OVMax= 2.82D-07

 SCF Done:  E(RwB97XD) =  -151.557927314     A.U. after    6 cycles
             Convg  =    0.4399D-08             -V/T =  2.0059
 KE= 1.506656778027D+02 PE=-4.317232585677D+02 EE= 9.289890578924D+01
 Leave Link  502 at Sat May  9 23:33:16 2020, MaxMem= 1073741824 cpu:      59.6
 (Enter /home/matheus/.gaussian/g09/l122.exe)
 Restoring MOs from calculation   5 to rwf.
 Counterpoise: doing MCBS calculation for fragment   2
 Leave Link  122 at Sat May  9 23:33:16 2020, MaxMem= 1073741824 cpu:       0.0
 (Enter /home/matheus/.gaussian/g09/l301.exe)
 Basis read from rwf:  (5D, 7F)
 No pseudopotential information found on rwf file.
 There are    59 symmetry adapted basis functions of A   symmetry.
 Integral buffers will be    131072 words long.
 Raffenetti 2 integral format.
 Two-electron integral symmetry is turned on.
    59 basis functions,   217 primitive gaussians,    69 cartesian basis functions
    18 alpha electrons       18 beta electrons
       nuclear repulsion energy         0.0000000000 Hartrees.
 IExCor= 4639 DFT=T Ex+Corr=wB97XD ExCW=0 ScaHFX=  1.000000
 ScaDFX=  1.000000  1.000000  1.000000  1.000000 ScalE2=  1.000000  1.000000
 IRadAn=      5 IRanWt=     -1 IRanGd=            0 ICorTp=0
  HFx wShort=  0.000000 wLong=  0.200000 cFull=  0.222036 cShort=  0.000000 cLong=  0.777964
  DFx wShort=  0.000000 wLong=  0.200000 cFull=  0.000000 cShort=  0.000000 cLong=  1.000000
 NAtoms=    5 NActive=    1 NUniq=    1 SFac= 1.00D+00 NAtFMM=   60 NAOKFM=F Big=F
 R6Disp: Dispersion energy =         0.0000000000 Hartrees.
 Nuclear repulsion after empirical dispersion term =        0.0000000000 Hartrees.
 No density basis found on file   718.
 Leave Link  301 at Sat May  9 23:33:16 2020, MaxMem= 1073741824 cpu:       0.2
 (Enter /home/matheus/.gaussian/g09/l302.exe)
 NPDir=0 NMtPBC=     1 NCelOv=     1 NCel=       1 NClECP=     1 NCelD=      1
         NCelK=      1 NCelE2=     1 NClLst=     1 CellRange=     0.0.
 One-electron integrals computed using PRISM.
 NBasis=    59 RedAO= T  NBF=    59
 NBsUse=    59 1.00D-06 NBFU=    59
 Precomputing XC quadrature grid using
 IXCGrd= 2 IRadAn=           5 IRanWt=          -1 IRanGd=           0 AccXCQ= 0.00D+00.
 NRdTot=      81 NPtTot=       30352 NUsed=       30981 NTot=       31013
 NSgBfM=    69    69    69    69    69 NAtAll=     1     1.
 Leave Link  302 at Sat May  9 23:33:16 2020, MaxMem= 1073741824 cpu:       0.7
 (Enter /home/matheus/.gaussian/g09/l303.exe)
 DipDrv:  MaxL=1.
 Leave Link  303 at Sat May  9 23:33:16 2020, MaxMem= 1073741824 cpu:       0.2
 (Enter /home/matheus/.gaussian/g09/l401.exe)
 Initial guess read from the read-write file.
 Guess basis will be translated and rotated to current coordinates.
 Initial guess orbital symmetries:
       Occupied  (A) (A) (A) (A) (A) (A) (A) (A) (A) (A) (A) (A)
                 (A) (A) (A) (A) (A) (A)
       Virtual   (A) (A) (A) (A) (A) (A) (A) (A) (A) (A) (A) (A)
                 (A) (A) (A) (A) (A) (A) (A) (A) (A) (A) (A) (A)
                 (A) (A) (A) (A) (A) (A) (A) (A) (A) (A) (A) (A)
                 (A) (A) (A) (A) (A)
 The electronic state of the initial guess is 1-A.
 Generating alternative initial guess.
 Harris functional with IExCor= 4639 diagonalized for initial guess.
 ExpMin= 4.00D-02 ExpMax= 1.17D+07 ExpMxC= 1.33D+04 IAcc=3 IRadAn=         5 AccDes= 0.00D+00
 HarFok:  IExCor= 4639 AccDes= 0.00D+00 IRadAn=         5 IDoV= 1
 ScaDFX=  1.000000  1.000000  1.000000  1.000000
 FoFCou: FMM=F IPFlag=           0 FMFlag=      100000 FMFlg1=           0
         NFxFlg=           0 DoJE=T BraDBF=F KetDBF=T FulRan=T
         Omega=  0.000000  0.000000  1.000000  0.000000  0.000000 ICntrl=     500 IOpCl=  0
         NMat0=    1 NMatS0=    1 NMatT0=    0 NMatD0=    1 NMtDS0=    0 NMtDT0=    0
         I1Cent=           4 NGrid=           0.
 Petite list used in FoFCou.
 Harris En= -2730.20235208354    
 Leave Link  401 at Sat May  9 23:33:17 2020, MaxMem= 1073741824 cpu:       1.1
 (Enter /home/matheus/.gaussian/g09/l502.exe)
 Closed shell SCF:
 Requested convergence on RMS density matrix=1.00D-08 within 128 cycles.
 Requested convergence on MAX density matrix=1.00D-06.
 Requested convergence on             energy=1.00D-06.
 No special actions if energy rises.
 Using DIIS extrapolation, IDIIS=  1040.
 Integral symmetry usage will be decided dynamically.
        30923 words used for storage of precomputed grid.
 IEnd=       64406 IEndB=       64406 NGot=  1073741824 MDV=  1073698889
 LenX=  1073698889 LenY=  1073693687
 Fock matrices will be formed incrementally for  20 cycles.

 Cycle   1  Pass 1  IDiag  1:
 FoFJK:  IHMeth= 1 ICntrl=     0 DoSepK=T KAlg= 1 I1Cent= 0 FoldK=F
 FoFCou: FMM=F IPFlag=           0 FMFlag=      100000 FMFlg1=           0
         NFxFlg=           0 DoJE=T BraDBF=F KetDBF=F FulRan=T
         Omega=  0.000000  0.000000  1.000000  0.000000  0.000000 ICntrl=     500 IOpCl=  0
         NMat0=    1 NMatS0=    1 NMatT0=    0 NMatD0=    1 NMtDS0=    0 NMtDT0=    0
         I1Cent=           0 NGrid=           0.
 Symmetry not used in FoFCou.
 E= -2753.87421986326    
 DIIS: error= 9.11D-14 at cycle   1 NSaved=   1.
 NSaved= 1 IEnMin= 1 EnMin= -2753.87421986326     IErMin= 1 ErrMin= 9.11D-14
 ErrMax= 9.11D-14 EMaxC= 1.00D-01 BMatC= 8.39D-25 BMatP= 8.39D-25
 IDIUse=1 WtCom= 1.00D+00 WtEn= 0.00D+00
 Coeff-Com:  0.100D+01
 Coeff:      0.100D+01
 Gap=     0.562 Goal=   None    Shift=    0.000
 RMSDP=1.41D-14 MaxDP=1.61D-13              OVMax= 3.34D-13

 SCF Done:  E(RwB97XD) =  -2753.87421986     A.U. after    1 cycles
             Convg  =    0.1412D-13             -V/T =  2.0013
 KE= 2.750300381543D+03 PE=-6.580241205809D+03 EE= 1.076066604402D+03
 Leave Link  502 at Sat May  9 23:33:18 2020, MaxMem= 1073741824 cpu:      14.0
 (Enter /home/matheus/.gaussian/g09/l122.exe)
 Restoring MOs from calculation   1 to rwf.
 Counterpoise: corrected energy =   -2905.432428198011
 Counterpoise: BSSE energy =       0.000023191822
 Leave Link  122 at Sat May  9 23:33:18 2020, MaxMem= 1073741824 cpu:       0.0
 (Enter /home/matheus/.gaussian/g09/l108.exe)
 Scan completed.

 Summary of the potential surface scan:
   N      R1          SCF    
 ----  ---------  -----------
    1     3.0000  -2753.87422
    2     3.1000  -2753.87422
    3     3.2000  -2753.87422
    4     3.3000  -2753.87422
    5     3.4000  -2753.87422
    6     3.5000  -2753.87422
    7     3.6000  -2753.87422
    8     3.7000  -2753.87422
    9     3.8000  -2753.87422
   10     3.9000  -2753.87422
   11     4.0000  -2753.87422
   12     4.1000  -2753.87422
   13     4.2000  -2753.87422
   14     4.3000  -2753.87422
   15     4.4000  -2753.87422
   16     4.5000  -2753.87422
   17     4.6000  -2753.87422
   18     4.7000  -2753.87422
   19     4.8000  -2753.87422
   20     4.9000  -2753.87422
   21     5.0000  -2753.87422
 ----  ---------  -----------
  
 Leave Link  108 at Sat May  9 23:33:18 2020, MaxMem= 1073741824 cpu:       0.0
 (Enter /home/matheus/.gaussian/g09/l9999.exe)
 1\1\GINC-REDGIANT\Scan\RwB97XD\Aug-CC-pVTZ\H2Kr1O2\MATHEUS\09-May-2020
 \1\\#p wb97xd/aug-cc-PVTz int=ultrafine counterpoise=2 Scan\\TCC\\0,1\
 O,0,0.,0.,0.725\O,0,0.,0.,-0.725\H,0,0.1595341571,-0.9047631646,1.0235
 104166\H,0,0.,0.9187205947,-1.0235104166\Kr,0,0.,R1,0.\\R1=3.,s,20,0.1
 \\Version=EM64L-G09RevC.01\State=1-A\HF=-2753.8742199,-2753.8742199,-2
 753.8742199,-2753.8742199,-2753.8742199,-2753.8742199,-2753.8742199,-2
 753.8742199,-2753.8742199,-2753.8742199,-2753.8742199,-2753.8742199,-2
 753.8742199,-2753.8742199,-2753.8742199,-2753.8742199,-2753.8742199,-2
 753.8742199,-2753.8742199,-2753.8742199,-2753.8742199\RMSD=9.120e-09,1
 .920e-10,6.363e-11,4.203e-11,2.496e-11,1.570e-11,9.715e-12,6.053e-12,3
 .768e-12,2.340e-12,1.449e-12,9.009e-13,5.668e-13,3.553e-13,2.148e-13,1
 .316e-13,8.038e-14,6.015e-14,4.931e-14,2.604e-14,1.412e-14\PG=C01 [X(H
 2Kr1O2)]\\@


 "A LITTLE BIT GOES A LONG WAY"
 R.S. MULLIKEN AS QUOTED BY K. RUEDENBERG
 Job cpu time:  0 days  3 hours 50 minutes 50.2 seconds.
 File lengths (MBytes):  RWF=     33 Int=      0 D2E=      0 Chk=      8 Scr=      1
 Normal termination of Gaussian 09 at Sat May  9 23:33:18 2020.
