 Entering Gaussian System, Link 0=g09
 Input=/home/matheus/.tcc/Inputs/Inputs-wb97xd-default/H2O2-Kr_11.com
 Output=/home/matheus/.tcc/Logs/Logs-wb97xd-default/H2O2-Kr_11.log
 Initial command:
 /home/matheus/.gaussian/g09/l1.exe /home/matheus/.gaussian/g09/scratch/Gau-25953.inp -scrdir=/home/matheus/.gaussian/g09/scratch/
 Entering Link 1 = /home/matheus/.gaussian/g09/l1.exe PID=     25957.
  
 Copyright (c) 1988,1990,1992,1993,1995,1998,2003,2009,2011,
            Gaussian, Inc.  All Rights Reserved.
  
 This is part of the Gaussian(R) 09 program.  It is based on
 the Gaussian(R) 03 system (copyright 2003, Gaussian, Inc.),
 the Gaussian(R) 98 system (copyright 1998, Gaussian, Inc.),
 the Gaussian(R) 94 system (copyright 1995, Gaussian, Inc.),
 the Gaussian 92(TM) system (copyright 1992, Gaussian, Inc.),
 the Gaussian 90(TM) system (copyright 1990, Gaussian, Inc.),
 the Gaussian 88(TM) system (copyright 1988, Gaussian, Inc.),
 the Gaussian 86(TM) system (copyright 1986, Carnegie Mellon
 University), and the Gaussian 82(TM) system (copyright 1983,
 Carnegie Mellon University). Gaussian is a federally registered
 trademark of Gaussian, Inc.
  
 This software contains proprietary and confidential information,
 including trade secrets, belonging to Gaussian, Inc.
  
 This software is provided under written license and may be
 used, copied, transmitted, or stored only in accord with that
 written license.
  
 The following legend is applicable only to US Government
 contracts under FAR:
  
                    RESTRICTED RIGHTS LEGEND
  
 Use, reproduction and disclosure by the US Government is
 subject to restrictions as set forth in subparagraphs (a)
 and (c) of the Commercial Computer Software - Restricted
 Rights clause in FAR 52.227-19.
  
 Gaussian, Inc.
 340 Quinnipiac St., Bldg. 40, Wallingford CT 06492
  
  
 ---------------------------------------------------------------
 Warning -- This program may not be used in any manner that
 competes with the business of Gaussian, Inc. or will provide
 assistance to any competitor of Gaussian, Inc.  The licensee
 of this program is prohibited from giving any competitor of
 Gaussian, Inc. access to this program.  By using this program,
 the user acknowledges that Gaussian, Inc. is engaged in the
 business of creating and licensing software in the field of
 computational chemistry and represents and warrants to the
 licensee that it is not a competitor of Gaussian, Inc. and that
 it will not use this program in any manner prohibited above.
 ---------------------------------------------------------------
  

 Cite this work as:
 Gaussian 09, Revision C.01,
 M. J. Frisch, G. W. Trucks, H. B. Schlegel, G. E. Scuseria, 
 M. A. Robb, J. R. Cheeseman, G. Scalmani, V. Barone, B. Mennucci, 
 G. A. Petersson, H. Nakatsuji, M. Caricato, X. Li, H. P. Hratchian, 
 A. F. Izmaylov, J. Bloino, G. Zheng, J. L. Sonnenberg, M. Hada, 
 M. Ehara, K. Toyota, R. Fukuda, J. Hasegawa, M. Ishida, T. Nakajima, 
 Y. Honda, O. Kitao, H. Nakai, T. Vreven, J. A. Montgomery, Jr., 
 J. E. Peralta, F. Ogliaro, M. Bearpark, J. J. Heyd, E. Brothers, 
 K. N. Kudin, V. N. Staroverov, T. Keith, R. Kobayashi, J. Normand, 
 K. Raghavachari, A. Rendell, J. C. Burant, S. S. Iyengar, J. Tomasi, 
 M. Cossi, N. Rega, J. M. Millam, M. Klene, J. E. Knox, J. B. Cross, 
 V. Bakken, C. Adamo, J. Jaramillo, R. Gomperts, R. E. Stratmann, 
 O. Yazyev, A. J. Austin, R. Cammi, C. Pomelli, J. W. Ochterski, 
 R. L. Martin, K. Morokuma, V. G. Zakrzewski, G. A. Voth, 
 P. Salvador, J. J. Dannenberg, S. Dapprich, A. D. Daniels, 
 O. Farkas, J. B. Foresman, J. V. Ortiz, J. Cioslowski, 
 and D. J. Fox, Gaussian, Inc., Wallingford CT, 2010.
 
 ******************************************
 Gaussian 09:  EM64L-G09RevC.01 23-Sep-2011
                 9-May-2020 
 ******************************************
 %mem=8GB
 %nproc=8
 Will use up to    8 processors via shared memory.
 -------------------------------------------------------
 #p wb97xd/aug-cc-PVTz int=ultrafine counterpoise=2 Scan
 -------------------------------------------------------
 1/38=1,60=1,62=2/1,8;
 2/12=2,17=6,18=5,29=3,40=1/2;
 1/38=1,53=5172,62=2/22;
 3/5=16,6=1,7=10,11=2,16=1,25=1,30=1,74=-58,75=-5/1,2,3;
 4//1;
 5/5=2,38=5/2;
 6/7=2,8=2,9=2,10=2,18=1,28=1/1;
 1/53=4052,62=2,63=1/22;
 3/5=7,6=11,7=10,11=2,16=1,25=1,30=1,74=-58,75=-5,82=7/1,2,3;
 4//1;
 5/5=2,38=5/2;
 6/7=2,8=2,9=2,10=2,18=1,28=1/1;
 1/53=3042,62=2,63=2/22;
 3/5=7,6=11,7=10,11=2,16=1,25=1,30=1,74=-58,75=-5,82=7/1,2,3;
 4//1;
 5/5=2,38=5/2;
 6/7=2,8=2,9=2,10=2,18=1,28=1/1;
 1/53=2032,62=2,63=3/22;
 3/5=7,6=11,7=10,11=2,16=1,25=1,30=1,74=-58,75=-5,82=7/1,2,3;
 4//1;
 5/5=2,38=5/2;
 6/7=2,8=2,9=2,10=2,18=1,28=1/1;
 1/53=1022,62=2,63=4/22;
 3/5=7,6=11,7=10,11=2,16=1,25=1,30=1,74=-58,75=-5,82=7/1,2,3;
 4//1;
 5/5=2,38=5/2;
 6/7=2,8=2,9=2,10=2,18=1,28=1/1;
 1/53=5014,62=2,63=5/22;
 1/60=1,62=2/8(1);
 99/9=1/99;
 2/29=3/2;
 1/53=5173,62=2/22;
 3/5=7,6=11,7=10,11=2,16=1,25=1,30=1,74=-58,75=-5,82=7/1,2,3;
 4/5=5,16=3/1;
 5/5=2,38=5/2;
 1/53=4053,62=2,63=1/22;
 3/5=7,6=11,7=10,11=2,16=1,25=1,30=1,74=-58,75=-5,82=7/1,2,3;
 4/5=5,16=3/1;
 5/5=2,38=5/2;
 1/53=3043,62=2,63=2/22;
 3/5=7,6=11,7=10,11=2,16=1,25=1,30=1,74=-58,75=-5,82=7/1,2,3;
 4/5=5,16=3/1;
 5/5=2,38=5/2;
 1/53=2033,62=2,63=3/22;
 3/5=7,6=11,7=10,11=2,16=1,25=1,30=1,74=-58,75=-5,82=7/1,2,3;
 4/5=5,16=3/1;
 5/5=2,38=5/2;
 1/53=1024,62=2,63=4/22;
 3/5=7,6=11,7=10,11=2,16=1,25=1,30=1,74=-58,75=-5,82=7/1,2,3;
 4/5=5,16=3/1;
 5/5=2,38=5/2;
 1/53=5014,62=2,63=5/22;
 1/60=1,62=2/8(-22);
 99/9=1/99;
 Leave Link    1 at Sat May  9 20:08:38 2020, MaxMem= 1073741824 cpu:       0.2
 (Enter /home/matheus/.gaussian/g09/l101.exe)
 ---
 TCC
 ---
 Charge =  0 Multiplicity = 1 in supermolecule
 Charge =  0 Multiplicity = 1 in fragment  1.
 Charge =  0 Multiplicity = 1 in fragment  2.
 Symbolic Z-Matrix:
 O(Fragment=1)         0.        0.        0.725 
 O(Fragment=1)         0.        0.       -0.725 
 H(Fragment=1)         0.86331  -0.31422   1.02351 
 H(Fragment=1)         0.        0.91872  -1.02351 
 Kr(Fragment=2)        0.       R1        0. 
       Variables:
  R1                    3.     Scan 20    0.1    
 
 NAtoms=      5 NQM=        0 NQMF=       0 NMMI=      5 NMMIF=      0
                NMic=       0 NMicF=      0.
                    Isotopes and Nuclear Properties:
 (Nuclear quadrupole moments (NQMom) in fm**2, nuclear magnetic moments (NMagM)
  in nuclear magnetons)

  Atom         1           2           3           4           5
 IAtWgt=          16          16           1           1          84
 AtmWgt=  15.9949146  15.9949146   1.0078250   1.0078250  83.9115064
 NucSpn=           0           0           1           1           0
 AtZEff=   0.0000000   0.0000000   0.0000000   0.0000000   0.0000000
 NQMom=    0.0000000   0.0000000   0.0000000   0.0000000   0.0000000
 NMagM=    0.0000000   0.0000000   2.7928460   2.7928460   0.0000000
 Leave Link  101 at Sat May  9 20:08:38 2020, MaxMem= 1073741824 cpu:       0.4
 (Enter /home/matheus/.gaussian/g09/l108.exe)
 Scan the potential surface.
 Variable   Value     No. Steps Step-Size
 -------- ----------- --------- ---------
     1       3.000000      20      0.1000
 A total of     21 points will be computed.
 Leave Link  108 at Sat May  9 20:08:38 2020, MaxMem= 1073741824 cpu:       0.0
 (Enter /home/matheus/.gaussian/g09/l202.exe)
 ---------------------------------------------------------------------------------------------------
                            Z-MATRIX (ANGSTROMS AND DEGREES)
   CD    Cent   Atom    N1       Length/X        N2       Alpha/Y        N3        Beta/Z          J
 ---------------------------------------------------------------------------------------------------
      1      1  O        0   0.000000          0.000000          0.725000
      2      2  O        0   0.000000          0.000000         -0.725000
      3      3  H        0   0.863315         -0.314221          1.023510
      4      4  H        0   0.000000          0.918721         -1.023510
      5      5  Kr       0   0.000000          3.000000          0.000000
 ---------------------------------------------------------------------------------------------------
                         Z-Matrix orientation:                         
 ---------------------------------------------------------------------
 Center     Atomic      Atomic             Coordinates (Angstroms)
 Number     Number       Type             X           Y           Z
 ---------------------------------------------------------------------
      1          8           0        0.000000    0.000000    0.725000
      2          8           0        0.000000    0.000000   -0.725000
      3          1           0        0.863315   -0.314221    1.023510
      4          1           0        0.000000    0.918721   -1.023510
      5         36           0        0.000000    3.000000    0.000000
 ---------------------------------------------------------------------
                    Distance matrix (angstroms):
                    1          2          3          4          5
     1  O    0.000000
     2  O    1.450000   0.000000
     3  H    0.966000   1.975180   0.000000
     4  H    1.975180   0.966000   2.540817   0.000000
     5  Kr   3.086361   3.086361   3.574486   2.319331   0.000000
 Stoichiometry    H2KrO2
 Framework group  C1[X(H2KrO2)]
 Deg. of freedom     9
 Full point group                 C1      NOp   1
 Largest Abelian subgroup         C1      NOp   1
 Largest concise Abelian subgroup C1      NOp   1
                         Standard orientation:                         
 ---------------------------------------------------------------------
 Center     Atomic      Atomic             Coordinates (Angstroms)
 Number     Number       Type             X           Y           Z
 ---------------------------------------------------------------------
      1          8           0        2.019994   -0.690833   -0.114713
      2          8           0        2.000697    0.753572    0.011068
      3          1           0        2.354569   -1.058170    0.713707
      4          1           0        1.078253    1.037233    0.053361
      5         36           0       -0.988843   -0.013360    0.001725
 ---------------------------------------------------------------------
 Rotational constants (GHZ):     25.7302436      2.3305908      2.1494082
 Leave Link  202 at Sat May  9 20:08:38 2020, MaxMem= 1073741824 cpu:       0.0
 (Enter /home/matheus/.gaussian/g09/l122.exe)
 Leave Link  122 at Sat May  9 20:08:38 2020, MaxMem= 1073741824 cpu:       0.0
 (Enter /home/matheus/.gaussian/g09/l301.exe)
 Standard basis: Aug-CC-pVTZ (5D, 7F)
 Ernie: Thresh=  0.10000D-02 Tol=  0.10000D-05 Strict=F.
 Ernie:  38 primitive shells out of 205 were deleted.
 There are   197 symmetry adapted basis functions of A   symmetry.
 Integral buffers will be    131072 words long.
 Raffenetti 2 integral format.
 Two-electron integral symmetry is turned on.
   197 basis functions,   415 primitive gaussians,   229 cartesian basis functions
    27 alpha electrons       27 beta electrons
       nuclear repulsion energy       148.9188377957 Hartrees.
 IExCor= 4639 DFT=T Ex+Corr=wB97XD ExCW=0 ScaHFX=  1.000000
 ScaDFX=  1.000000  1.000000  1.000000  1.000000 ScalE2=  1.000000  1.000000
 IRadAn=      5 IRanWt=     -1 IRanGd=            0 ICorTp=0
  HFx wShort=  0.000000 wLong=  0.200000 cFull=  0.222036 cShort=  0.000000 cLong=  0.777964
  DFx wShort=  0.000000 wLong=  0.200000 cFull=  0.000000 cShort=  0.000000 cLong=  1.000000
 NAtoms=    5 NActive=    5 NUniq=    5 SFac= 1.00D+00 NAtFMM=   60 NAOKFM=F Big=F
 R6Disp: Dispersion energy =        -0.0008883210 Hartrees.
 Nuclear repulsion after empirical dispersion term =      148.9179494746 Hartrees.
 Leave Link  301 at Sat May  9 20:08:38 2020, MaxMem= 1073741824 cpu:       0.2
 (Enter /home/matheus/.gaussian/g09/l302.exe)
 NPDir=0 NMtPBC=     1 NCelOv=     1 NCel=       1 NClECP=     1 NCelD=      1
         NCelK=      1 NCelE2=     1 NClLst=     1 CellRange=     0.0.
 One-electron integrals computed using PRISM.
 NBasis=   197 RedAO= T  NBF=   197
 NBsUse=   197 1.00D-06 NBFU=   197
 Precomputing XC quadrature grid using
 IXCGrd= 2 IRadAn=           5 IRanWt=          -1 IRanGd=           0 AccXCQ= 0.00D+00.
 NRdTot=     427 NPtTot=      123512 NUsed=      126579 NTot=      126611
 NSgBfM=   229   229   229   229   229 NAtAll=     5     5.
 Leave Link  302 at Sat May  9 20:08:38 2020, MaxMem= 1073741824 cpu:       1.0
 (Enter /home/matheus/.gaussian/g09/l303.exe)
 DipDrv:  MaxL=1.
 Leave Link  303 at Sat May  9 20:08:38 2020, MaxMem= 1073741824 cpu:       0.2
 (Enter /home/matheus/.gaussian/g09/l401.exe)
 Harris functional with IExCor= 4639 diagonalized for initial guess.
 ExpMin= 2.53D-02 ExpMax= 1.17D+07 ExpMxC= 1.33D+04 IAcc=3 IRadAn=         5 AccDes= 0.00D+00
 HarFok:  IExCor= 4639 AccDes= 0.00D+00 IRadAn=         5 IDoV= 1
 ScaDFX=  1.000000  1.000000  1.000000  1.000000
 FoFCou: FMM=F IPFlag=           0 FMFlag=      100000 FMFlg1=           0
         NFxFlg=           0 DoJE=T BraDBF=F KetDBF=T FulRan=T
         Omega=  0.000000  0.000000  1.000000  0.000000  0.000000 ICntrl=     500 IOpCl=  0
         NMat0=    1 NMatS0=    1 NMatT0=    0 NMatD0=    1 NMtDS0=    0 NMtDT0=    0
         I1Cent=           4 NGrid=           0.
 Petite list used in FoFCou.
 Harris En= -2876.49046776280    
 Initial guess orbital symmetries:
       Occupied  (A) (A) (A) (A) (A) (A) (A) (A) (A) (A) (A) (A)
                 (A) (A) (A) (A) (A) (A) (A) (A) (A) (A) (A) (A)
                 (A) (A) (A)
       Virtual   (A) (A) (A) (A) (A) (A) (A) (A) (A) (A) (A) (A)
                 (A) (A) (A) (A) (A) (A) (A) (A) (A) (A) (A) (A)
                 (A) (A) (A) (A) (A) (A) (A) (A) (A) (A) (A) (A)
                 (A) (A) (A) (A) (A) (A) (A) (A) (A) (A) (A) (A)
                 (A) (A) (A) (A) (A) (A) (A) (A) (A) (A) (A) (A)
                 (A) (A) (A) (A) (A) (A) (A) (A) (A) (A) (A) (A)
                 (A) (A) (A) (A) (A) (A) (A) (A) (A) (A) (A) (A)
                 (A) (A) (A) (A) (A) (A) (A) (A) (A) (A) (A) (A)
                 (A) (A) (A) (A) (A) (A) (A) (A) (A) (A) (A) (A)
                 (A) (A) (A) (A) (A) (A) (A) (A) (A) (A) (A) (A)
                 (A) (A) (A) (A) (A) (A) (A) (A) (A) (A) (A) (A)
                 (A) (A) (A) (A) (A) (A) (A) (A) (A) (A) (A) (A)
                 (A) (A) (A) (A) (A) (A) (A) (A) (A) (A) (A) (A)
                 (A) (A) (A) (A) (A) (A) (A) (A) (A) (A) (A) (A)
                 (A) (A)
 The electronic state of the initial guess is 1-A.
 Leave Link  401 at Sat May  9 20:08:39 2020, MaxMem= 1073741824 cpu:       4.1
 (Enter /home/matheus/.gaussian/g09/l502.exe)
 Closed shell SCF:
 Requested convergence on RMS density matrix=1.00D-08 within 128 cycles.
 Requested convergence on MAX density matrix=1.00D-06.
 Requested convergence on             energy=1.00D-06.
 No special actions if energy rises.
 Using DIIS extrapolation, IDIIS=  1040.
 Integral symmetry usage will be decided dynamically.
       126521 words used for storage of precomputed grid.
 IEnd=      305468 IEndB=      305468 NGot=  1073741824 MDV=  1073505667
 LenX=  1073505667 LenY=  1073452785
 Fock matrices will be formed incrementally for  20 cycles.

 Cycle   1  Pass 1  IDiag  1:
 FoFJK:  IHMeth= 1 ICntrl=     0 DoSepK=T KAlg= 1 I1Cent= 0 FoldK=F
 FoFCou: FMM=F IPFlag=           0 FMFlag=      100000 FMFlg1=           0
         NFxFlg=           0 DoJE=T BraDBF=F KetDBF=F FulRan=T
         Omega=  0.000000  0.000000  1.000000  0.000000  0.000000 ICntrl=     500 IOpCl=  0
         NMat0=    1 NMatS0=    1 NMatT0=    0 NMatD0=    1 NMtDS0=    0 NMtDT0=    0
         I1Cent=           0 NGrid=           0.
 Symmetry not used in FoFCou.
 E= -2904.93671086587    
 DIIS: error= 7.18D-02 at cycle   1 NSaved=   1.
 NSaved= 1 IEnMin= 1 EnMin= -2904.93671086587     IErMin= 1 ErrMin= 7.18D-02
 ErrMax= 7.18D-02 EMaxC= 1.00D-01 BMatC= 2.17D+00 BMatP= 2.17D+00
 IDIUse=3 WtCom= 2.82D-01 WtEn= 7.18D-01
 Coeff-Com:  0.100D+01
 Coeff-En:   0.100D+01
 Coeff:      0.100D+01
 Gap=     0.524 Goal=   None    Shift=    0.000
 GapD=    0.524 DampG=2.000 DampE=0.500 DampFc=1.0000 IDamp=-1.
 RMSDP=6.13D-03 MaxDP=3.66D-01              OVMax= 1.78D-01

 Cycle   2  Pass 1  IDiag  1:
 RMSU=  4.31D-03    CP:  1.03D+00
 FoFJK:  IHMeth= 1 ICntrl=     0 DoSepK=T KAlg= 1 I1Cent= 0 FoldK=F
 E= -2905.22965163090     Delta-E=       -0.292940765035 Rises=F Damp=F
 DIIS: error= 3.01D-02 at cycle   2 NSaved=   2.
 NSaved= 2 IEnMin= 2 EnMin= -2905.22965163090     IErMin= 2 ErrMin= 3.01D-02
 ErrMax= 3.01D-02 EMaxC= 1.00D-01 BMatC= 5.64D-01 BMatP= 2.17D+00
 IDIUse=3 WtCom= 6.99D-01 WtEn= 3.01D-01
 Coeff-Com:  0.330D+00 0.670D+00
 Coeff-En:   0.218D+00 0.782D+00
 Coeff:      0.296D+00 0.704D+00
 Gap=     0.469 Goal=   None    Shift=    0.000
 RMSDP=2.70D-03 MaxDP=1.56D-01 DE=-2.93D-01 OVMax= 7.64D-02

 Cycle   3  Pass 1  IDiag  1:
 RMSU=  5.51D-04    CP:  1.02D+00  5.78D-01
 FoFJK:  IHMeth= 1 ICntrl=     0 DoSepK=T KAlg= 1 I1Cent= 0 FoldK=F
 E= -2905.42263180105     Delta-E=       -0.192980170145 Rises=F Damp=F
 DIIS: error= 6.41D-03 at cycle   3 NSaved=   3.
 NSaved= 3 IEnMin= 3 EnMin= -2905.42263180105     IErMin= 3 ErrMin= 6.41D-03
 ErrMax= 6.41D-03 EMaxC= 1.00D-01 BMatC= 1.79D-02 BMatP= 5.64D-01
 IDIUse=3 WtCom= 9.36D-01 WtEn= 6.41D-02
 Coeff-Com:  0.370D-01 0.190D+00 0.773D+00
 Coeff-En:   0.000D+00 0.000D+00 0.100D+01
 Coeff:      0.346D-01 0.178D+00 0.788D+00
 Gap=     0.430 Goal=   None    Shift=    0.000
 RMSDP=4.94D-04 MaxDP=2.19D-02 DE=-1.93D-01 OVMax= 2.60D-02

 Cycle   4  Pass 1  IDiag  1:
 RMSU=  2.41D-04    CP:  1.02D+00  6.35D-01  8.73D-01
 FoFJK:  IHMeth= 1 ICntrl=     0 DoSepK=T KAlg= 1 I1Cent= 0 FoldK=F
 E= -2905.43071175811     Delta-E=       -0.008079957061 Rises=F Damp=F
 DIIS: error= 2.63D-03 at cycle   4 NSaved=   4.
 NSaved= 4 IEnMin= 4 EnMin= -2905.43071175811     IErMin= 4 ErrMin= 2.63D-03
 ErrMax= 2.63D-03 EMaxC= 1.00D-01 BMatC= 2.09D-03 BMatP= 1.79D-02
 IDIUse=3 WtCom= 9.74D-01 WtEn= 2.63D-02
 Coeff-Com: -0.855D-03 0.517D-01 0.382D+00 0.567D+00
 Coeff-En:   0.000D+00 0.000D+00 0.000D+00 0.100D+01
 Coeff:     -0.832D-03 0.504D-01 0.372D+00 0.578D+00
 Gap=     0.415 Goal=   None    Shift=    0.000
 RMSDP=1.32D-04 MaxDP=7.93D-03 DE=-8.08D-03 OVMax= 7.62D-03

 Cycle   5  Pass 1  IDiag  1:
 RMSU=  3.99D-05    CP:  1.02D+00  6.32D-01  9.20D-01  6.73D-01
 FoFJK:  IHMeth= 1 ICntrl=     0 DoSepK=T KAlg= 1 I1Cent= 0 FoldK=F
 E= -2905.43197184620     Delta-E=       -0.001260088094 Rises=F Damp=F
 DIIS: error= 3.14D-04 at cycle   5 NSaved=   5.
 NSaved= 5 IEnMin= 5 EnMin= -2905.43197184620     IErMin= 5 ErrMin= 3.14D-04
 ErrMax= 3.14D-04 EMaxC= 1.00D-01 BMatC= 3.62D-05 BMatP= 2.09D-03
 IDIUse=3 WtCom= 9.97D-01 WtEn= 3.14D-03
 Coeff-Com: -0.106D-02 0.172D-01 0.144D+00 0.236D+00 0.604D+00
 Coeff-En:   0.000D+00 0.000D+00 0.000D+00 0.000D+00 0.100D+01
 Coeff:     -0.106D-02 0.171D-01 0.143D+00 0.236D+00 0.605D+00
 Gap=     0.414 Goal=   None    Shift=    0.000
 RMSDP=2.22D-05 MaxDP=1.03D-03 DE=-1.26D-03 OVMax= 1.66D-03

 Cycle   6  Pass 1  IDiag  1:
 RMSU=  1.52D-05    CP:  1.02D+00  6.32D-01  9.24D-01  6.85D-01  9.80D-01
 FoFJK:  IHMeth= 1 ICntrl=     0 DoSepK=T KAlg= 1 I1Cent= 0 FoldK=F
 E= -2905.43199121389     Delta-E=       -0.000019367686 Rises=F Damp=F
 DIIS: error= 1.41D-04 at cycle   6 NSaved=   6.
 NSaved= 6 IEnMin= 6 EnMin= -2905.43199121389     IErMin= 6 ErrMin= 1.41D-04
 ErrMax= 1.41D-04 EMaxC= 1.00D-01 BMatC= 8.29D-06 BMatP= 3.62D-05
 IDIUse=3 WtCom= 9.99D-01 WtEn= 1.41D-03
 Coeff-Com: -0.383D-03-0.515D-02-0.257D-01-0.317D-01 0.316D+00 0.747D+00
 Coeff-En:   0.000D+00 0.000D+00 0.000D+00 0.000D+00 0.138D+00 0.862D+00
 Coeff:     -0.382D-03-0.515D-02-0.257D-01-0.317D-01 0.316D+00 0.747D+00
 Gap=     0.414 Goal=   None    Shift=    0.000
 RMSDP=1.19D-05 MaxDP=4.44D-04 DE=-1.94D-05 OVMax= 6.14D-04

 Cycle   7  Pass 1  IDiag  1:
 RMSU=  4.06D-06    CP:  1.02D+00  6.32D-01  9.30D-01  6.91D-01  1.13D+00
                    CP:  9.12D-01
 FoFJK:  IHMeth= 1 ICntrl=     0 DoSepK=T KAlg= 1 I1Cent= 0 FoldK=F
 E= -2905.43199728302     Delta-E=       -0.000006069130 Rises=F Damp=F
 DIIS: error= 1.18D-05 at cycle   7 NSaved=   7.
 NSaved= 7 IEnMin= 7 EnMin= -2905.43199728302     IErMin= 7 ErrMin= 1.18D-05
 ErrMax= 1.18D-05 EMaxC= 1.00D-01 BMatC= 6.10D-08 BMatP= 8.29D-06
 IDIUse=1 WtCom= 1.00D+00 WtEn= 0.00D+00
 Coeff-Com:  0.751D-05-0.116D-02-0.823D-02-0.118D-01 0.935D-03 0.739D-01
 Coeff-Com:  0.946D+00
 Coeff:      0.751D-05-0.116D-02-0.823D-02-0.118D-01 0.935D-03 0.739D-01
 Coeff:      0.946D+00
 Gap=     0.414 Goal=   None    Shift=    0.000
 RMSDP=2.24D-06 MaxDP=5.84D-05 DE=-6.07D-06 OVMax= 1.74D-04

 Cycle   8  Pass 1  IDiag  1:
 RMSU=  9.00D-07    CP:  1.02D+00  6.32D-01  9.31D-01  6.92D-01  1.15D+00
                    CP:  9.56D-01  1.15D+00
 FoFJK:  IHMeth= 1 ICntrl=     0 DoSepK=T KAlg= 1 I1Cent= 0 FoldK=F
 E= -2905.43199740015     Delta-E=       -0.000000117127 Rises=F Damp=F
 DIIS: error= 2.93D-06 at cycle   8 NSaved=   8.
 NSaved= 8 IEnMin= 8 EnMin= -2905.43199740015     IErMin= 8 ErrMin= 2.93D-06
 ErrMax= 2.93D-06 EMaxC= 1.00D-01 BMatC= 3.68D-09 BMatP= 6.10D-08
 IDIUse=1 WtCom= 1.00D+00 WtEn= 0.00D+00
 Coeff-Com:  0.167D-04 0.123D-03 0.445D-03 0.323D-03-0.160D-01-0.301D-01
 Coeff-Com:  0.568D-01 0.988D+00
 Coeff:      0.167D-04 0.123D-03 0.445D-03 0.323D-03-0.160D-01-0.301D-01
 Coeff:      0.568D-01 0.988D+00
 Gap=     0.414 Goal=   None    Shift=    0.000
 RMSDP=6.42D-07 MaxDP=1.43D-05 DE=-1.17D-07 OVMax= 6.24D-05

 Cycle   9  Pass 1  IDiag  1:
 RMSU=  2.00D-07    CP:  1.02D+00  6.32D-01  9.31D-01  6.92D-01  1.16D+00
                    CP:  9.64D-01  1.22D+00  1.28D+00
 FoFJK:  IHMeth= 1 ICntrl=     0 DoSepK=T KAlg= 1 I1Cent= 0 FoldK=F
 E= -2905.43199740960     Delta-E=       -0.000000009451 Rises=F Damp=F
 DIIS: error= 1.05D-06 at cycle   9 NSaved=   9.
 NSaved= 9 IEnMin= 9 EnMin= -2905.43199740960     IErMin= 9 ErrMin= 1.05D-06
 ErrMax= 1.05D-06 EMaxC= 1.00D-01 BMatC= 3.30D-10 BMatP= 3.68D-09
 IDIUse=1 WtCom= 1.00D+00 WtEn= 0.00D+00
 Coeff-Com: -0.935D-06 0.684D-04 0.506D-03 0.569D-03-0.575D-03-0.409D-02
 Coeff-Com: -0.535D-01-0.334D-01 0.109D+01
 Coeff:     -0.935D-06 0.684D-04 0.506D-03 0.569D-03-0.575D-03-0.409D-02
 Coeff:     -0.535D-01-0.334D-01 0.109D+01
 Gap=     0.414 Goal=   None    Shift=    0.000
 RMSDP=2.15D-07 MaxDP=5.98D-06 DE=-9.45D-09 OVMax= 2.78D-05

 Cycle  10  Pass 1  IDiag  1:
 RMSU=  7.96D-08    CP:  1.02D+00  6.32D-01  9.31D-01  6.92D-01  1.16D+00
                    CP:  9.65D-01  1.23D+00  1.37D+00  1.36D+00
 FoFJK:  IHMeth= 1 ICntrl=     0 DoSepK=T KAlg= 1 I1Cent= 0 FoldK=F
 E= -2905.43199741075     Delta-E=       -0.000000001151 Rises=F Damp=F
 DIIS: error= 3.79D-07 at cycle  10 NSaved=  10.
 NSaved=10 IEnMin=10 EnMin= -2905.43199741075     IErMin=10 ErrMin= 3.79D-07
 ErrMax= 3.79D-07 EMaxC= 1.00D-01 BMatC= 4.10D-11 BMatP= 3.30D-10
 IDIUse=1 WtCom= 1.00D+00 WtEn= 0.00D+00
 Coeff-Com: -0.942D-06-0.428D-05-0.938D-05-0.958D-05 0.140D-02 0.280D-02
 Coeff-Com: -0.382D-02-0.114D+00 0.117D+00 0.997D+00
 Coeff:     -0.942D-06-0.428D-05-0.938D-05-0.958D-05 0.140D-02 0.280D-02
 Coeff:     -0.382D-02-0.114D+00 0.117D+00 0.997D+00
 Gap=     0.414 Goal=   None    Shift=    0.000
 RMSDP=7.25D-08 MaxDP=1.60D-06 DE=-1.15D-09 OVMax= 1.04D-05

 Cycle  11  Pass 1  IDiag  1:
 RMSU=  1.97D-08    CP:  1.02D+00  6.32D-01  9.31D-01  6.92D-01  1.16D+00
                    CP:  9.65D-01  1.23D+00  1.39D+00  1.54D+00  1.34D+00
 FoFJK:  IHMeth= 1 ICntrl=     0 DoSepK=T KAlg= 1 I1Cent= 0 FoldK=F
 E= -2905.43199741090     Delta-E=       -0.000000000149 Rises=F Damp=F
 DIIS: error= 1.23D-07 at cycle  11 NSaved=  11.
 NSaved=11 IEnMin=11 EnMin= -2905.43199741090     IErMin=11 ErrMin= 1.23D-07
 ErrMax= 1.23D-07 EMaxC= 1.00D-01 BMatC= 4.49D-12 BMatP= 4.10D-11
 IDIUse=1 WtCom= 1.00D+00 WtEn= 0.00D+00
 Coeff-Com:  0.365D-06-0.656D-05-0.564D-04-0.475D-04-0.135D-04 0.335D-03
 Coeff-Com:  0.740D-02-0.130D-02-0.110D+00-0.554D-01 0.116D+01
 Coeff:      0.365D-06-0.656D-05-0.564D-04-0.475D-04-0.135D-04 0.335D-03
 Coeff:      0.740D-02-0.130D-02-0.110D+00-0.554D-01 0.116D+01
 Gap=     0.414 Goal=   None    Shift=    0.000
 RMSDP=3.04D-08 MaxDP=6.73D-07 DE=-1.49D-10 OVMax= 4.35D-06

 Cycle  12  Pass 1  IDiag  1:
 RMSU=  5.86D-09    CP:  1.02D+00  6.32D-01  9.31D-01  6.92D-01  1.16D+00
                    CP:  9.65D-01  1.23D+00  1.39D+00  1.59D+00  1.53D+00
                    CP:  1.36D+00
 FoFJK:  IHMeth= 1 ICntrl=     0 DoSepK=T KAlg= 1 I1Cent= 0 FoldK=F
 E= -2905.43199741091     Delta-E=       -0.000000000017 Rises=F Damp=F
 DIIS: error= 3.09D-08 at cycle  12 NSaved=  12.
 NSaved=12 IEnMin=12 EnMin= -2905.43199741091     IErMin=12 ErrMin= 3.09D-08
 ErrMax= 3.09D-08 EMaxC= 1.00D-01 BMatC= 2.07D-13 BMatP= 4.49D-12
 IDIUse=1 WtCom= 1.00D+00 WtEn= 0.00D+00
 Coeff-Com:  0.660D-08-0.318D-06-0.150D-05-0.426D-05-0.109D-03-0.213D-03
 Coeff-Com:  0.490D-03 0.678D-02-0.112D-02-0.635D-01-0.717D-01 0.113D+01
 Coeff:      0.660D-08-0.318D-06-0.150D-05-0.426D-05-0.109D-03-0.213D-03
 Coeff:      0.490D-03 0.678D-02-0.112D-02-0.635D-01-0.717D-01 0.113D+01
 Gap=     0.414 Goal=   None    Shift=    0.000
 RMSDP=7.62D-09 MaxDP=1.94D-07 DE=-1.73D-11 OVMax= 9.49D-07

 SCF Done:  E(RwB97XD) =  -2905.43199741     A.U. after   12 cycles
             Convg  =    0.7620D-08             -V/T =  2.0015
 KE= 2.900981206246D+03 PE=-7.236172180489D+03 EE= 1.280841027357D+03
 Leave Link  502 at Sat May  9 20:09:21 2020, MaxMem= 1073741824 cpu:     337.0
 (Enter /home/matheus/.gaussian/g09/l601.exe)
 Copying SCF densities to generalized density rwf, IOpCl= 0 IROHF=0.

 **********************************************************************

            Population analysis using the SCF density.

 **********************************************************************

 Orbital symmetries:
       Occupied  (A) (A) (A) (A) (A) (A) (A) (A) (A) (A) (A) (A)
                 (A) (A) (A) (A) (A) (A) (A) (A) (A) (A) (A) (A)
                 (A) (A) (A)
       Virtual   (A) (A) (A) (A) (A) (A) (A) (A) (A) (A) (A) (A)
                 (A) (A) (A) (A) (A) (A) (A) (A) (A) (A) (A) (A)
                 (A) (A) (A) (A) (A) (A) (A) (A) (A) (A) (A) (A)
                 (A) (A) (A) (A) (A) (A) (A) (A) (A) (A) (A) (A)
                 (A) (A) (A) (A) (A) (A) (A) (A) (A) (A) (A) (A)
                 (A) (A) (A) (A) (A) (A) (A) (A) (A) (A) (A) (A)
                 (A) (A) (A) (A) (A) (A) (A) (A) (A) (A) (A) (A)
                 (A) (A) (A) (A) (A) (A) (A) (A) (A) (A) (A) (A)
                 (A) (A) (A) (A) (A) (A) (A) (A) (A) (A) (A) (A)
                 (A) (A) (A) (A) (A) (A) (A) (A) (A) (A) (A) (A)
                 (A) (A) (A) (A) (A) (A) (A) (A) (A) (A) (A) (A)
                 (A) (A) (A) (A) (A) (A) (A) (A) (A) (A) (A) (A)
                 (A) (A) (A) (A) (A) (A) (A) (A) (A) (A) (A) (A)
                 (A) (A) (A) (A) (A) (A) (A) (A) (A) (A) (A) (A)
                 (A) (A)
 The electronic state is 1-A.
 Alpha  occ. eigenvalues -- -513.07083 -67.33769 -60.88653 -60.88640 -60.88632
 Alpha  occ. eigenvalues --  -19.31821 -19.31433  -9.79078  -7.48411  -7.48366
 Alpha  occ. eigenvalues --   -7.48340  -3.35149  -3.35140  -3.35120  -3.35084
 Alpha  occ. eigenvalues --   -3.35082  -1.22112  -1.01076  -0.99703  -0.64585
 Alpha  occ. eigenvalues --   -0.58148  -0.51521  -0.48132  -0.47761  -0.46961
 Alpha  occ. eigenvalues --   -0.40652  -0.37911
 Alpha virt. eigenvalues --    0.03460   0.04215   0.07890   0.09576   0.10425
 Alpha virt. eigenvalues --    0.11802   0.13453   0.13830   0.16916   0.17809
 Alpha virt. eigenvalues --    0.17894   0.18876   0.20414   0.22037   0.23300
 Alpha virt. eigenvalues --    0.24110   0.25372   0.27645   0.30621   0.32716
 Alpha virt. eigenvalues --    0.33953   0.34831   0.35500   0.37983   0.38945
 Alpha virt. eigenvalues --    0.40209   0.41943   0.47062   0.51271   0.54413
 Alpha virt. eigenvalues --    0.54894   0.58047   0.60126   0.64426   0.66849
 Alpha virt. eigenvalues --    0.68814   0.70041   0.71249   0.73849   0.74176
 Alpha virt. eigenvalues --    0.74480   0.76089   0.76590   0.78447   0.80977
 Alpha virt. eigenvalues --    0.83709   0.84801   0.87034   0.87920   0.88757
 Alpha virt. eigenvalues --    0.90874   0.92608   0.92897   0.94946   0.98740
 Alpha virt. eigenvalues --    0.99467   1.00881   1.02957   1.03645   1.05913
 Alpha virt. eigenvalues --    1.07641   1.14110   1.14793   1.17124   1.21035
 Alpha virt. eigenvalues --    1.23629   1.28188   1.31737   1.35206   1.38771
 Alpha virt. eigenvalues --    1.42274   1.48215   1.48916   1.51345   1.57168
 Alpha virt. eigenvalues --    1.65175   1.70145   1.80263   1.86548   1.91762
 Alpha virt. eigenvalues --    1.95587   1.99230   2.06499   2.11070   2.12154
 Alpha virt. eigenvalues --    2.13274   2.14911   2.16269   2.19470   2.23124
 Alpha virt. eigenvalues --    2.24847   2.27030   2.28718   2.29055   2.32409
 Alpha virt. eigenvalues --    2.35775   2.37723   2.40553   2.42031   2.44964
 Alpha virt. eigenvalues --    2.45922   2.46605   2.51455   2.52834   2.54701
 Alpha virt. eigenvalues --    2.56620   2.59316   2.60446   2.65792   2.68809
 Alpha virt. eigenvalues --    2.70611   2.74012   2.75640   2.83771   2.84746
 Alpha virt. eigenvalues --    2.89185   3.02542   3.08599   3.11757   3.57821
 Alpha virt. eigenvalues --    3.63958   3.86230   3.91232   3.99498   4.08127
 Alpha virt. eigenvalues --    4.08683   4.16122   4.20567   4.23498   4.24869
 Alpha virt. eigenvalues --    4.35548   4.47314   4.49938   4.53072   4.65550
 Alpha virt. eigenvalues --    4.86046   4.93562   4.99964   5.11633   5.12136
 Alpha virt. eigenvalues --    5.19160   5.41939   5.81973   6.03686   6.09660
 Alpha virt. eigenvalues --    6.12692   6.27976   6.30964   6.42316   6.52771
 Alpha virt. eigenvalues --    6.54094   6.76175   6.77549   6.79013   6.80920
 Alpha virt. eigenvalues --    6.85015   6.86416   6.86878   6.95685   6.99168
 Alpha virt. eigenvalues --    7.04496   7.14012   7.22766   7.42129   7.66254
 Alpha virt. eigenvalues --    7.79528   8.06774   8.10315  13.97219  14.65817
          Condensed to atoms (all electrons):
              1          2          3          4          5
     1  O    8.174910  -0.177342   0.219041   0.003837  -0.020686
     2  O   -0.177342   8.283901   0.008287   0.173815  -0.017857
     3  H    0.219041   0.008287   0.556999   0.002634   0.000952
     4  H    0.003837   0.173815   0.002634   0.571423  -0.004576
     5  Kr  -0.020686  -0.017857   0.000952  -0.004576  36.036553
 Mulliken atomic charges:
              1
     1  O   -0.199760
     2  O   -0.270805
     3  H    0.212087
     4  H    0.252865
     5  Kr   0.005613
 Sum of Mulliken atomic charges =   0.00000
 Mulliken charges with hydrogens summed into heavy atoms:
              1
     1  O    0.012327
     2  O   -0.017940
     5  Kr   0.005613
 Sum of Mulliken charges with hydrogens summed into heavy atoms =   0.00000
          Condensed to fragments (all electrons):
     1      -0.005613
     2       0.005613
 Electronic spatial extent (au):  <R**2>=            486.8856
 Charge=              0.0000 electrons
 Dipole moment (field-independent basis, Debye):
    X=             -1.1739    Y=             -0.4050    Z=              1.4048  Tot=              1.8749
 Quadrupole moment (field-independent basis, Debye-Ang):
   XX=            -32.1529   YY=            -27.9312   ZZ=            -29.1939
   XY=             -2.9268   XZ=              3.5948   YZ=             -1.6720
 Traceless Quadrupole moment (field-independent basis, Debye-Ang):
   XX=             -2.3935   YY=              1.8281   ZZ=              0.5654
   XY=             -2.9268   XZ=              3.5948   YZ=             -1.6720
 Octapole moment (field-independent basis, Debye-Ang**2):
  XXX=            -25.0923  YYY=             -1.0667  ZZZ=              1.0485  XYY=             -4.4074
  XXY=            -10.2845  XXZ=              8.5960  XZZ=             -5.3766  YZZ=             -1.6883
  YYZ=              2.0520  XYZ=             -4.1630
 Hexadecapole moment (field-independent basis, Debye-Ang**3):
 XXXX=           -427.1549 YYYY=            -63.0105 ZZZZ=            -29.8068 XXXY=            -25.8596
 XXXZ=             21.8616 YYYX=             -5.0508 YYYZ=             -2.3558 ZZZX=              3.0370
 ZZZY=             -1.6627 XXYY=            -77.7248 XXZZ=            -71.5189 YYZZ=            -16.1144
 XXYZ=            -10.3389 YYXZ=              4.9054 ZZXY=             -3.5732
 N-N= 1.489179494746D+02 E-N=-7.236172177611D+03  KE= 2.900981206246D+03
 No NMR shielding tensors so no spin-rotation constants.
 Leave Link  601 at Sat May  9 20:09:21 2020, MaxMem= 1073741824 cpu:       0.8
 (Enter /home/matheus/.gaussian/g09/l122.exe)
 Counterpoise: doing DCBS calculation for fragment   1 NewBq=T
 Leave Link  122 at Sat May  9 20:09:21 2020, MaxMem= 1073741824 cpu:       0.0
 (Enter /home/matheus/.gaussian/g09/l301.exe)
 Basis read from rwf:  (5D, 7F)
 No pseudopotential information found on rwf file.
 There are   197 symmetry adapted basis functions of A   symmetry.
 Integral buffers will be    131072 words long.
 Raffenetti 2 integral format.
 Two-electron integral symmetry is turned on.
   197 basis functions,   415 primitive gaussians,   229 cartesian basis functions
     9 alpha electrons        9 beta electrons
       nuclear repulsion energy        36.6165119696 Hartrees.
 IExCor= 4639 DFT=T Ex+Corr=wB97XD ExCW=0 ScaHFX=  1.000000
 ScaDFX=  1.000000  1.000000  1.000000  1.000000 ScalE2=  1.000000  1.000000
 IRadAn=      5 IRanWt=     -1 IRanGd=            0 ICorTp=0
  HFx wShort=  0.000000 wLong=  0.200000 cFull=  0.222036 cShort=  0.000000 cLong=  0.777964
  DFx wShort=  0.000000 wLong=  0.200000 cFull=  0.000000 cShort=  0.000000 cLong=  1.000000
 NAtoms=    5 NActive=    5 NUniq=    5 SFac= 1.00D+00 NAtFMM=   60 NAOKFM=F Big=F
 R6Disp: Dispersion energy =        -0.0002360568 Hartrees.
 Nuclear repulsion after empirical dispersion term =       36.6162759129 Hartrees.
 No density basis found on file   718.
 Leave Link  301 at Sat May  9 20:09:21 2020, MaxMem= 1073741824 cpu:       0.2
 (Enter /home/matheus/.gaussian/g09/l302.exe)
 NPDir=0 NMtPBC=     1 NCelOv=     1 NCel=       1 NClECP=     1 NCelD=      1
         NCelK=      1 NCelE2=     1 NClLst=     1 CellRange=     0.0.
 One-electron integrals computed using PRISM.
 NBasis=   197 RedAO= T  NBF=   197
 NBsUse=   197 1.00D-06 NBFU=   197
 Precomputing XC quadrature grid using
 IXCGrd= 2 IRadAn=           5 IRanWt=          -1 IRanGd=           0 AccXCQ= 0.00D+00.
 NRdTot=     427 NPtTot=      123512 NUsed=      126579 NTot=      126611
 NSgBfM=   229   229   229   229   229 NAtAll=     5     5.
 Leave Link  302 at Sat May  9 20:09:21 2020, MaxMem= 1073741824 cpu:       1.0
 (Enter /home/matheus/.gaussian/g09/l303.exe)
 DipDrv:  MaxL=1.
 Leave Link  303 at Sat May  9 20:09:21 2020, MaxMem= 1073741824 cpu:       0.2
 (Enter /home/matheus/.gaussian/g09/l401.exe)
 Harris functional with IExCor= 4639 diagonalized for initial guess.
 ExpMin= 2.53D-02 ExpMax= 1.17D+07 ExpMxC= 1.33D+04 IAcc=3 IRadAn=         5 AccDes= 0.00D+00
 HarFok:  IExCor= 4639 AccDes= 0.00D+00 IRadAn=         5 IDoV= 1
 ScaDFX=  1.000000  1.000000  1.000000  1.000000
 FoFCou: FMM=F IPFlag=           0 FMFlag=      100000 FMFlg1=           0
         NFxFlg=           0 DoJE=T BraDBF=F KetDBF=T FulRan=T
         Omega=  0.000000  0.000000  1.000000  0.000000  0.000000 ICntrl=     500 IOpCl=  0
         NMat0=    1 NMatS0=    1 NMatT0=    0 NMatD0=    1 NMtDS0=    0 NMtDT0=    0
         I1Cent=           4 NGrid=           0.
 Petite list used in FoFCou.
 Harris En= -146.295405083925    
 Initial guess orbital symmetries:
       Occupied  (A) (A) (A) (A) (A) (A) (A) (A) (A)
       Virtual   (A) (A) (A) (A) (A) (A) (A) (A) (A) (A) (A) (A)
                 (A) (A) (A) (A) (A) (A) (A) (A) (A) (A) (A) (A)
                 (A) (A) (A) (A) (A) (A) (A) (A) (A) (A) (A) (A)
                 (A) (A) (A) (A) (A) (A) (A) (A) (A) (A) (A) (A)
                 (A) (A) (A) (A) (A) (A) (A) (A) (A) (A) (A) (A)
                 (A) (A) (A) (A) (A) (A) (A) (A) (A) (A) (A) (A)
                 (A) (A) (A) (A) (A) (A) (A) (A) (A) (A) (A) (A)
                 (A) (A) (A) (A) (A) (A) (A) (A) (A) (A) (A) (A)
                 (A) (A) (A) (A) (A) (A) (A) (A) (A) (A) (A) (A)
                 (A) (A) (A) (A) (A) (A) (A) (A) (A) (A) (A) (A)
                 (A) (A) (A) (A) (A) (A) (A) (A) (A) (A) (A) (A)
                 (A) (A) (A) (A) (A) (A) (A) (A) (A) (A) (A) (A)
                 (A) (A) (A) (A) (A) (A) (A) (A) (A) (A) (A) (A)
                 (A) (A) (A) (A) (A) (A) (A) (A) (A) (A) (A) (A)
                 (A) (A) (A) (A) (A) (A) (A) (A) (A) (A) (A) (A)
                 (A) (A) (A) (A) (A) (A) (A) (A)
 The electronic state of the initial guess is 1-A.
 Leave Link  401 at Sat May  9 20:09:22 2020, MaxMem= 1073741824 cpu:       4.4
 (Enter /home/matheus/.gaussian/g09/l502.exe)
 Closed shell SCF:
 Requested convergence on RMS density matrix=1.00D-08 within 128 cycles.
 Requested convergence on MAX density matrix=1.00D-06.
 Requested convergence on             energy=1.00D-06.
 No special actions if energy rises.
 Using DIIS extrapolation, IDIIS=  1040.
 Integral symmetry usage will be decided dynamically.
       126521 words used for storage of precomputed grid.
 IEnd=      305468 IEndB=      305468 NGot=  1073741824 MDV=  1073505667
 LenX=  1073505667 LenY=  1073452785
 Fock matrices will be formed incrementally for  20 cycles.

 Cycle   1  Pass 1  IDiag  1:
 FoFJK:  IHMeth= 1 ICntrl=     0 DoSepK=T KAlg= 1 I1Cent= 0 FoldK=F
 FoFCou: FMM=F IPFlag=           0 FMFlag=      100000 FMFlg1=           0
         NFxFlg=           0 DoJE=T BraDBF=F KetDBF=F FulRan=T
         Omega=  0.000000  0.000000  1.000000  0.000000  0.000000 ICntrl=     500 IOpCl=  0
         NMat0=    1 NMatS0=    1 NMatT0=    0 NMatD0=    1 NMtDS0=    0 NMtDT0=    0
         I1Cent=           0 NGrid=           0.
 Symmetry not used in FoFCou.
 E= -151.478328078150    
 DIIS: error= 3.35D-02 at cycle   1 NSaved=   1.
 NSaved= 1 IEnMin= 1 EnMin= -151.478328078150     IErMin= 1 ErrMin= 3.35D-02
 ErrMax= 3.35D-02 EMaxC= 1.00D-01 BMatC= 3.02D-01 BMatP= 3.02D-01
 IDIUse=3 WtCom= 6.65D-01 WtEn= 3.35D-01
 Coeff-Com:  0.100D+01
 Coeff-En:   0.100D+01
 Coeff:      0.100D+01
 Gap=     0.522 Goal=   None    Shift=    0.000
 GapD=    0.522 DampG=2.000 DampE=0.500 DampFc=1.0000 IDamp=-1.
 RMSDP=2.44D-03 MaxDP=1.14D-01              OVMax= 1.09D-01

 Cycle   2  Pass 1  IDiag  1:
 RMSU=  1.69D-03    CP:  9.49D-01
 FoFJK:  IHMeth= 1 ICntrl=     0 DoSepK=T KAlg= 1 I1Cent= 0 FoldK=F
 E= -151.508318587567     Delta-E=       -0.029990509416 Rises=F Damp=F
 DIIS: error= 1.49D-02 at cycle   2 NSaved=   2.
 NSaved= 2 IEnMin= 2 EnMin= -151.508318587567     IErMin= 2 ErrMin= 1.49D-02
 ErrMax= 1.49D-02 EMaxC= 1.00D-01 BMatC= 9.13D-02 BMatP= 3.02D-01
 IDIUse=3 WtCom= 8.51D-01 WtEn= 1.49D-01
 Coeff-Com:  0.332D+00 0.668D+00
 Coeff-En:   0.366D+00 0.634D+00
 Coeff:      0.337D+00 0.663D+00
 Gap=     0.466 Goal=   None    Shift=    0.000
 RMSDP=1.02D-03 MaxDP=5.08D-02 DE=-3.00D-02 OVMax= 5.96D-02

 Cycle   3  Pass 1  IDiag  1:
 RMSU=  3.64D-04    CP:  9.71D-01  6.41D-01
 FoFJK:  IHMeth= 1 ICntrl=     0 DoSepK=T KAlg= 1 I1Cent= 0 FoldK=F
 E= -151.557342561054     Delta-E=       -0.049023973487 Rises=F Damp=F
 DIIS: error= 5.11D-03 at cycle   3 NSaved=   3.
 NSaved= 3 IEnMin= 3 EnMin= -151.557342561054     IErMin= 3 ErrMin= 5.11D-03
 ErrMax= 5.11D-03 EMaxC= 1.00D-01 BMatC= 6.74D-03 BMatP= 9.13D-02
 IDIUse=3 WtCom= 9.49D-01 WtEn= 5.11D-02
 Coeff-Com:  0.138D-01 0.222D+00 0.764D+00
 Coeff-En:   0.000D+00 0.000D+00 0.100D+01
 Coeff:      0.131D-01 0.211D+00 0.776D+00
 Gap=     0.415 Goal=   None    Shift=    0.000
 RMSDP=2.86D-04 MaxDP=1.25D-02 DE=-4.90D-02 OVMax= 1.69D-02

 Cycle   4  Pass 1  IDiag  1:
 RMSU=  6.46D-05    CP:  9.65D-01  7.44D-01  8.09D-01
 FoFJK:  IHMeth= 1 ICntrl=     0 DoSepK=T KAlg= 1 I1Cent= 0 FoldK=F
 E= -151.561668789799     Delta-E=       -0.004326228745 Rises=F Damp=F
 DIIS: error= 5.30D-04 at cycle   4 NSaved=   4.
 NSaved= 4 IEnMin= 4 EnMin= -151.561668789799     IErMin= 4 ErrMin= 5.30D-04
 ErrMax= 5.30D-04 EMaxC= 1.00D-01 BMatC= 6.83D-05 BMatP= 6.74D-03
 IDIUse=3 WtCom= 9.95D-01 WtEn= 5.30D-03
 Coeff-Com: -0.880D-04 0.180D-01 0.143D+00 0.839D+00
 Coeff-En:   0.000D+00 0.000D+00 0.000D+00 0.100D+01
 Coeff:     -0.875D-04 0.179D-01 0.142D+00 0.840D+00
 Gap=     0.412 Goal=   None    Shift=    0.000
 RMSDP=3.68D-05 MaxDP=2.13D-03 DE=-4.33D-03 OVMax= 1.67D-03

 Cycle   5  Pass 1  IDiag  1:
 RMSU=  1.24D-05    CP:  9.66D-01  7.36D-01  8.54D-01  1.11D+00
 FoFJK:  IHMeth= 1 ICntrl=     0 DoSepK=T KAlg= 1 I1Cent= 0 FoldK=F
 E= -151.561716939294     Delta-E=       -0.000048149495 Rises=F Damp=F
 DIIS: error= 3.71D-05 at cycle   5 NSaved=   5.
 NSaved= 5 IEnMin= 5 EnMin= -151.561716939294     IErMin= 5 ErrMin= 3.71D-05
 ErrMax= 3.71D-05 EMaxC= 1.00D-01 BMatC= 6.11D-07 BMatP= 6.83D-05
 IDIUse=1 WtCom= 1.00D+00 WtEn= 0.00D+00
 Coeff-Com: -0.591D-03-0.105D-01-0.359D-01-0.442D-01 0.109D+01
 Coeff:     -0.591D-03-0.105D-01-0.359D-01-0.442D-01 0.109D+01
 Gap=     0.411 Goal=   None    Shift=    0.000
 RMSDP=9.96D-06 MaxDP=3.79D-04 DE=-4.81D-05 OVMax= 6.87D-04

 Cycle   6  Pass 1  IDiag  1:
 RMSU=  2.45D-06    CP:  9.66D-01  7.36D-01  8.63D-01  1.18D+00  1.26D+00
 FoFJK:  IHMeth= 1 ICntrl=     0 DoSepK=T KAlg= 1 I1Cent= 0 FoldK=F
 E= -151.561718366441     Delta-E=       -0.000001427147 Rises=F Damp=F
 DIIS: error= 8.82D-06 at cycle   6 NSaved=   6.
 NSaved= 6 IEnMin= 6 EnMin= -151.561718366441     IErMin= 6 ErrMin= 8.82D-06
 ErrMax= 8.82D-06 EMaxC= 1.00D-01 BMatC= 2.46D-08 BMatP= 6.11D-07
 IDIUse=1 WtCom= 1.00D+00 WtEn= 0.00D+00
 Coeff-Com:  0.143D-04-0.536D-03-0.496D-02-0.258D-01 0.250D-01 0.101D+01
 Coeff:      0.143D-04-0.536D-03-0.496D-02-0.258D-01 0.250D-01 0.101D+01
 Gap=     0.411 Goal=   None    Shift=    0.000
 RMSDP=1.64D-06 MaxDP=6.08D-05 DE=-1.43D-06 OVMax= 1.74D-04

 Cycle   7  Pass 1  IDiag  1:
 RMSU=  4.98D-07    CP:  9.66D-01  7.36D-01  8.63D-01  1.18D+00  1.31D+00
                    CP:  1.32D+00
 FoFJK:  IHMeth= 1 ICntrl=     0 DoSepK=T KAlg= 1 I1Cent= 0 FoldK=F
 E= -151.561718436065     Delta-E=       -0.000000069624 Rises=F Damp=F
 DIIS: error= 3.44D-06 at cycle   7 NSaved=   7.
 NSaved= 7 IEnMin= 7 EnMin= -151.561718436065     IErMin= 7 ErrMin= 3.44D-06
 ErrMax= 3.44D-06 EMaxC= 1.00D-01 BMatC= 1.95D-09 BMatP= 2.46D-08
 IDIUse=1 WtCom= 1.00D+00 WtEn= 0.00D+00
 Coeff-Com:  0.133D-04 0.420D-03 0.213D-02 0.451D-02-0.424D-01-0.238D+00
 Coeff-Com:  0.127D+01
 Coeff:      0.133D-04 0.420D-03 0.213D-02 0.451D-02-0.424D-01-0.238D+00
 Coeff:      0.127D+01
 Gap=     0.411 Goal=   None    Shift=    0.000
 RMSDP=6.05D-07 MaxDP=1.68D-05 DE=-6.96D-08 OVMax= 8.20D-05

 Cycle   8  Pass 1  IDiag  1:
 RMSU=  1.69D-07    CP:  9.66D-01  7.36D-01  8.64D-01  1.18D+00  1.32D+00
                    CP:  1.42D+00  1.47D+00
 FoFJK:  IHMeth= 1 ICntrl=     0 DoSepK=T KAlg= 1 I1Cent= 0 FoldK=F
 E= -151.561718444238     Delta-E=       -0.000000008172 Rises=F Damp=F
 DIIS: error= 6.85D-07 at cycle   8 NSaved=   8.
 NSaved= 8 IEnMin= 8 EnMin= -151.561718444238     IErMin= 8 ErrMin= 6.85D-07
 ErrMax= 6.85D-07 EMaxC= 1.00D-01 BMatC= 1.97D-10 BMatP= 1.95D-09
 IDIUse=1 WtCom= 1.00D+00 WtEn= 0.00D+00
 Coeff-Com:  0.913D-06 0.645D-04 0.430D-03 0.119D-02-0.130D-02-0.926D-01
 Coeff-Com:  0.176D+00 0.916D+00
 Coeff:      0.913D-06 0.645D-04 0.430D-03 0.119D-02-0.130D-02-0.926D-01
 Coeff:      0.176D+00 0.916D+00
 Gap=     0.411 Goal=   None    Shift=    0.000
 RMSDP=1.34D-07 MaxDP=3.90D-06 DE=-8.17D-09 OVMax= 1.89D-05

 Cycle   9  Pass 1  IDiag  1:
 RMSU=  4.52D-08    CP:  9.66D-01  7.36D-01  8.64D-01  1.18D+00  1.32D+00
                    CP:  1.42D+00  1.58D+00  1.37D+00
 FoFJK:  IHMeth= 1 ICntrl=     0 DoSepK=T KAlg= 1 I1Cent= 0 FoldK=F
 E= -151.561718444692     Delta-E=       -0.000000000455 Rises=F Damp=F
 DIIS: error= 6.57D-07 at cycle   9 NSaved=   9.
 NSaved= 9 IEnMin= 9 EnMin= -151.561718444692     IErMin= 9 ErrMin= 6.57D-07
 ErrMax= 6.57D-07 EMaxC= 1.00D-01 BMatC= 1.21D-10 BMatP= 1.97D-10
 IDIUse=1 WtCom= 1.00D+00 WtEn= 0.00D+00
 Coeff-Com: -0.985D-06-0.187D-04-0.621D-04-0.101D-03 0.600D-02-0.231D-01
 Coeff-Com: -0.740D-01 0.503D+00 0.588D+00
 Coeff:     -0.985D-06-0.187D-04-0.621D-04-0.101D-03 0.600D-02-0.231D-01
 Coeff:     -0.740D-01 0.503D+00 0.588D+00
 Gap=     0.411 Goal=   None    Shift=    0.000
 RMSDP=5.49D-08 MaxDP=1.60D-06 DE=-4.55D-10 OVMax= 6.95D-06

 Cycle  10  Pass 1  IDiag  1:
 RMSU=  1.91D-08    CP:  9.66D-01  7.36D-01  8.64D-01  1.18D+00  1.32D+00
                    CP:  1.42D+00  1.61D+00  1.54D+00  8.57D-01
 FoFJK:  IHMeth= 1 ICntrl=     0 DoSepK=T KAlg= 1 I1Cent= 0 FoldK=F
 E= -151.561718444824     Delta-E=       -0.000000000132 Rises=F Damp=F
 DIIS: error= 1.72D-07 at cycle  10 NSaved=  10.
 NSaved=10 IEnMin=10 EnMin= -151.561718444824     IErMin=10 ErrMin= 1.72D-07
 ErrMax= 1.72D-07 EMaxC= 1.00D-01 BMatC= 1.20D-11 BMatP= 1.21D-10
 IDIUse=1 WtCom= 1.00D+00 WtEn= 0.00D+00
 Coeff-Com: -0.239D-06-0.201D-04-0.147D-03-0.483D-03 0.263D-02 0.164D-01
 Coeff-Com: -0.677D-01-0.137D+00 0.141D+00 0.104D+01
 Coeff:     -0.239D-06-0.201D-04-0.147D-03-0.483D-03 0.263D-02 0.164D-01
 Coeff:     -0.677D-01-0.137D+00 0.141D+00 0.104D+01
 Gap=     0.411 Goal=   None    Shift=    0.000
 RMSDP=4.08D-08 MaxDP=8.68D-07 DE=-1.32D-10 OVMax= 5.91D-06

 Cycle  11  Pass 1  IDiag  1:
 RMSU=  7.24D-09    CP:  9.66D-01  7.36D-01  8.64D-01  1.18D+00  1.32D+00
                    CP:  1.42D+00  1.63D+00  1.67D+00  1.10D+00  1.33D+00
 FoFJK:  IHMeth= 1 ICntrl=     0 DoSepK=T KAlg= 1 I1Cent= 0 FoldK=F
 E= -151.561718444856     Delta-E=       -0.000000000032 Rises=F Damp=F
 DIIS: error= 3.58D-08 at cycle  11 NSaved=  11.
 NSaved=11 IEnMin=11 EnMin= -151.561718444856     IErMin=11 ErrMin= 3.58D-08
 ErrMax= 3.58D-08 EMaxC= 1.00D-01 BMatC= 3.26D-13 BMatP= 1.20D-11
 IDIUse=1 WtCom= 1.00D+00 WtEn= 0.00D+00
 Coeff-Com: -0.728D-07-0.135D-05-0.452D-05-0.257D-04-0.117D-03 0.121D-02
 Coeff-Com:  0.673D-02-0.338D-01-0.443D-01 0.125D-01 0.106D+01
 Coeff:     -0.728D-07-0.135D-05-0.452D-05-0.257D-04-0.117D-03 0.121D-02
 Coeff:      0.673D-02-0.338D-01-0.443D-01 0.125D-01 0.106D+01
 Gap=     0.411 Goal=   None    Shift=    0.000
 RMSDP=9.17D-09 MaxDP=2.69D-07 DE=-3.17D-11 OVMax= 1.03D-06

 SCF Done:  E(RwB97XD) =  -151.561718445     A.U. after   11 cycles
             Convg  =    0.9174D-08             -V/T =  2.0059
 KE= 1.506723638992D+02 PE=-4.317307529667D+02 EE= 9.288039470974D+01
 Leave Link  502 at Sat May  9 20:10:00 2020, MaxMem= 1073741824 cpu:     306.3
 (Enter /home/matheus/.gaussian/g09/l601.exe)
 Copying SCF densities to generalized density rwf, IOpCl= 0 IROHF=0.

 **********************************************************************

            Population analysis using the SCF density.

 **********************************************************************

 Orbital symmetries:
       Occupied  (A) (A) (A) (A) (A) (A) (A) (A) (A)
       Virtual   (A) (A) (A) (A) (A) (A) (A) (A) (A) (A) (A) (A)
                 (A) (A) (A) (A) (A) (A) (A) (A) (A) (A) (A) (A)
                 (A) (A) (A) (A) (A) (A) (A) (A) (A) (A) (A) (A)
                 (A) (A) (A) (A) (A) (A) (A) (A) (A) (A) (A) (A)
                 (A) (A) (A) (A) (A) (A) (A) (A) (A) (A) (A) (A)
                 (A) (A) (A) (A) (A) (A) (A) (A) (A) (A) (A) (A)
                 (A) (A) (A) (A) (A) (A) (A) (A) (A) (A) (A) (A)
                 (A) (A) (A) (A) (A) (A) (A) (A) (A) (A) (A) (A)
                 (A) (A) (A) (A) (A) (A) (A) (A) (A) (A) (A) (A)
                 (A) (A) (A) (A) (A) (A) (A) (A) (A) (A) (A) (A)
                 (A) (A) (A) (A) (A) (A) (A) (A) (A) (A) (A) (A)
                 (A) (A) (A) (A) (A) (A) (A) (A) (A) (A) (A) (A)
                 (A) (A) (A) (A) (A) (A) (A) (A) (A) (A) (A) (A)
                 (A) (A) (A) (A) (A) (A) (A) (A) (A) (A) (A) (A)
                 (A) (A) (A) (A) (A) (A) (A) (A) (A) (A) (A) (A)
                 (A) (A) (A) (A) (A) (A) (A) (A)
 The electronic state is 1-A.
 Alpha  occ. eigenvalues --  -19.31949 -19.31943  -1.22299  -1.01174  -0.64680
 Alpha  occ. eigenvalues --   -0.57722  -0.51328  -0.40948  -0.38161
 Alpha virt. eigenvalues --    0.02976   0.03736   0.07087   0.08759   0.09370
 Alpha virt. eigenvalues --    0.10759   0.10985   0.13897   0.16837   0.17408
 Alpha virt. eigenvalues --    0.18315   0.19250   0.21064   0.23191   0.24984
 Alpha virt. eigenvalues --    0.26912   0.31052   0.31526   0.33090   0.33424
 Alpha virt. eigenvalues --    0.34357   0.37456   0.38551   0.39261   0.40579
 Alpha virt. eigenvalues --    0.43163   0.44610   0.46857   0.48469   0.49865
 Alpha virt. eigenvalues --    0.53453   0.57565   0.59440   0.60909   0.65766
 Alpha virt. eigenvalues --    0.70055   0.71552   0.73342   0.76264   0.77194
 Alpha virt. eigenvalues --    0.79260   0.80310   0.86513   0.88990   0.89472
 Alpha virt. eigenvalues --    0.89996   0.91687   0.93338   0.95813   0.96751
 Alpha virt. eigenvalues --    0.98989   1.01066   1.04412   1.08411   1.10561
 Alpha virt. eigenvalues --    1.13413   1.15511   1.18704   1.21395   1.24446
 Alpha virt. eigenvalues --    1.26254   1.27912   1.30130   1.32779   1.33114
 Alpha virt. eigenvalues --    1.34209   1.35215   1.37291   1.38323   1.40086
 Alpha virt. eigenvalues --    1.44193   1.47981   1.49451   1.50573   1.54972
 Alpha virt. eigenvalues --    1.58013   1.64374   1.65857   1.67661   1.77213
 Alpha virt. eigenvalues --    1.80783   1.84380   1.88885   1.93117   2.00338
 Alpha virt. eigenvalues --    2.04816   2.08164   2.14224   2.14779   2.19956
 Alpha virt. eigenvalues --    2.24540   2.28363   2.31433   2.34931   2.39346
 Alpha virt. eigenvalues --    2.42411   2.48743   2.51116   2.58032   2.62016
 Alpha virt. eigenvalues --    2.64253   2.69640   2.81408   2.82367   2.88414
 Alpha virt. eigenvalues --    3.01765   3.06692   3.09667   3.26863   3.30999
 Alpha virt. eigenvalues --    3.40270   3.54406   3.59420   3.66004   3.79085
 Alpha virt. eigenvalues --    3.79458   3.81959   3.82527   3.83344   3.83695
 Alpha virt. eigenvalues --    3.86483   3.88083   3.91921   3.92792   3.95620
 Alpha virt. eigenvalues --    3.98233   4.00749   4.06713   4.09730   4.10200
 Alpha virt. eigenvalues --    4.17730   4.21722   4.23663   4.28705   4.31338
 Alpha virt. eigenvalues --    4.41334   4.48979   4.54685   4.65532   4.86462
 Alpha virt. eigenvalues --    4.93712   4.99857   5.11497   5.12460   5.19459
 Alpha virt. eigenvalues --    5.41789   5.81868   6.03542   6.09559   6.12500
 Alpha virt. eigenvalues --    6.28005   6.30967   6.42270   6.52653   6.54004
 Alpha virt. eigenvalues --    6.76026   6.77151   6.78883   6.80577   6.84892
 Alpha virt. eigenvalues --    6.86141   6.86715   6.95486   6.99100   7.04369
 Alpha virt. eigenvalues --    7.13841   7.22489   7.42028   7.66068   7.79348
 Alpha virt. eigenvalues --    8.06594   8.09595  10.89845  13.96955  14.64610
 Alpha virt. eigenvalues --   14.84414  14.89082  15.10934  29.04212  29.04497
 Alpha virt. eigenvalues --   29.09117  29.14568  29.24083  49.11142 148.32493
 Alpha virt. eigenvalues --  148.39083 148.71313 752.50699
          Condensed to atoms (all electrons):
              1          2          3          4          5
     1  O    8.171750  -0.169670   0.207514   0.000731   0.000653
     2  O   -0.169670   8.217606   0.008440   0.190736  -0.001814
     3  H    0.207514   0.008440   0.567046   0.004248  -0.001433
     4  H    0.000731   0.190736   0.004248   0.571910  -0.004311
     5  Kr   0.000653  -0.001814  -0.001433  -0.004311   0.001500
 Mulliken atomic charges:
              1
     1  O   -0.210978
     2  O   -0.245297
     3  H    0.214184
     4  H    0.236686
     5  Kr   0.005404
 Sum of Mulliken atomic charges =   0.00000
 Mulliken charges with hydrogens summed into heavy atoms:
              1
     1  O    0.003207
     2  O   -0.008611
     5  Kr   0.005404
 Sum of Mulliken charges with hydrogens summed into heavy atoms =   0.00000
          Condensed to fragments (all electrons):
     1      -0.005404
     2       0.005404
 Electronic spatial extent (au):  <R**2>=            321.9070
 Charge=              0.0000 electrons
 Dipole moment (field-independent basis, Debye):
    X=             -1.0018    Y=             -0.1425    Z=              1.4815  Tot=              1.7941
 Quadrupole moment (field-independent basis, Debye-Ang):
   XX=            -14.5402   YY=            -10.3131   ZZ=            -11.6326
   XY=             -3.0768   XZ=              3.5382   YZ=             -1.6784
 Traceless Quadrupole moment (field-independent basis, Debye-Ang):
   XX=             -2.3782   YY=              1.8489   ZZ=              0.5294
   XY=             -3.0768   XZ=              3.5382   YZ=             -1.6784
 Octapole moment (field-independent basis, Debye-Ang**2):
  XXX=            -76.3145  YYY=             -1.4121  ZZZ=              1.2768  XYY=            -21.6703
  XXY=            -10.1706  XXZ=              8.7218  XZZ=            -22.6784  YZZ=             -1.8035
  YYZ=              2.1272  XYZ=             -4.1671
 Hexadecapole moment (field-independent basis, Debye-Ang**3):
 XXXX=           -304.5968 YYYY=            -44.7352 ZZZZ=            -11.6300 XXXY=            -25.3403
 XXXZ=             21.6437 YYYX=             -4.6848 YYYZ=             -2.3705 ZZZX=              2.8435
 ZZZY=             -1.6769 XXYY=            -54.3066 XXZZ=            -48.2166 YYZZ=            -10.0304
 XXYZ=            -10.3576 YYXZ=              4.8331 ZZXY=             -3.4128
 N-N= 3.661627591288D+01 E-N=-4.317307531085D+02  KE= 1.506723638992D+02
 No NMR shielding tensors so no spin-rotation constants.
 Leave Link  601 at Sat May  9 20:10:00 2020, MaxMem= 1073741824 cpu:       1.0
 (Enter /home/matheus/.gaussian/g09/l122.exe)
 Counterpoise: doing DCBS calculation for fragment   2 NewBq=T
 Leave Link  122 at Sat May  9 20:10:00 2020, MaxMem= 1073741824 cpu:       0.0
 (Enter /home/matheus/.gaussian/g09/l301.exe)
 Basis read from rwf:  (5D, 7F)
 No pseudopotential information found on rwf file.
 There are   197 symmetry adapted basis functions of A   symmetry.
 Integral buffers will be    131072 words long.
 Raffenetti 2 integral format.
 Two-electron integral symmetry is turned on.
   197 basis functions,   415 primitive gaussians,   229 cartesian basis functions
    18 alpha electrons       18 beta electrons
       nuclear repulsion energy         0.0000000000 Hartrees.
 IExCor= 4639 DFT=T Ex+Corr=wB97XD ExCW=0 ScaHFX=  1.000000
 ScaDFX=  1.000000  1.000000  1.000000  1.000000 ScalE2=  1.000000  1.000000
 IRadAn=      5 IRanWt=     -1 IRanGd=            0 ICorTp=0
  HFx wShort=  0.000000 wLong=  0.200000 cFull=  0.222036 cShort=  0.000000 cLong=  0.777964
  DFx wShort=  0.000000 wLong=  0.200000 cFull=  0.000000 cShort=  0.000000 cLong=  1.000000
 NAtoms=    5 NActive=    5 NUniq=    5 SFac= 1.00D+00 NAtFMM=   60 NAOKFM=F Big=F
 R6Disp: Dispersion energy =         0.0000000000 Hartrees.
 Nuclear repulsion after empirical dispersion term =        0.0000000000 Hartrees.
 No density basis found on file   718.
 Leave Link  301 at Sat May  9 20:10:00 2020, MaxMem= 1073741824 cpu:       0.2
 (Enter /home/matheus/.gaussian/g09/l302.exe)
 NPDir=0 NMtPBC=     1 NCelOv=     1 NCel=       1 NClECP=     1 NCelD=      1
         NCelK=      1 NCelE2=     1 NClLst=     1 CellRange=     0.0.
 One-electron integrals computed using PRISM.
 NBasis=   197 RedAO= T  NBF=   197
 NBsUse=   197 1.00D-06 NBFU=   197
 Precomputing XC quadrature grid using
 IXCGrd= 2 IRadAn=           5 IRanWt=          -1 IRanGd=           0 AccXCQ= 0.00D+00.
 NRdTot=     427 NPtTot=      123512 NUsed=      126579 NTot=      126611
 NSgBfM=   229   229   229   229   229 NAtAll=     5     5.
 Leave Link  302 at Sat May  9 20:10:01 2020, MaxMem= 1073741824 cpu:       1.1
 (Enter /home/matheus/.gaussian/g09/l303.exe)
 DipDrv:  MaxL=1.
 Leave Link  303 at Sat May  9 20:10:01 2020, MaxMem= 1073741824 cpu:       0.2
 (Enter /home/matheus/.gaussian/g09/l401.exe)
 Harris functional with IExCor= 4639 diagonalized for initial guess.
 ExpMin= 2.53D-02 ExpMax= 1.17D+07 ExpMxC= 1.33D+04 IAcc=3 IRadAn=         5 AccDes= 0.00D+00
 HarFok:  IExCor= 4639 AccDes= 0.00D+00 IRadAn=         5 IDoV= 1
 ScaDFX=  1.000000  1.000000  1.000000  1.000000
 FoFCou: FMM=F IPFlag=           0 FMFlag=      100000 FMFlg1=           0
         NFxFlg=           0 DoJE=T BraDBF=F KetDBF=T FulRan=T
         Omega=  0.000000  0.000000  1.000000  0.000000  0.000000 ICntrl=     500 IOpCl=  0
         NMat0=    1 NMatS0=    1 NMatT0=    0 NMatD0=    1 NMtDS0=    0 NMtDT0=    0
         I1Cent=           4 NGrid=           0.
 Petite list used in FoFCou.
 Harris En= -2730.20432210628    
 Initial guess orbital symmetries:
       Occupied  (A) (A) (A) (A) (A) (A) (A) (A) (A) (A) (A) (A)
                 (A) (A) (A) (A) (A) (A)
       Virtual   (A) (A) (A) (A) (A) (A) (A) (A) (A) (A) (A) (A)
                 (A) (A) (A) (A) (A) (A) (A) (A) (A) (A) (A) (A)
                 (A) (A) (A) (A) (A) (A) (A) (A) (A) (A) (A) (A)
                 (A) (A) (A) (A) (A) (A) (A) (A) (A) (A) (A) (A)
                 (A) (A) (A) (A) (A) (A) (A) (A) (A) (A) (A) (A)
                 (A) (A) (A) (A) (A) (A) (A) (A) (A) (A) (A) (A)
                 (A) (A) (A) (A) (A) (A) (A) (A) (A) (A) (A) (A)
                 (A) (A) (A) (A) (A) (A) (A) (A) (A) (A) (A) (A)
                 (A) (A) (A) (A) (A) (A) (A) (A) (A) (A) (A) (A)
                 (A) (A) (A) (A) (A) (A) (A) (A) (A) (A) (A) (A)
                 (A) (A) (A) (A) (A) (A) (A) (A) (A) (A) (A) (A)
                 (A) (A) (A) (A) (A) (A) (A) (A) (A) (A) (A) (A)
                 (A) (A) (A) (A) (A) (A) (A) (A) (A) (A) (A) (A)
                 (A) (A) (A) (A) (A) (A) (A) (A) (A) (A) (A) (A)
                 (A) (A) (A) (A) (A) (A) (A) (A) (A) (A) (A)
 The electronic state of the initial guess is 1-A.
 Leave Link  401 at Sat May  9 20:10:01 2020, MaxMem= 1073741824 cpu:       4.3
 (Enter /home/matheus/.gaussian/g09/l502.exe)
 Closed shell SCF:
 Requested convergence on RMS density matrix=1.00D-08 within 128 cycles.
 Requested convergence on MAX density matrix=1.00D-06.
 Requested convergence on             energy=1.00D-06.
 No special actions if energy rises.
 Using DIIS extrapolation, IDIIS=  1040.
 Integral symmetry usage will be decided dynamically.
       126521 words used for storage of precomputed grid.
 IEnd=      305468 IEndB=      305468 NGot=  1073741824 MDV=  1073505667
 LenX=  1073505667 LenY=  1073452785
 Fock matrices will be formed incrementally for  20 cycles.

 Cycle   1  Pass 1  IDiag  1:
 FoFJK:  IHMeth= 1 ICntrl=     0 DoSepK=T KAlg= 1 I1Cent= 0 FoldK=F
 FoFCou: FMM=F IPFlag=           0 FMFlag=      100000 FMFlg1=           0
         NFxFlg=           0 DoJE=T BraDBF=F KetDBF=F FulRan=T
         Omega=  0.000000  0.000000  1.000000  0.000000  0.000000 ICntrl=     500 IOpCl=  0
         NMat0=    1 NMatS0=    1 NMatT0=    0 NMatD0=    1 NMtDS0=    0 NMtDT0=    0
         I1Cent=           0 NGrid=           0.
 Symmetry not used in FoFCou.
 E= -2753.46465302334    
 DIIS: error= 7.18D-02 at cycle   1 NSaved=   1.
 NSaved= 1 IEnMin= 1 EnMin= -2753.46465302334     IErMin= 1 ErrMin= 7.18D-02
 ErrMax= 7.18D-02 EMaxC= 1.00D-01 BMatC= 1.87D+00 BMatP= 1.87D+00
 IDIUse=3 WtCom= 2.82D-01 WtEn= 7.18D-01
 Coeff-Com:  0.100D+01
 Coeff-En:   0.100D+01
 Coeff:      0.100D+01
 Gap=     0.634 Goal=   None    Shift=    0.000
 GapD=    0.634 DampG=2.000 DampE=0.500 DampFc=1.0000 IDamp=-1.
 RMSDP=5.62D-03 MaxDP=3.67D-01              OVMax= 1.78D-01

 Cycle   2  Pass 1  IDiag  1:
 RMSU=  3.91D-03    CP:  1.04D+00
 FoFJK:  IHMeth= 1 ICntrl=     0 DoSepK=T KAlg= 1 I1Cent= 0 FoldK=F
 E= -2753.72413506255     Delta-E=       -0.259482039203 Rises=F Damp=F
 DIIS: error= 2.92D-02 at cycle   2 NSaved=   2.
 NSaved= 2 IEnMin= 2 EnMin= -2753.72413506255     IErMin= 2 ErrMin= 2.92D-02
 ErrMax= 2.92D-02 EMaxC= 1.00D-01 BMatC= 4.75D-01 BMatP= 1.87D+00
 IDIUse=3 WtCom= 7.08D-01 WtEn= 2.92D-01
 Coeff-Com:  0.330D+00 0.670D+00
 Coeff-En:   0.183D+00 0.817D+00
 Coeff:      0.287D+00 0.713D+00
 Gap=     0.474 Goal=   None    Shift=    0.000
 RMSDP=2.52D-03 MaxDP=1.59D-01 DE=-2.59D-01 OVMax= 7.85D-02

 Cycle   3  Pass 1  IDiag  1:
 RMSU=  3.69D-04    CP:  1.03D+00  5.60D-01
 FoFJK:  IHMeth= 1 ICntrl=     0 DoSepK=T KAlg= 1 I1Cent= 0 FoldK=F
 E= -2753.87142357098     Delta-E=       -0.147288508431 Rises=F Damp=F
 DIIS: error= 4.09D-03 at cycle   3 NSaved=   3.
 NSaved= 3 IEnMin= 3 EnMin= -2753.87142357098     IErMin= 3 ErrMin= 4.09D-03
 ErrMax= 4.09D-03 EMaxC= 1.00D-01 BMatC= 9.07D-03 BMatP= 4.75D-01
 IDIUse=3 WtCom= 9.59D-01 WtEn= 4.09D-02
 Coeff-Com: -0.498D-02 0.113D+00 0.892D+00
 Coeff-En:   0.000D+00 0.000D+00 0.100D+01
 Coeff:     -0.477D-02 0.109D+00 0.896D+00
 Gap=     0.501 Goal=   None    Shift=    0.000
 RMSDP=2.84D-04 MaxDP=1.60D-02 DE=-1.47D-01 OVMax= 1.20D-02

 Cycle   4  Pass 1  IDiag  1:
 RMSU=  4.51D-05    CP:  1.03D+00  6.09D-01  9.48D-01
 FoFJK:  IHMeth= 1 ICntrl=     0 DoSepK=T KAlg= 1 I1Cent= 0 FoldK=F
 E= -2753.87434451605     Delta-E=       -0.002920945069 Rises=F Damp=F
 DIIS: error= 1.83D-04 at cycle   4 NSaved=   4.
 NSaved= 4 IEnMin= 4 EnMin= -2753.87434451605     IErMin= 4 ErrMin= 1.83D-04
 ErrMax= 1.83D-04 EMaxC= 1.00D-01 BMatC= 1.60D-05 BMatP= 9.07D-03
 IDIUse=3 WtCom= 9.98D-01 WtEn= 1.83D-03
 Coeff-Com: -0.861D-03-0.145D-01-0.515D-01 0.107D+01
 Coeff-En:   0.000D+00 0.000D+00 0.000D+00 0.100D+01
 Coeff:     -0.860D-03-0.145D-01-0.514D-01 0.107D+01
 Gap=     0.499 Goal=   None    Shift=    0.000
 RMSDP=2.28D-05 MaxDP=8.92D-04 DE=-2.92D-03 OVMax= 7.87D-04

 Cycle   5  Pass 1  IDiag  1:
 RMSU=  1.09D-05    CP:  1.03D+00  6.07D-01  9.68D-01  1.13D+00
 FoFJK:  IHMeth= 1 ICntrl=     0 DoSepK=T KAlg= 1 I1Cent= 0 FoldK=F
 E= -2753.87435288170     Delta-E=       -0.000008365657 Rises=F Damp=F
 DIIS: error= 1.26D-05 at cycle   5 NSaved=   5.
 NSaved= 5 IEnMin= 5 EnMin= -2753.87435288170     IErMin= 5 ErrMin= 1.26D-05
 ErrMax= 1.26D-05 EMaxC= 1.00D-01 BMatC= 3.81D-08 BMatP= 1.60D-05
 IDIUse=1 WtCom= 1.00D+00 WtEn= 0.00D+00
 Coeff-Com:  0.114D-03-0.100D-02-0.102D-01-0.159D-01 0.103D+01
 Coeff:      0.114D-03-0.100D-02-0.102D-01-0.159D-01 0.103D+01
 Gap=     0.499 Goal=   None    Shift=    0.000
 RMSDP=2.43D-06 MaxDP=1.09D-04 DE=-8.37D-06 OVMax= 1.81D-04

 Cycle   6  Pass 1  IDiag  1:
 RMSU=  9.49D-07    CP:  1.03D+00  6.07D-01  9.69D-01  1.15D+00  1.07D+00
 FoFJK:  IHMeth= 1 ICntrl=     0 DoSepK=T KAlg= 1 I1Cent= 0 FoldK=F
 E= -2753.87435299806     Delta-E=       -0.000000116360 Rises=F Damp=F
 DIIS: error= 3.79D-06 at cycle   6 NSaved=   6.
 NSaved= 6 IEnMin= 6 EnMin= -2753.87435299806     IErMin= 6 ErrMin= 3.79D-06
 ErrMax= 3.79D-06 EMaxC= 1.00D-01 BMatC= 3.79D-09 BMatP= 3.81D-08
 IDIUse=1 WtCom= 1.00D+00 WtEn= 0.00D+00
 Coeff-Com:  0.626D-05 0.200D-03 0.418D-03-0.351D-01 0.370D-01 0.997D+00
 Coeff:      0.626D-05 0.200D-03 0.418D-03-0.351D-01 0.370D-01 0.997D+00
 Gap=     0.499 Goal=   None    Shift=    0.000
 RMSDP=6.02D-07 MaxDP=2.61D-05 DE=-1.16D-07 OVMax= 2.78D-05

 Cycle   7  Pass 1  IDiag  1:
 RMSU=  9.35D-08    CP:  1.03D+00  6.07D-01  9.69D-01  1.15D+00  1.10D+00
                    CP:  1.20D+00
 FoFJK:  IHMeth= 1 ICntrl=     0 DoSepK=T KAlg= 1 I1Cent= 0 FoldK=F
 E= -2753.87435300221     Delta-E=       -0.000000004142 Rises=F Damp=F
 DIIS: error= 2.40D-07 at cycle   7 NSaved=   7.
 NSaved= 7 IEnMin= 7 EnMin= -2753.87435300221     IErMin= 7 ErrMin= 2.40D-07
 ErrMax= 2.40D-07 EMaxC= 1.00D-01 BMatC= 3.21D-11 BMatP= 3.79D-09
 IDIUse=1 WtCom= 1.00D+00 WtEn= 0.00D+00
 Coeff-Com:  0.509D-06 0.642D-04 0.229D-03-0.839D-02 0.324D-03 0.230D+00
 Coeff-Com:  0.778D+00
 Coeff:      0.509D-06 0.642D-04 0.229D-03-0.839D-02 0.324D-03 0.230D+00
 Coeff:      0.778D+00
 Gap=     0.499 Goal=   None    Shift=    0.000
 RMSDP=4.32D-08 MaxDP=1.37D-06 DE=-4.14D-09 OVMax= 2.43D-06

 Cycle   8  Pass 1  IDiag  1:
 RMSU=  1.75D-08    CP:  1.03D+00  6.07D-01  9.69D-01  1.15D+00  1.10D+00
                    CP:  1.23D+00  1.06D+00
 FoFJK:  IHMeth= 1 ICntrl=     0 DoSepK=T KAlg= 1 I1Cent= 0 FoldK=F
 E= -2753.87435300225     Delta-E=       -0.000000000047 Rises=F Damp=F
 DIIS: error= 5.26D-08 at cycle   8 NSaved=   8.
 NSaved= 8 IEnMin= 8 EnMin= -2753.87435300225     IErMin= 8 ErrMin= 5.26D-08
 ErrMax= 5.26D-08 EMaxC= 1.00D-01 BMatC= 1.42D-12 BMatP= 3.21D-11
 IDIUse=1 WtCom= 1.00D+00 WtEn= 0.00D+00
 Coeff-Com: -0.140D-06-0.373D-05 0.930D-05 0.157D-02-0.201D-02-0.459D-01
 Coeff-Com:  0.468D-01 0.100D+01
 Coeff:     -0.140D-06-0.373D-05 0.930D-05 0.157D-02-0.201D-02-0.459D-01
 Coeff:      0.468D-01 0.100D+01
 Gap=     0.499 Goal=   None    Shift=    0.000
 RMSDP=2.03D-08 MaxDP=8.47D-07 DE=-4.68D-11 OVMax= 5.17D-07

 Cycle   9  Pass 1  IDiag  1:
 RMSU=  3.43D-09    CP:  1.03D+00  6.07D-01  9.69D-01  1.15D+00  1.10D+00
                    CP:  1.24D+00  1.12D+00  1.14D+00
 FoFJK:  IHMeth= 1 ICntrl=     0 DoSepK=T KAlg= 1 I1Cent= 0 FoldK=F
 E= -2753.87435300225     Delta-E=        0.000000000003 Rises=F Damp=F
 DIIS: error= 5.76D-09 at cycle   9 NSaved=   9.
 NSaved= 9 IEnMin= 8 EnMin= -2753.87435300225     IErMin= 9 ErrMin= 5.76D-09
 ErrMax= 5.76D-09 EMaxC= 1.00D-01 BMatC= 5.81D-15 BMatP= 1.42D-12
 IDIUse=1 WtCom= 1.00D+00 WtEn= 0.00D+00
 Coeff-Com:  0.101D-07 0.132D-06-0.118D-05-0.129D-03 0.124D-04 0.470D-02
 Coeff-Com: -0.111D-01-0.136D+00 0.114D+01
 Coeff:      0.101D-07 0.132D-06-0.118D-05-0.129D-03 0.124D-04 0.470D-02
 Coeff:     -0.111D-01-0.136D+00 0.114D+01
 Gap=     0.499 Goal=   None    Shift=    0.000
 RMSDP=1.65D-09 MaxDP=6.63D-08 DE= 3.18D-12 OVMax= 8.91D-08

 SCF Done:  E(RwB97XD) =  -2753.87435300     A.U. after    9 cycles
             Convg  =    0.1652D-08             -V/T =  2.0013
 KE= 2.750260682104D+03 PE=-6.580199018895D+03 EE= 1.076063983789D+03
 Leave Link  502 at Sat May  9 20:10:36 2020, MaxMem= 1073741824 cpu:     276.6
 (Enter /home/matheus/.gaussian/g09/l601.exe)
 Copying SCF densities to generalized density rwf, IOpCl= 0 IROHF=0.

 **********************************************************************

            Population analysis using the SCF density.

 **********************************************************************

 Orbital symmetries:
       Occupied  (A) (A) (A) (A) (A) (A) (A) (A) (A) (A) (A) (A)
                 (A) (A) (A) (A) (A) (A)
       Virtual   (A) (A) (A) (A) (A) (A) (A) (A) (A) (A) (A) (A)
                 (A) (A) (A) (A) (A) (A) (A) (A) (A) (A) (A) (A)
                 (A) (A) (A) (A) (A) (A) (A) (A) (A) (A) (A) (A)
                 (A) (A) (A) (A) (A) (A) (A) (A) (A) (A) (A) (A)
                 (A) (A) (A) (A) (A) (A) (A) (A) (A) (A) (A) (A)
                 (A) (A) (A) (A) (A) (A) (A) (A) (A) (A) (A) (A)
                 (A) (A) (A) (A) (A) (A) (A) (A) (A) (A) (A) (A)
                 (A) (A) (A) (A) (A) (A) (A) (A) (A) (A) (A) (A)
                 (A) (A) (A) (A) (A) (A) (A) (A) (A) (A) (A) (A)
                 (A) (A) (A) (A) (A) (A) (A) (A) (A) (A) (A) (A)
                 (A) (A) (A) (A) (A) (A) (A) (A) (A) (A) (A) (A)
                 (A) (A) (A) (A) (A) (A) (A) (A) (A) (A) (A) (A)
                 (A) (A) (A) (A) (A) (A) (A) (A) (A) (A) (A) (A)
                 (A) (A) (A) (A) (A) (A) (A) (A) (A) (A) (A) (A)
                 (A) (A) (A) (A) (A) (A) (A) (A) (A) (A) (A)
 The electronic state is 1-A.
 Alpha  occ. eigenvalues -- -513.05922 -67.32596 -60.87472 -60.87471 -60.87470
 Alpha  occ. eigenvalues --   -9.77892  -7.47187  -7.47186  -7.47186  -3.33929
 Alpha  occ. eigenvalues --   -3.33929  -3.33929  -3.33928  -3.33928  -0.98489
 Alpha  occ. eigenvalues --   -0.46647  -0.46643  -0.46642
 Alpha virt. eigenvalues --    0.03232   0.05181   0.08750   0.09656   0.11917
 Alpha virt. eigenvalues --    0.12559   0.13516   0.14158   0.16538   0.17279
 Alpha virt. eigenvalues --    0.18017   0.19790   0.20742   0.25255   0.26345
 Alpha virt. eigenvalues --    0.26590   0.28336   0.30651   0.32610   0.34134
 Alpha virt. eigenvalues --    0.35794   0.37120   0.38068   0.39161   0.41525
 Alpha virt. eigenvalues --    0.41690   0.42577   0.52088   0.52371   0.56806
 Alpha virt. eigenvalues --    0.58703   0.66603   0.67440   0.69775   0.71521
 Alpha virt. eigenvalues --    0.73801   0.74338   0.75330   0.76287   0.78231
 Alpha virt. eigenvalues --    0.79075   0.80059   0.82914   0.85943   0.86297
 Alpha virt. eigenvalues --    0.87678   0.88760   0.89544   0.91151   0.94856
 Alpha virt. eigenvalues --    0.95816   0.97875   0.98359   0.99565   1.00726
 Alpha virt. eigenvalues --    1.03532   1.05527   1.07057   1.08968   1.10982
 Alpha virt. eigenvalues --    1.14528   1.20074   1.21270   1.24533   1.29019
 Alpha virt. eigenvalues --    1.32625   1.33879   1.39261   1.42967   1.43935
 Alpha virt. eigenvalues --    1.53175   1.57363   1.58071   1.74393   1.77664
 Alpha virt. eigenvalues --    1.78844   1.83734   1.86315   1.98125   2.14473
 Alpha virt. eigenvalues --    2.17888   2.24193   2.26599   2.28505   2.29048
 Alpha virt. eigenvalues --    2.30656   2.31759   2.35474   2.38374   2.40670
 Alpha virt. eigenvalues --    2.42823   2.45606   2.46216   2.46715   2.47456
 Alpha virt. eigenvalues --    2.51623   2.52328   2.53256   2.55684   2.56355
 Alpha virt. eigenvalues --    2.61108   2.62318   2.62874   2.67535   2.70232
 Alpha virt. eigenvalues --    2.72762   2.76575   2.84933   2.87754   2.88952
 Alpha virt. eigenvalues --    2.93665   2.97962   3.04005   3.13372   3.21016
 Alpha virt. eigenvalues --    3.23666   3.26041   3.31162   3.35993   3.49716
 Alpha virt. eigenvalues --    3.61798   3.65081   3.83339   3.87537   4.04444
 Alpha virt. eigenvalues --    4.34842   4.43450   4.52112   4.57065   4.65721
 Alpha virt. eigenvalues --    4.73244   4.87740   4.91544   4.94399   5.00236
 Alpha virt. eigenvalues --    5.15324   5.20366   5.59277   5.66614   5.74730
 Alpha virt. eigenvalues --    5.91596   6.01870   6.16901   6.74284   6.90368
 Alpha virt. eigenvalues --    7.38074   7.43660   7.60858   7.63865   7.74713
 Alpha virt. eigenvalues --    7.87565   7.91023   8.12315   8.17673   8.22430
 Alpha virt. eigenvalues --    8.40786   8.46575   8.59300   8.87092   9.65794
 Alpha virt. eigenvalues --    9.75364   9.84985   9.90013   9.92296  10.00805
 Alpha virt. eigenvalues --   10.15529  10.33082  10.38625  10.97992  11.52177
 Alpha virt. eigenvalues --   11.66649  11.76457  12.06062  12.11294  13.26023
 Alpha virt. eigenvalues --   13.61884  14.53487  62.74603  64.67733
          Condensed to atoms (all electrons):
              1          2          3          4          5
     1  O    0.003523  -0.002336  -0.002371   0.001555  -0.011748
     2  O   -0.002336   0.006567   0.000795  -0.004489  -0.001046
     3  H   -0.002371   0.000795   0.001963  -0.000551   0.003726
     4  H    0.001555  -0.004489  -0.000551   0.004387  -0.022116
     5  Kr  -0.011748  -0.001046   0.003726  -0.022116  36.060724
 Mulliken atomic charges:
              1
     1  O    0.011377
     2  O    0.000509
     3  H   -0.003561
     4  H    0.021214
     5  Kr  -0.029539
 Sum of Mulliken atomic charges =   0.00000
 Mulliken charges with hydrogens summed into heavy atoms:
              1
     1  O    0.007816
     2  O    0.021723
     5  Kr  -0.029539
 Sum of Mulliken charges with hydrogens summed into heavy atoms =   0.00000
          Condensed to fragments (all electrons):
     1       0.029539
     2      -0.029539
 Electronic spatial extent (au):  <R**2>=            165.0705
 Charge=              0.0000 electrons
 Dipole moment (field-independent basis, Debye):
    X=              0.0002    Y=              0.0004    Z=              0.0001  Tot=              0.0005
 Quadrupole moment (field-independent basis, Debye-Ang):
   XX=            -17.6266   YY=            -17.6407   ZZ=            -17.6483
   XY=              0.0048   XZ=              0.0002   YZ=              0.0003
 Traceless Quadrupole moment (field-independent basis, Debye-Ang):
   XX=              0.0119   YY=             -0.0021   ZZ=             -0.0098
   XY=              0.0048   XZ=              0.0002   YZ=              0.0003
 Octapole moment (field-independent basis, Debye-Ang**2):
  XXX=             52.2855  YYY=              0.7059  ZZZ=             -0.0897  XYY=             17.4435
  XXY=              0.2261  XXZ=             -0.0310  XZZ=             17.4479  YZZ=              0.2366
  YYZ=             -0.0297  XYZ=             -0.0002
 Hexadecapole moment (field-independent basis, Debye-Ang**3):
 XXXX=           -121.8068 YYYY=            -18.4512 ZZZZ=            -18.4553 XXXY=             -0.6790
 XXXZ=              0.0910 YYYX=             -0.6847 YYYZ=              0.0007 ZZZX=              0.0905
 ZZZY=              0.0023 XXYY=            -23.3912 XXZZ=            -23.3930 YYZZ=             -6.1499
 XXYZ=              0.0009 YYXZ=              0.0297 ZZXY=             -0.2264
 N-N= 0.000000000000D+00 E-N=-6.580199019645D+03  KE= 2.750260682104D+03
 No NMR shielding tensors so no spin-rotation constants.
 Leave Link  601 at Sat May  9 20:10:36 2020, MaxMem= 1073741824 cpu:       0.8
 (Enter /home/matheus/.gaussian/g09/l122.exe)
 Counterpoise: doing MCBS calculation for fragment   1
 Leave Link  122 at Sat May  9 20:10:36 2020, MaxMem= 1073741824 cpu:       0.0
 (Enter /home/matheus/.gaussian/g09/l301.exe)
 Basis read from rwf:  (5D, 7F)
 No pseudopotential information found on rwf file.
 There are   138 symmetry adapted basis functions of A   symmetry.
 Integral buffers will be    131072 words long.
 Raffenetti 2 integral format.
 Two-electron integral symmetry is turned on.
   138 basis functions,   198 primitive gaussians,   160 cartesian basis functions
     9 alpha electrons        9 beta electrons
       nuclear repulsion energy        36.6165119696 Hartrees.
 IExCor= 4639 DFT=T Ex+Corr=wB97XD ExCW=0 ScaHFX=  1.000000
 ScaDFX=  1.000000  1.000000  1.000000  1.000000 ScalE2=  1.000000  1.000000
 IRadAn=      5 IRanWt=     -1 IRanGd=            0 ICorTp=0
  HFx wShort=  0.000000 wLong=  0.200000 cFull=  0.222036 cShort=  0.000000 cLong=  0.777964
  DFx wShort=  0.000000 wLong=  0.200000 cFull=  0.000000 cShort=  0.000000 cLong=  1.000000
 NAtoms=    5 NActive=    4 NUniq=    4 SFac= 1.00D+00 NAtFMM=   60 NAOKFM=F Big=F
 R6Disp: Dispersion energy =        -0.0002360568 Hartrees.
 Nuclear repulsion after empirical dispersion term =       36.6162759129 Hartrees.
 No density basis found on file   718.
 Leave Link  301 at Sat May  9 20:10:36 2020, MaxMem= 1073741824 cpu:       0.2
 (Enter /home/matheus/.gaussian/g09/l302.exe)
 NPDir=0 NMtPBC=     1 NCelOv=     1 NCel=       1 NClECP=     1 NCelD=      1
         NCelK=      1 NCelE2=     1 NClLst=     1 CellRange=     0.0.
 One-electron integrals computed using PRISM.
 NBasis=   138 RedAO= T  NBF=   138
 NBsUse=   138 1.00D-06 NBFU=   138
 Precomputing XC quadrature grid using
 IXCGrd= 2 IRadAn=           5 IRanWt=          -1 IRanGd=           0 AccXCQ= 0.00D+00.
 NRdTot=     344 NPtTot=       92556 NUsed=       95038 NTot=       95070
 NSgBfM=   160   160   160   160   160 NAtAll=     4     4.
 Leave Link  302 at Sat May  9 20:10:36 2020, MaxMem= 1073741824 cpu:       0.8
 (Enter /home/matheus/.gaussian/g09/l303.exe)
 DipDrv:  MaxL=1.
 Leave Link  303 at Sat May  9 20:10:36 2020, MaxMem= 1073741824 cpu:       0.2
 (Enter /home/matheus/.gaussian/g09/l401.exe)
 Harris functional with IExCor= 4639 diagonalized for initial guess.
 ExpMin= 2.53D-02 ExpMax= 1.53D+04 ExpMxC= 5.22D+02 IAcc=3 IRadAn=         5 AccDes= 0.00D+00
 HarFok:  IExCor= 4639 AccDes= 0.00D+00 IRadAn=         5 IDoV= 1
 ScaDFX=  1.000000  1.000000  1.000000  1.000000
 FoFCou: FMM=F IPFlag=           0 FMFlag=      100000 FMFlg1=           0
         NFxFlg=           0 DoJE=T BraDBF=F KetDBF=T FulRan=T
         Omega=  0.000000  0.000000  1.000000  0.000000  0.000000 ICntrl=     500 IOpCl=  0
         NMat0=    1 NMatS0=    1 NMatT0=    0 NMatD0=    1 NMtDS0=    0 NMtDT0=    0
         I1Cent=           4 NGrid=           0.
 Petite list used in FoFCou.
 Harris En= -146.295287237716    
 Initial guess orbital symmetries:
       Occupied  (A) (A) (A) (A) (A) (A) (A) (A) (A)
       Virtual   (A) (A) (A) (A) (A) (A) (A) (A) (A) (A) (A) (A)
                 (A) (A) (A) (A) (A) (A) (A) (A) (A) (A) (A) (A)
                 (A) (A) (A) (A) (A) (A) (A) (A) (A) (A) (A) (A)
                 (A) (A) (A) (A) (A) (A) (A) (A) (A) (A) (A) (A)
                 (A) (A) (A) (A) (A) (A) (A) (A) (A) (A) (A) (A)
                 (A) (A) (A) (A) (A) (A) (A) (A) (A) (A) (A) (A)
                 (A) (A) (A) (A) (A) (A) (A) (A) (A) (A) (A) (A)
                 (A) (A) (A) (A) (A) (A) (A) (A) (A) (A) (A) (A)
                 (A) (A) (A) (A) (A) (A) (A) (A) (A) (A) (A) (A)
                 (A) (A) (A) (A) (A) (A) (A) (A) (A) (A) (A) (A)
                 (A) (A) (A) (A) (A) (A) (A) (A) (A)
 The electronic state of the initial guess is 1-A.
 Leave Link  401 at Sat May  9 20:10:36 2020, MaxMem= 1073741824 cpu:       2.5
 (Enter /home/matheus/.gaussian/g09/l502.exe)
 Closed shell SCF:
 Requested convergence on RMS density matrix=1.00D-08 within 128 cycles.
 Requested convergence on MAX density matrix=1.00D-06.
 Requested convergence on             energy=1.00D-06.
 No special actions if energy rises.
 Using DIIS extrapolation, IDIIS=  1040.
 Integral symmetry usage will be decided dynamically.
        94980 words used for storage of precomputed grid.
 IEnd=      192360 IEndB=      192360 NGot=  1073741824 MDV=  1073591865
 LenX=  1073591865 LenY=  1073565824
 Fock matrices will be formed incrementally for  20 cycles.

 Cycle   1  Pass 1  IDiag  1:
 FoFJK:  IHMeth= 1 ICntrl=     0 DoSepK=T KAlg= 1 I1Cent= 0 FoldK=F
 FoFCou: FMM=F IPFlag=           0 FMFlag=      100000 FMFlg1=           0
         NFxFlg=           0 DoJE=T BraDBF=F KetDBF=F FulRan=T
         Omega=  0.000000  0.000000  1.000000  0.000000  0.000000 ICntrl=     500 IOpCl=  0
         NMat0=    1 NMatS0=    1 NMatT0=    0 NMatD0=    1 NMtDS0=    0 NMtDT0=    0
         I1Cent=           0 NGrid=           0.
 Symmetry not used in FoFCou.
 E= -151.478373931724    
 DIIS: error= 4.13D-02 at cycle   1 NSaved=   1.
 NSaved= 1 IEnMin= 1 EnMin= -151.478373931724     IErMin= 1 ErrMin= 4.13D-02
 ErrMax= 4.13D-02 EMaxC= 1.00D-01 BMatC= 3.00D-01 BMatP= 3.00D-01
 IDIUse=3 WtCom= 5.87D-01 WtEn= 4.13D-01
 Coeff-Com:  0.100D+01
 Coeff-En:   0.100D+01
 Coeff:      0.100D+01
 Gap=     0.524 Goal=   None    Shift=    0.000
 GapD=    0.524 DampG=2.000 DampE=0.500 DampFc=1.0000 IDamp=-1.
 RMSDP=3.43D-03 MaxDP=1.08D-01              OVMax= 1.09D-01

 Cycle   2  Pass 1  IDiag  1:
 RMSU=  2.37D-03    CP:  9.50D-01
 FoFJK:  IHMeth= 1 ICntrl=     0 DoSepK=T KAlg= 1 I1Cent= 0 FoldK=F
 E= -151.508282288190     Delta-E=       -0.029908356466 Rises=F Damp=F
 DIIS: error= 2.52D-02 at cycle   2 NSaved=   2.
 NSaved= 2 IEnMin= 2 EnMin= -151.508282288190     IErMin= 2 ErrMin= 2.52D-02
 ErrMax= 2.52D-02 EMaxC= 1.00D-01 BMatC= 9.12D-02 BMatP= 3.00D-01
 IDIUse=3 WtCom= 7.48D-01 WtEn= 2.52D-01
 Coeff-Com:  0.333D+00 0.667D+00
 Coeff-En:   0.366D+00 0.634D+00
 Coeff:      0.341D+00 0.659D+00
 Gap=     0.466 Goal=   None    Shift=    0.000
 RMSDP=1.43D-03 MaxDP=4.90D-02 DE=-2.99D-02 OVMax= 5.92D-02

 Cycle   3  Pass 1  IDiag  1:
 RMSU=  5.11D-04    CP:  9.72D-01  6.43D-01
 FoFJK:  IHMeth= 1 ICntrl=     0 DoSepK=T KAlg= 1 I1Cent= 0 FoldK=F
 E= -151.557489146227     Delta-E=       -0.049206858037 Rises=F Damp=F
 DIIS: error= 6.91D-03 at cycle   3 NSaved=   3.
 NSaved= 3 IEnMin= 3 EnMin= -151.557489146227     IErMin= 3 ErrMin= 6.91D-03
 ErrMax= 6.91D-03 EMaxC= 1.00D-01 BMatC= 6.38D-03 BMatP= 9.12D-02
 IDIUse=3 WtCom= 9.31D-01 WtEn= 6.91D-02
 Coeff-Com:  0.137D-01 0.218D+00 0.768D+00
 Coeff-En:   0.000D+00 0.000D+00 0.100D+01
 Coeff:      0.128D-01 0.203D+00 0.784D+00
[...]
 DIIS: error= 3.96D-06 at cycle   2 NSaved=   2.
 NSaved= 2 IEnMin= 2 EnMin= -2753.87423837141     IErMin= 2 ErrMin= 3.96D-06
 ErrMax= 3.96D-06 EMaxC= 1.00D-01 BMatC= 3.95D-09 BMatP= 3.62D-06
 IDIUse=1 WtCom= 1.00D+00 WtEn= 0.00D+00
 Coeff-Com: -0.101D-01 0.101D+01
 Coeff:     -0.101D-01 0.101D+01
 Gap=     0.496 Goal=   None    Shift=    0.000
 RMSDP=2.02D-06 MaxDP=8.07D-05 DE=-5.59D-07 OVMax= 5.09D-05

 Cycle   3  Pass 1  IDiag  1:
 RMSU=  5.25D-07    CP:  1.00D+00  1.09D+00
 FoFJK:  IHMeth= 1 ICntrl=     0 DoSepK=T KAlg= 1 I1Cent= 0 FoldK=F
 E= -2753.87423837878     Delta-E=       -0.000000007361 Rises=F Damp=F
 DIIS: error= 6.52D-07 at cycle   3 NSaved=   3.
 NSaved= 3 IEnMin= 3 EnMin= -2753.87423837878     IErMin= 3 ErrMin= 6.52D-07
 ErrMax= 6.52D-07 EMaxC= 1.00D-01 BMatC= 1.07D-10 BMatP= 3.95D-09
 IDIUse=1 WtCom= 1.00D+00 WtEn= 0.00D+00
 Coeff-Com: -0.517D-05-0.958D-01 0.110D+01
 Coeff:     -0.517D-05-0.958D-01 0.110D+01
 Gap=     0.496 Goal=   None    Shift=    0.000
 RMSDP=2.29D-07 MaxDP=9.19D-06 DE=-7.36D-09 OVMax= 9.79D-06

 Cycle   4  Pass 1  IDiag  1:
 RMSU=  5.34D-08    CP:  1.00D+00  1.10D+00  1.20D+00
 FoFJK:  IHMeth= 1 ICntrl=     0 DoSepK=T KAlg= 1 I1Cent= 0 FoldK=F
 E= -2753.87423837895     Delta-E=       -0.000000000171 Rises=F Damp=F
 DIIS: error= 4.07D-07 at cycle   4 NSaved=   4.
 NSaved= 4 IEnMin= 4 EnMin= -2753.87423837895     IErMin= 4 ErrMin= 4.07D-07
 ErrMax= 4.07D-07 EMaxC= 1.00D-01 BMatC= 1.78D-11 BMatP= 1.07D-10
 IDIUse=1 WtCom= 1.00D+00 WtEn= 0.00D+00
 Coeff-Com:  0.211D-03-0.520D-01 0.340D+00 0.712D+00
 Coeff:      0.211D-03-0.520D-01 0.340D+00 0.712D+00
 Gap=     0.496 Goal=   None    Shift=    0.000
 RMSDP=2.18D-08 MaxDP=9.04D-07 DE=-1.71D-10 OVMax= 1.36D-06

 Cycle   5  Pass 1  IDiag  1:
 RMSU=  1.07D-08    CP:  1.00D+00  1.10D+00  1.22D+00  1.06D+00
 FoFJK:  IHMeth= 1 ICntrl=     0 DoSepK=T KAlg= 1 I1Cent= 0 FoldK=F
 E= -2753.87423837896     Delta-E=       -0.000000000010 Rises=F Damp=F
 DIIS: error= 2.36D-08 at cycle   5 NSaved=   5.
 NSaved= 5 IEnMin= 5 EnMin= -2753.87423837896     IErMin= 5 ErrMin= 2.36D-08
 ErrMax= 2.36D-08 EMaxC= 1.00D-01 BMatC= 1.39D-13 BMatP= 1.78D-11
 IDIUse=1 WtCom= 1.00D+00 WtEn= 0.00D+00
 Coeff-Com: -0.161D-05 0.345D-02-0.353D-01-0.177D-01 0.105D+01
 Coeff:     -0.161D-05 0.345D-02-0.353D-01-0.177D-01 0.105D+01
 Gap=     0.496 Goal=   None    Shift=    0.000
 RMSDP=9.17D-09 MaxDP=5.58D-07 DE=-9.55D-12 OVMax= 3.60D-07

 SCF Done:  E(RwB97XD) =  -2753.87423838     A.U. after    5 cycles
             Convg  =    0.9173D-08             -V/T =  2.0013
 KE= 2.750294779703D+03 PE=-6.580235456201D+03 EE= 1.076066438119D+03
 Leave Link  502 at Sat May  9 20:36:35 2020, MaxMem= 1073741824 cpu:     101.0
 (Enter /home/matheus/.gaussian/g09/l122.exe)
 Restoring MOs from calculation   4 to rwf.
 Counterpoise: doing MCBS calculation for fragment   1
 Leave Link  122 at Sat May  9 20:36:35 2020, MaxMem= 1073741824 cpu:       0.0
 (Enter /home/matheus/.gaussian/g09/l301.exe)
 Basis read from rwf:  (5D, 7F)
 No pseudopotential information found on rwf file.
 There are   138 symmetry adapted basis functions of A   symmetry.
 Integral buffers will be    131072 words long.
 Raffenetti 2 integral format.
 Two-electron integral symmetry is turned on.
   138 basis functions,   198 primitive gaussians,   160 cartesian basis functions
     9 alpha electrons        9 beta electrons
       nuclear repulsion energy        36.6165119696 Hartrees.
 IExCor= 4639 DFT=T Ex+Corr=wB97XD ExCW=0 ScaHFX=  1.000000
 ScaDFX=  1.000000  1.000000  1.000000  1.000000 ScalE2=  1.000000  1.000000
 IRadAn=      5 IRanWt=     -1 IRanGd=            0 ICorTp=0
  HFx wShort=  0.000000 wLong=  0.200000 cFull=  0.222036 cShort=  0.000000 cLong=  0.777964
  DFx wShort=  0.000000 wLong=  0.200000 cFull=  0.000000 cShort=  0.000000 cLong=  1.000000
 NAtoms=    5 NActive=    4 NUniq=    4 SFac= 1.00D+00 NAtFMM=   60 NAOKFM=F Big=F
 R6Disp: Dispersion energy =        -0.0002360568 Hartrees.
 Nuclear repulsion after empirical dispersion term =       36.6162759129 Hartrees.
 No density basis found on file   718.
 Leave Link  301 at Sat May  9 20:36:35 2020, MaxMem= 1073741824 cpu:       0.2
 (Enter /home/matheus/.gaussian/g09/l302.exe)
 NPDir=0 NMtPBC=     1 NCelOv=     1 NCel=       1 NClECP=     1 NCelD=      1
         NCelK=      1 NCelE2=     1 NClLst=     1 CellRange=     0.0.
 One-electron integrals computed using PRISM.
 NBasis=   138 RedAO= T  NBF=   138
 NBsUse=   138 1.00D-06 NBFU=   138
 Precomputing XC quadrature grid using
 IXCGrd= 2 IRadAn=           5 IRanWt=          -1 IRanGd=           0 AccXCQ= 0.00D+00.
 NRdTot=     344 NPtTot=       92556 NUsed=       95038 NTot=       95070
 NSgBfM=   160   160   160   160   160 NAtAll=     4     4.
 Leave Link  302 at Sat May  9 20:36:35 2020, MaxMem= 1073741824 cpu:       0.7
 (Enter /home/matheus/.gaussian/g09/l303.exe)
 DipDrv:  MaxL=1.
 Leave Link  303 at Sat May  9 20:36:35 2020, MaxMem= 1073741824 cpu:       0.2
 (Enter /home/matheus/.gaussian/g09/l401.exe)
 Initial guess read from the read-write file.
 Guess basis will be translated and rotated to current coordinates.
 Initial guess orbital symmetries:
       Occupied  (A) (A) (A) (A) (A) (A) (A) (A) (A)
       Virtual   (A) (A) (A) (A) (A) (A) (A) (A) (A) (A) (A) (A)
                 (A) (A) (A) (A) (A) (A) (A) (A) (A) (A) (A) (A)
                 (A) (A) (A) (A) (A) (A) (A) (A) (A) (A) (A) (A)
                 (A) (A) (A) (A) (A) (A) (A) (A) (A) (A) (A) (A)
                 (A) (A) (A) (A) (A) (A) (A) (A) (A) (A) (A) (A)
                 (A) (A) (A) (A) (A) (A) (A) (A) (A) (A) (A) (A)
                 (A) (A) (A) (A) (A) (A) (A) (A) (A) (A) (A) (A)
                 (A) (A) (A) (A) (A) (A) (A) (A) (A) (A) (A) (A)
                 (A) (A) (A) (A) (A) (A) (A) (A) (A) (A) (A) (A)
                 (A) (A) (A) (A) (A) (A) (A) (A) (A) (A) (A) (A)
                 (A) (A) (A) (A) (A) (A) (A) (A) (A)
 The electronic state of the initial guess is 1-A.
 Generating alternative initial guess.
 Harris functional with IExCor= 4639 diagonalized for initial guess.
 ExpMin= 2.53D-02 ExpMax= 1.53D+04 ExpMxC= 5.22D+02 IAcc=3 IRadAn=         5 AccDes= 0.00D+00
 HarFok:  IExCor= 4639 AccDes= 0.00D+00 IRadAn=         5 IDoV= 1
 ScaDFX=  1.000000  1.000000  1.000000  1.000000
 FoFCou: FMM=F IPFlag=           0 FMFlag=      100000 FMFlg1=           0
         NFxFlg=           0 DoJE=T BraDBF=F KetDBF=T FulRan=T
         Omega=  0.000000  0.000000  1.000000  0.000000  0.000000 ICntrl=     500 IOpCl=  0
         NMat0=    1 NMatS0=    1 NMatT0=    0 NMatD0=    1 NMtDS0=    0 NMtDT0=    0
         I1Cent=           4 NGrid=           0.
 Petite list used in FoFCou.
 Harris En= -146.295287198976    
 Leave Link  401 at Sat May  9 20:36:36 2020, MaxMem= 1073741824 cpu:       2.5
 (Enter /home/matheus/.gaussian/g09/l502.exe)
 Closed shell SCF:
 Requested convergence on RMS density matrix=1.00D-08 within 128 cycles.
 Requested convergence on MAX density matrix=1.00D-06.
 Requested convergence on             energy=1.00D-06.
 No special actions if energy rises.
 Using DIIS extrapolation, IDIIS=  1040.
 Integral symmetry usage will be decided dynamically.
        94980 words used for storage of precomputed grid.
 IEnd=      192360 IEndB=      192360 NGot=  1073741824 MDV=  1073591865
 LenX=  1073591865 LenY=  1073565824
 Fock matrices will be formed incrementally for  20 cycles.

 Cycle   1  Pass 1  IDiag  1:
 FoFJK:  IHMeth= 1 ICntrl=     0 DoSepK=T KAlg= 1 I1Cent= 0 FoldK=F
 FoFCou: FMM=F IPFlag=           0 FMFlag=      100000 FMFlg1=           0
         NFxFlg=           0 DoJE=T BraDBF=F KetDBF=F FulRan=T
         Omega=  0.000000  0.000000  1.000000  0.000000  0.000000 ICntrl=     500 IOpCl=  0
         NMat0=    1 NMatS0=    1 NMatT0=    0 NMatD0=    1 NMtDS0=    0 NMtDT0=    0
         I1Cent=           0 NGrid=           0.
 Symmetry not used in FoFCou.
 E= -151.561635510384    
 DIIS: error= 1.30D-05 at cycle   1 NSaved=   1.
 NSaved= 1 IEnMin= 1 EnMin= -151.561635510384     IErMin= 1 ErrMin= 1.30D-05
 ErrMax= 1.30D-05 EMaxC= 1.00D-01 BMatC= 3.57D-08 BMatP= 3.57D-08
 IDIUse=1 WtCom= 1.00D+00 WtEn= 0.00D+00
 Coeff-Com:  0.100D+01
 Coeff:      0.100D+01
 Gap=     0.415 Goal=   None    Shift=    0.000
 RMSDP=1.22D-06 MaxDP=2.67D-05              OVMax= 6.53D-05

 Cycle   2  Pass 1  IDiag  1:
 RMSU=  8.61D-07    CP:  1.00D+00
 FoFJK:  IHMeth= 1 ICntrl=     0 DoSepK=T KAlg= 1 I1Cent= 0 FoldK=F
 E= -151.561635548274     Delta-E=       -0.000000037891 Rises=F Damp=F
 DIIS: error= 2.48D-06 at cycle   2 NSaved=   2.
 NSaved= 2 IEnMin= 2 EnMin= -151.561635548274     IErMin= 2 ErrMin= 2.48D-06
 ErrMax= 2.48D-06 EMaxC= 1.00D-01 BMatC= 1.18D-09 BMatP= 3.57D-08
 IDIUse=1 WtCom= 1.00D+00 WtEn= 0.00D+00
 Coeff-Com: -0.995D-01 0.110D+01
 Coeff:     -0.995D-01 0.110D+01
 Gap=     0.415 Goal=   None    Shift=    0.000
 RMSDP=3.69D-07 MaxDP=8.86D-06 DE=-3.79D-08 OVMax= 2.26D-05

 Cycle   3  Pass 1  IDiag  1:
 RMSU=  1.60D-07    CP:  1.00D+00  1.24D+00
 FoFJK:  IHMeth= 1 ICntrl=     0 DoSepK=T KAlg= 1 I1Cent= 0 FoldK=F
 E= -151.561635550634     Delta-E=       -0.000000002360 Rises=F Damp=F
 DIIS: error= 1.50D-06 at cycle   3 NSaved=   3.
 NSaved= 3 IEnMin= 3 EnMin= -151.561635550634     IErMin= 3 ErrMin= 1.50D-06
 ErrMax= 1.50D-06 EMaxC= 1.00D-01 BMatC= 3.21D-10 BMatP= 1.18D-09
 IDIUse=1 WtCom= 1.00D+00 WtEn= 0.00D+00
 Coeff-Com: -0.466D-01 0.330D+00 0.716D+00
 Coeff:     -0.466D-01 0.330D+00 0.716D+00
 Gap=     0.415 Goal=   None    Shift=    0.000
 RMSDP=1.20D-07 MaxDP=3.91D-06 DE=-2.36D-09 OVMax= 7.48D-06

 Cycle   4  Pass 1  IDiag  1:
 RMSU=  7.67D-08    CP:  1.00D+00  1.28D+00  1.04D+00
 FoFJK:  IHMeth= 1 ICntrl=     0 DoSepK=T KAlg= 1 I1Cent= 0 FoldK=F
 E= -151.561635550858     Delta-E=       -0.000000000224 Rises=F Damp=F
 DIIS: error= 9.07D-07 at cycle   4 NSaved=   4.
 NSaved= 4 IEnMin= 4 EnMin= -151.561635550858     IErMin= 4 ErrMin= 9.07D-07
 ErrMax= 9.07D-07 EMaxC= 1.00D-01 BMatC= 1.66D-10 BMatP= 3.21D-10
 IDIUse=1 WtCom= 1.00D+00 WtEn= 0.00D+00
 Coeff-Com: -0.133D-02-0.888D-01 0.422D+00 0.668D+00
 Coeff:     -0.133D-02-0.888D-01 0.422D+00 0.668D+00
 Gap=     0.415 Goal=   None    Shift=    0.000
 RMSDP=6.52D-08 MaxDP=1.45D-06 DE=-2.24D-10 OVMax= 3.90D-06

 Cycle   5  Pass 1  IDiag  1:
 RMSU=  1.69D-08    CP:  1.00D+00  1.30D+00  1.26D+00  8.16D-01
 FoFJK:  IHMeth= 1 ICntrl=     0 DoSepK=T KAlg= 1 I1Cent= 0 FoldK=F
 E= -151.561635551001     Delta-E=       -0.000000000143 Rises=F Damp=F
 DIIS: error= 1.57D-07 at cycle   5 NSaved=   5.
 NSaved= 5 IEnMin= 5 EnMin= -151.561635551001     IErMin= 5 ErrMin= 1.57D-07
 ErrMax= 1.57D-07 EMaxC= 1.00D-01 BMatC= 3.45D-12 BMatP= 1.66D-10
 IDIUse=1 WtCom= 1.00D+00 WtEn= 0.00D+00
 Coeff-Com:  0.436D-02-0.481D-01-0.313D-01 0.715D-01 0.100D+01
 Coeff:      0.436D-02-0.481D-01-0.313D-01 0.715D-01 0.100D+01
 Gap=     0.415 Goal=   None    Shift=    0.000
 RMSDP=2.36D-08 MaxDP=4.59D-07 DE=-1.43D-10 OVMax= 2.04D-06

 Cycle   6  Pass 1  IDiag  1:
 RMSU=  6.21D-09    CP:  1.00D+00  1.31D+00  1.32D+00  9.16D-01  1.40D+00
 FoFJK:  IHMeth= 1 ICntrl=     0 DoSepK=T KAlg= 1 I1Cent= 0 FoldK=F
 E= -151.561635551010     Delta-E=       -0.000000000009 Rises=F Damp=F
 DIIS: error= 4.63D-08 at cycle   6 NSaved=   6.
 NSaved= 6 IEnMin= 6 EnMin= -151.561635551010     IErMin= 6 ErrMin= 4.63D-08
 ErrMax= 4.63D-08 EMaxC= 1.00D-01 BMatC= 2.85D-13 BMatP= 3.45D-12
 IDIUse=1 WtCom= 1.00D+00 WtEn= 0.00D+00
 Coeff-Com:  0.409D-03 0.177D-02-0.260D-01-0.310D-01 0.901D-01 0.965D+00
 Coeff:      0.409D-03 0.177D-02-0.260D-01-0.310D-01 0.901D-01 0.965D+00
 Gap=     0.415 Goal=   None    Shift=    0.000
 RMSDP=7.42D-09 MaxDP=1.76D-07 DE=-9.27D-12 OVMax= 6.83D-07

 SCF Done:  E(RwB97XD) =  -151.561635551     A.U. after    6 cycles
             Convg  =    0.7423D-08             -V/T =  2.0059
 KE= 1.506714832323D+02 PE=-4.317282226261D+02 EE= 9.287882792990D+01
 Leave Link  502 at Sat May  9 20:36:42 2020, MaxMem= 1073741824 cpu:      51.7
 (Enter /home/matheus/.gaussian/g09/l122.exe)
 Restoring MOs from calculation   5 to rwf.
 Counterpoise: doing MCBS calculation for fragment   2
 Leave Link  122 at Sat May  9 20:36:42 2020, MaxMem= 1073741824 cpu:       0.0
 (Enter /home/matheus/.gaussian/g09/l301.exe)
 Basis read from rwf:  (5D, 7F)
 No pseudopotential information found on rwf file.
 There are    59 symmetry adapted basis functions of A   symmetry.
 Integral buffers will be    131072 words long.
 Raffenetti 2 integral format.
 Two-electron integral symmetry is turned on.
    59 basis functions,   217 primitive gaussians,    69 cartesian basis functions
    18 alpha electrons       18 beta electrons
       nuclear repulsion energy         0.0000000000 Hartrees.
 IExCor= 4639 DFT=T Ex+Corr=wB97XD ExCW=0 ScaHFX=  1.000000
 ScaDFX=  1.000000  1.000000  1.000000  1.000000 ScalE2=  1.000000  1.000000
 IRadAn=      5 IRanWt=     -1 IRanGd=            0 ICorTp=0
  HFx wShort=  0.000000 wLong=  0.200000 cFull=  0.222036 cShort=  0.000000 cLong=  0.777964
  DFx wShort=  0.000000 wLong=  0.200000 cFull=  0.000000 cShort=  0.000000 cLong=  1.000000
 NAtoms=    5 NActive=    1 NUniq=    1 SFac= 1.00D+00 NAtFMM=   60 NAOKFM=F Big=F
 R6Disp: Dispersion energy =         0.0000000000 Hartrees.
 Nuclear repulsion after empirical dispersion term =        0.0000000000 Hartrees.
 No density basis found on file   718.
 Leave Link  301 at Sat May  9 20:36:42 2020, MaxMem= 1073741824 cpu:       0.2
 (Enter /home/matheus/.gaussian/g09/l302.exe)
 NPDir=0 NMtPBC=     1 NCelOv=     1 NCel=       1 NClECP=     1 NCelD=      1
         NCelK=      1 NCelE2=     1 NClLst=     1 CellRange=     0.0.
 One-electron integrals computed using PRISM.
 NBasis=    59 RedAO= T  NBF=    59
 NBsUse=    59 1.00D-06 NBFU=    59
 Precomputing XC quadrature grid using
 IXCGrd= 2 IRadAn=           5 IRanWt=          -1 IRanGd=           0 AccXCQ= 0.00D+00.
 NRdTot=      81 NPtTot=       30352 NUsed=       30981 NTot=       31013
 NSgBfM=    69    69    69    69    69 NAtAll=     1     1.
 Leave Link  302 at Sat May  9 20:36:42 2020, MaxMem= 1073741824 cpu:       0.6
 (Enter /home/matheus/.gaussian/g09/l303.exe)
 DipDrv:  MaxL=1.
 Leave Link  303 at Sat May  9 20:36:42 2020, MaxMem= 1073741824 cpu:       0.1
 (Enter /home/matheus/.gaussian/g09/l401.exe)
 Initial guess read from the read-write file.
 Guess basis will be translated and rotated to current coordinates.
 Initial guess orbital symmetries:
       Occupied  (A) (A) (A) (A) (A) (A) (A) (A) (A) (A) (A) (A)
                 (A) (A) (A) (A) (A) (A)
       Virtual   (A) (A) (A) (A) (A) (A) (A) (A) (A) (A) (A) (A)
                 (A) (A) (A) (A) (A) (A) (A) (A) (A) (A) (A) (A)
                 (A) (A) (A) (A) (A) (A) (A) (A) (A) (A) (A) (A)
                 (A) (A) (A) (A) (A)
 The electronic state of the initial guess is 1-A.
 Generating alternative initial guess.
 Harris functional with IExCor= 4639 diagonalized for initial guess.
 ExpMin= 4.00D-02 ExpMax= 1.17D+07 ExpMxC= 1.33D+04 IAcc=3 IRadAn=         5 AccDes= 0.00D+00
 HarFok:  IExCor= 4639 AccDes= 0.00D+00 IRadAn=         5 IDoV= 1
 ScaDFX=  1.000000  1.000000  1.000000  1.000000
 FoFCou: FMM=F IPFlag=           0 FMFlag=      100000 FMFlg1=           0
         NFxFlg=           0 DoJE=T BraDBF=F KetDBF=T FulRan=T
         Omega=  0.000000  0.000000  1.000000  0.000000  0.000000 ICntrl=     500 IOpCl=  0
         NMat0=    1 NMatS0=    1 NMatT0=    0 NMatD0=    1 NMtDS0=    0 NMtDT0=    0
         I1Cent=           4 NGrid=           0.
 Petite list used in FoFCou.
 Harris En= -2730.20235208354    
 Leave Link  401 at Sat May  9 20:36:42 2020, MaxMem= 1073741824 cpu:       1.1
 (Enter /home/matheus/.gaussian/g09/l502.exe)
 Closed shell SCF:
 Requested convergence on RMS density matrix=1.00D-08 within 128 cycles.
 Requested convergence on MAX density matrix=1.00D-06.
 Requested convergence on             energy=1.00D-06.
 No special actions if energy rises.
 Using DIIS extrapolation, IDIIS=  1040.
 Integral symmetry usage will be decided dynamically.
        30923 words used for storage of precomputed grid.
 IEnd=       64406 IEndB=       64406 NGot=  1073741824 MDV=  1073698889
 LenX=  1073698889 LenY=  1073693687
 Fock matrices will be formed incrementally for  20 cycles.

 Cycle   1  Pass 1  IDiag  1:
 FoFJK:  IHMeth= 1 ICntrl=     0 DoSepK=T KAlg= 1 I1Cent= 0 FoldK=F
 FoFCou: FMM=F IPFlag=           0 FMFlag=      100000 FMFlg1=           0
         NFxFlg=           0 DoJE=T BraDBF=F KetDBF=F FulRan=T
         Omega=  0.000000  0.000000  1.000000  0.000000  0.000000 ICntrl=     500 IOpCl=  0
         NMat0=    1 NMatS0=    1 NMatT0=    0 NMatD0=    1 NMtDS0=    0 NMtDT0=    0
         I1Cent=           0 NGrid=           0.
 Symmetry not used in FoFCou.
 E= -2753.87421986326    
 DIIS: error= 1.20D-13 at cycle   1 NSaved=   1.
 NSaved= 1 IEnMin= 1 EnMin= -2753.87421986326     IErMin= 1 ErrMin= 1.20D-13
 ErrMax= 1.20D-13 EMaxC= 1.00D-01 BMatC= 1.19D-24 BMatP= 1.19D-24
 IDIUse=1 WtCom= 1.00D+00 WtEn= 0.00D+00
 Coeff-Com:  0.100D+01
 Coeff:      0.100D+01
 Gap=     0.562 Goal=   None    Shift=    0.000
 DSYEVD returned Info=          89 IAlg= 4 N=    59 NDim=    59 NE2=    18198197 trying DSYEV.
 RMSDP=1.43D-14 MaxDP=2.76D-13              OVMax= 1.50D-13

 SCF Done:  E(RwB97XD) =  -2753.87421986     A.U. after    1 cycles
             Convg  =    0.1431D-13             -V/T =  2.0013
 KE= 2.750300381543D+03 PE=-6.580241205809D+03 EE= 1.076066604402D+03
 Leave Link  502 at Sat May  9 20:36:44 2020, MaxMem= 1073741824 cpu:      12.1
 (Enter /home/matheus/.gaussian/g09/l122.exe)
 Restoring MOs from calculation   1 to rwf.
 Counterpoise: corrected energy =   -2905.436150558905
 Counterpoise: BSSE energy =       0.000022274483
 Leave Link  122 at Sat May  9 20:36:44 2020, MaxMem= 1073741824 cpu:       0.0
 (Enter /home/matheus/.gaussian/g09/l108.exe)
 Scan completed.

 Summary of the potential surface scan:
   N      R1          SCF    
 ----  ---------  -----------
    1     3.0000  -2753.87422
    2     3.1000  -2753.87422
    3     3.2000  -2753.87422
    4     3.3000  -2753.87422
    5     3.4000  -2753.87422
    6     3.5000  -2753.87422
    7     3.6000  -2753.87422
    8     3.7000  -2753.87422
    9     3.8000  -2753.87422
   10     3.9000  -2753.87422
   11     4.0000  -2753.87422
   12     4.1000  -2753.87422
   13     4.2000  -2753.87422
   14     4.3000  -2753.87422
   15     4.4000  -2753.87422
   16     4.5000  -2753.87422
   17     4.6000  -2753.87422
   18     4.7000  -2753.87422
   19     4.8000  -2753.87422
   20     4.9000  -2753.87422
   21     5.0000  -2753.87422
 ----  ---------  -----------
  
 Leave Link  108 at Sat May  9 20:36:44 2020, MaxMem= 1073741824 cpu:       0.0
 (Enter /home/matheus/.gaussian/g09/l9999.exe)
 1\1\GINC-REDGIANT\Scan\RwB97XD\Aug-CC-pVTZ\H2Kr1O2\MATHEUS\09-May-2020
 \1\\#p wb97xd/aug-cc-PVTz int=ultrafine counterpoise=2 Scan\\TCC\\0,1\
 O,0,0.,0.,0.725\O,0,0.,0.,-0.725\H,0,0.8633149634,-0.3142209495,1.0235
 104166\H,0,0.,0.9187205947,-1.0235104166\Kr,0,0.,R1,0.\\R1=3.,s,20,0.1
 \\Version=EM64L-G09RevC.01\State=1-A\HF=-2753.8742199,-2753.8742199,-2
 753.8742199,-2753.8742199,-2753.8742199,-2753.8742199,-2753.8742199,-2
 753.8742199,-2753.8742199,-2753.8742199,-2753.8742199,-2753.8742199,-2
 753.8742199,-2753.8742199,-2753.8742199,-2753.8742199,-2753.8742199,-2
 753.8742199,-2753.8742199,-2753.8742199,-2753.8742199\RMSD=9.120e-09,1
 .920e-10,6.363e-11,4.203e-11,2.496e-11,1.570e-11,9.717e-12,6.054e-12,3
 .767e-12,2.342e-12,1.448e-12,8.991e-13,5.658e-13,3.524e-13,2.165e-13,1
 .371e-13,8.600e-14,5.654e-14,3.369e-14,2.063e-14,1.431e-14\PG=C01 [X(H
 2Kr1O2)]\\@


 LEARN FROM YESTERDAY,
 LIVE FOR TODAY,
 LOOK TO TOMORROW,
 REST THIS AFTERNOON.

           -- SNOOPY
 Job cpu time:  0 days  3 hours 43 minutes 30.3 seconds.
 File lengths (MBytes):  RWF=     33 Int=      0 D2E=      0 Chk=      8 Scr=      1
 Normal termination of Gaussian 09 at Sat May  9 20:36:44 2020.
