 Entering Gaussian System, Link 0=g09
 Input=/home/matheus/.tcc/Inputs/Inputs-wb97xd-default/H2O2-Kr_29.com
 Output=/home/matheus/.tcc/Logs/Logs-wb97xd-default/H2O2-Kr_29.log
 Initial command:
 /home/matheus/.gaussian/g09/l1.exe /home/matheus/.gaussian/g09/scratch/Gau-12015.inp -scrdir=/home/matheus/.gaussian/g09/scratch/
 Entering Link 1 = /home/matheus/.gaussian/g09/l1.exe PID=     12019.
  
 Copyright (c) 1988,1990,1992,1993,1995,1998,2003,2009,2011,
            Gaussian, Inc.  All Rights Reserved.
  
 This is part of the Gaussian(R) 09 program.  It is based on
 the Gaussian(R) 03 system (copyright 2003, Gaussian, Inc.),
 the Gaussian(R) 98 system (copyright 1998, Gaussian, Inc.),
 the Gaussian(R) 94 system (copyright 1995, Gaussian, Inc.),
 the Gaussian 92(TM) system (copyright 1992, Gaussian, Inc.),
 the Gaussian 90(TM) system (copyright 1990, Gaussian, Inc.),
 the Gaussian 88(TM) system (copyright 1988, Gaussian, Inc.),
 the Gaussian 86(TM) system (copyright 1986, Carnegie Mellon
 University), and the Gaussian 82(TM) system (copyright 1983,
 Carnegie Mellon University). Gaussian is a federally registered
 trademark of Gaussian, Inc.
  
 This software contains proprietary and confidential information,
 including trade secrets, belonging to Gaussian, Inc.
  
 This software is provided under written license and may be
 used, copied, transmitted, or stored only in accord with that
 written license.
  
 The following legend is applicable only to US Government
 contracts under FAR:
  
                    RESTRICTED RIGHTS LEGEND
  
 Use, reproduction and disclosure by the US Government is
 subject to restrictions as set forth in subparagraphs (a)
 and (c) of the Commercial Computer Software - Restricted
 Rights clause in FAR 52.227-19.
  
 Gaussian, Inc.
 340 Quinnipiac St., Bldg. 40, Wallingford CT 06492
  
  
 ---------------------------------------------------------------
 Warning -- This program may not be used in any manner that
 competes with the business of Gaussian, Inc. or will provide
 assistance to any competitor of Gaussian, Inc.  The licensee
 of this program is prohibited from giving any competitor of
 Gaussian, Inc. access to this program.  By using this program,
 the user acknowledges that Gaussian, Inc. is engaged in the
 business of creating and licensing software in the field of
 computational chemistry and represents and warrants to the
 licensee that it is not a competitor of Gaussian, Inc. and that
 it will not use this program in any manner prohibited above.
 ---------------------------------------------------------------
  

 Cite this work as:
 Gaussian 09, Revision C.01,
 M. J. Frisch, G. W. Trucks, H. B. Schlegel, G. E. Scuseria, 
 M. A. Robb, J. R. Cheeseman, G. Scalmani, V. Barone, B. Mennucci, 
 G. A. Petersson, H. Nakatsuji, M. Caricato, X. Li, H. P. Hratchian, 
 A. F. Izmaylov, J. Bloino, G. Zheng, J. L. Sonnenberg, M. Hada, 
 M. Ehara, K. Toyota, R. Fukuda, J. Hasegawa, M. Ishida, T. Nakajima, 
 Y. Honda, O. Kitao, H. Nakai, T. Vreven, J. A. Montgomery, Jr., 
 J. E. Peralta, F. Ogliaro, M. Bearpark, J. J. Heyd, E. Brothers, 
 K. N. Kudin, V. N. Staroverov, T. Keith, R. Kobayashi, J. Normand, 
 K. Raghavachari, A. Rendell, J. C. Burant, S. S. Iyengar, J. Tomasi, 
 M. Cossi, N. Rega, J. M. Millam, M. Klene, J. E. Knox, J. B. Cross, 
 V. Bakken, C. Adamo, J. Jaramillo, R. Gomperts, R. E. Stratmann, 
 O. Yazyev, A. J. Austin, R. Cammi, C. Pomelli, J. W. Ochterski, 
 R. L. Martin, K. Morokuma, V. G. Zakrzewski, G. A. Voth, 
 P. Salvador, J. J. Dannenberg, S. Dapprich, A. D. Daniels, 
 O. Farkas, J. B. Foresman, J. V. Ortiz, J. Cioslowski, 
 and D. J. Fox, Gaussian, Inc., Wallingford CT, 2010.
 
 ******************************************
 Gaussian 09:  EM64L-G09RevC.01 23-Sep-2011
                10-May-2020 
 ******************************************
 %mem=8GB
 %nproc=8
 Will use up to    8 processors via shared memory.
 -------------------------------------------------------
 #p wb97xd/aug-cc-PVTz int=ultrafine counterpoise=2 Scan
 -------------------------------------------------------
 1/38=1,60=1,62=2/1,8;
 2/12=2,17=6,18=5,29=3,40=1/2;
 1/38=1,53=5172,62=2/22;
 3/5=16,6=1,7=10,11=2,16=1,25=1,30=1,74=-58,75=-5/1,2,3;
 4//1;
 5/5=2,38=5/2;
 6/7=2,8=2,9=2,10=2,18=1,28=1/1;
 1/53=4052,62=2,63=1/22;
 3/5=7,6=11,7=10,11=2,16=1,25=1,30=1,74=-58,75=-5,82=7/1,2,3;
 4//1;
 5/5=2,38=5/2;
 6/7=2,8=2,9=2,10=2,18=1,28=1/1;
 1/53=3042,62=2,63=2/22;
 3/5=7,6=11,7=10,11=2,16=1,25=1,30=1,74=-58,75=-5,82=7/1,2,3;
 4//1;
 5/5=2,38=5/2;
 6/7=2,8=2,9=2,10=2,18=1,28=1/1;
 1/53=2032,62=2,63=3/22;
 3/5=7,6=11,7=10,11=2,16=1,25=1,30=1,74=-58,75=-5,82=7/1,2,3;
 4//1;
 5/5=2,38=5/2;
 6/7=2,8=2,9=2,10=2,18=1,28=1/1;
 1/53=1022,62=2,63=4/22;
 3/5=7,6=11,7=10,11=2,16=1,25=1,30=1,74=-58,75=-5,82=7/1,2,3;
 4//1;
 5/5=2,38=5/2;
 6/7=2,8=2,9=2,10=2,18=1,28=1/1;
 1/53=5014,62=2,63=5/22;
 1/60=1,62=2/8(1);
 99/9=1/99;
 2/29=3/2;
 1/53=5173,62=2/22;
 3/5=7,6=11,7=10,11=2,16=1,25=1,30=1,74=-58,75=-5,82=7/1,2,3;
 4/5=5,16=3/1;
 5/5=2,38=5/2;
 1/53=4053,62=2,63=1/22;
 3/5=7,6=11,7=10,11=2,16=1,25=1,30=1,74=-58,75=-5,82=7/1,2,3;
 4/5=5,16=3/1;
 5/5=2,38=5/2;
 1/53=3043,62=2,63=2/22;
 3/5=7,6=11,7=10,11=2,16=1,25=1,30=1,74=-58,75=-5,82=7/1,2,3;
 4/5=5,16=3/1;
 5/5=2,38=5/2;
 1/53=2033,62=2,63=3/22;
 3/5=7,6=11,7=10,11=2,16=1,25=1,30=1,74=-58,75=-5,82=7/1,2,3;
 4/5=5,16=3/1;
 5/5=2,38=5/2;
 1/53=1024,62=2,63=4/22;
 3/5=7,6=11,7=10,11=2,16=1,25=1,30=1,74=-58,75=-5,82=7/1,2,3;
 4/5=5,16=3/1;
 5/5=2,38=5/2;
 1/53=5014,62=2,63=5/22;
 1/60=1,62=2/8(-22);
 99/9=1/99;
 Leave Link    1 at Sun May 10 13:34:18 2020, MaxMem= 1073741824 cpu:       0.1
 (Enter /home/matheus/.gaussian/g09/l101.exe)
 ---
 TCC
 ---
 Charge =  0 Multiplicity = 1 in supermolecule
 Charge =  0 Multiplicity = 1 in fragment  1.
 Charge =  0 Multiplicity = 1 in fragment  2.
 Symbolic Z-Matrix:
 O(Fragment=1)         0.        0.        0.725 
 O(Fragment=1)         0.        0.       -0.725 
 H(Fragment=1)        -0.86331   0.31422   1.02351 
 H(Fragment=1)         0.        0.91872  -1.02351 
 Kr(Fragment=2)        0.       R1        0. 
       Variables:
  R1                    3.     Scan 20    0.1    
 
 NAtoms=      5 NQM=        0 NQMF=       0 NMMI=      5 NMMIF=      0
                NMic=       0 NMicF=      0.
                    Isotopes and Nuclear Properties:
 (Nuclear quadrupole moments (NQMom) in fm**2, nuclear magnetic moments (NMagM)
  in nuclear magnetons)

  Atom         1           2           3           4           5
 IAtWgt=          16          16           1           1          84
 AtmWgt=  15.9949146  15.9949146   1.0078250   1.0078250  83.9115064
 NucSpn=           0           0           1           1           0
 AtZEff=   0.0000000   0.0000000   0.0000000   0.0000000   0.0000000
 NQMom=    0.0000000   0.0000000   0.0000000   0.0000000   0.0000000
 NMagM=    0.0000000   0.0000000   2.7928460   2.7928460   0.0000000
 Leave Link  101 at Sun May 10 13:34:18 2020, MaxMem= 1073741824 cpu:       0.3
 (Enter /home/matheus/.gaussian/g09/l108.exe)
 Scan the potential surface.
 Variable   Value     No. Steps Step-Size
 -------- ----------- --------- ---------
     1       3.000000      20      0.1000
 A total of     21 points will be computed.
 Leave Link  108 at Sun May 10 13:34:18 2020, MaxMem= 1073741824 cpu:       0.0
 (Enter /home/matheus/.gaussian/g09/l202.exe)
 ---------------------------------------------------------------------------------------------------
                            Z-MATRIX (ANGSTROMS AND DEGREES)
   CD    Cent   Atom    N1       Length/X        N2       Alpha/Y        N3        Beta/Z          J
 ---------------------------------------------------------------------------------------------------
      1      1  O        0   0.000000          0.000000          0.725000
      2      2  O        0   0.000000          0.000000         -0.725000
      3      3  H        0  -0.863315          0.314221          1.023510
      4      4  H        0   0.000000          0.918721         -1.023510
      5      5  Kr       0   0.000000          3.000000          0.000000
 ---------------------------------------------------------------------------------------------------
                         Z-Matrix orientation:                         
 ---------------------------------------------------------------------
 Center     Atomic      Atomic             Coordinates (Angstroms)
 Number     Number       Type             X           Y           Z
 ---------------------------------------------------------------------
      1          8           0        0.000000    0.000000    0.725000
      2          8           0        0.000000    0.000000   -0.725000
      3          1           0       -0.863315    0.314221    1.023510
      4          1           0        0.000000    0.918721   -1.023510
      5         36           0        0.000000    3.000000    0.000000
 ---------------------------------------------------------------------
                    Distance matrix (angstroms):
                    1          2          3          4          5
     1  O    0.000000
     2  O    1.450000   0.000000
     3  H    0.966000   1.975180   0.000000
     4  H    1.975180   0.966000   2.302396   0.000000
     5  Kr   3.086361   3.086361   3.001049   2.319331   0.000000
 Stoichiometry    H2KrO2
 Framework group  C1[X(H2KrO2)]
 Deg. of freedom     9
 Full point group                 C1      NOp   1
 Largest Abelian subgroup         C1      NOp   1
 Largest concise Abelian subgroup C1      NOp   1
                         Standard orientation:                         
 ---------------------------------------------------------------------
 Center     Atomic      Atomic             Coordinates (Angstroms)
 Number     Number       Type             X           Y           Z
 ---------------------------------------------------------------------
      1          8           0       -2.027244   -0.704579   -0.107619
      2          8           0       -2.017454    0.739726    0.020400
      3          1           0       -1.727457   -1.080559    0.730189
      4          1           0       -1.096833    1.029722    0.059329
      5         36           0        0.977274   -0.006398   -0.002549
 ---------------------------------------------------------------------
 Rotational constants (GHZ):     25.7099481      2.3602095      2.1745891
 Leave Link  202 at Sun May 10 13:34:18 2020, MaxMem= 1073741824 cpu:       0.0
 (Enter /home/matheus/.gaussian/g09/l122.exe)
 Leave Link  122 at Sun May 10 13:34:18 2020, MaxMem= 1073741824 cpu:       0.0
 (Enter /home/matheus/.gaussian/g09/l301.exe)
 Standard basis: Aug-CC-pVTZ (5D, 7F)
 Ernie: Thresh=  0.10000D-02 Tol=  0.10000D-05 Strict=F.
 Ernie:  38 primitive shells out of 205 were deleted.
 There are   197 symmetry adapted basis functions of A   symmetry.
 Integral buffers will be    131072 words long.
 Raffenetti 2 integral format.
 Two-electron integral symmetry is turned on.
   197 basis functions,   415 primitive gaussians,   229 cartesian basis functions
    27 alpha electrons       27 beta electrons
       nuclear repulsion energy       149.9587672391 Hartrees.
 IExCor= 4639 DFT=T Ex+Corr=wB97XD ExCW=0 ScaHFX=  1.000000
 ScaDFX=  1.000000  1.000000  1.000000  1.000000 ScalE2=  1.000000  1.000000
 IRadAn=      5 IRanWt=     -1 IRanGd=            0 ICorTp=0
  HFx wShort=  0.000000 wLong=  0.200000 cFull=  0.222036 cShort=  0.000000 cLong=  0.777964
  DFx wShort=  0.000000 wLong=  0.200000 cFull=  0.000000 cShort=  0.000000 cLong=  1.000000
 NAtoms=    5 NActive=    5 NUniq=    5 SFac= 1.00D+00 NAtFMM=   60 NAOKFM=F Big=F
 R6Disp: Dispersion energy =        -0.0009500904 Hartrees.
 Nuclear repulsion after empirical dispersion term =      149.9578171487 Hartrees.
 Leave Link  301 at Sun May 10 13:34:18 2020, MaxMem= 1073741824 cpu:       0.2
 (Enter /home/matheus/.gaussian/g09/l302.exe)
 NPDir=0 NMtPBC=     1 NCelOv=     1 NCel=       1 NClECP=     1 NCelD=      1
         NCelK=      1 NCelE2=     1 NClLst=     1 CellRange=     0.0.
 One-electron integrals computed using PRISM.
 NBasis=   197 RedAO= T  NBF=   197
 NBsUse=   197 1.00D-06 NBFU=   197
 Precomputing XC quadrature grid using
 IXCGrd= 2 IRadAn=           5 IRanWt=          -1 IRanGd=           0 AccXCQ= 0.00D+00.
 NRdTot=     427 NPtTot=      123512 NUsed=      126579 NTot=      126611
 NSgBfM=   229   229   229   229   229 NAtAll=     5     5.
 Leave Link  302 at Sun May 10 13:34:18 2020, MaxMem= 1073741824 cpu:       0.9
 (Enter /home/matheus/.gaussian/g09/l303.exe)
 DipDrv:  MaxL=1.
 Leave Link  303 at Sun May 10 13:34:18 2020, MaxMem= 1073741824 cpu:       0.2
 (Enter /home/matheus/.gaussian/g09/l401.exe)
 Harris functional with IExCor= 4639 diagonalized for initial guess.
 ExpMin= 2.53D-02 ExpMax= 1.17D+07 ExpMxC= 1.33D+04 IAcc=3 IRadAn=         5 AccDes= 0.00D+00
 HarFok:  IExCor= 4639 AccDes= 0.00D+00 IRadAn=         5 IDoV= 1
 ScaDFX=  1.000000  1.000000  1.000000  1.000000
 FoFCou: FMM=F IPFlag=           0 FMFlag=      100000 FMFlg1=           0
         NFxFlg=           0 DoJE=T BraDBF=F KetDBF=T FulRan=T
         Omega=  0.000000  0.000000  1.000000  0.000000  0.000000 ICntrl=     500 IOpCl=  0
         NMat0=    1 NMatS0=    1 NMatT0=    0 NMatD0=    1 NMtDS0=    0 NMtDT0=    0
         I1Cent=           4 NGrid=           0.
 Petite list used in FoFCou.
 Harris En= -2876.48926172307    
 Initial guess orbital symmetries:
       Occupied  (A) (A) (A) (A) (A) (A) (A) (A) (A) (A) (A) (A)
                 (A) (A) (A) (A) (A) (A) (A) (A) (A) (A) (A) (A)
                 (A) (A) (A)
       Virtual   (A) (A) (A) (A) (A) (A) (A) (A) (A) (A) (A) (A)
                 (A) (A) (A) (A) (A) (A) (A) (A) (A) (A) (A) (A)
                 (A) (A) (A) (A) (A) (A) (A) (A) (A) (A) (A) (A)
                 (A) (A) (A) (A) (A) (A) (A) (A) (A) (A) (A) (A)
                 (A) (A) (A) (A) (A) (A) (A) (A) (A) (A) (A) (A)
                 (A) (A) (A) (A) (A) (A) (A) (A) (A) (A) (A) (A)
                 (A) (A) (A) (A) (A) (A) (A) (A) (A) (A) (A) (A)
                 (A) (A) (A) (A) (A) (A) (A) (A) (A) (A) (A) (A)
                 (A) (A) (A) (A) (A) (A) (A) (A) (A) (A) (A) (A)
                 (A) (A) (A) (A) (A) (A) (A) (A) (A) (A) (A) (A)
                 (A) (A) (A) (A) (A) (A) (A) (A) (A) (A) (A) (A)
                 (A) (A) (A) (A) (A) (A) (A) (A) (A) (A) (A) (A)
                 (A) (A) (A) (A) (A) (A) (A) (A) (A) (A) (A) (A)
                 (A) (A) (A) (A) (A) (A) (A) (A) (A) (A) (A) (A)
                 (A) (A)
 The electronic state of the initial guess is 1-A.
 Leave Link  401 at Sun May 10 13:34:18 2020, MaxMem= 1073741824 cpu:       4.3
 (Enter /home/matheus/.gaussian/g09/l502.exe)
 Closed shell SCF:
 Requested convergence on RMS density matrix=1.00D-08 within 128 cycles.
 Requested convergence on MAX density matrix=1.00D-06.
 Requested convergence on             energy=1.00D-06.
 No special actions if energy rises.
 Using DIIS extrapolation, IDIIS=  1040.
 Integral symmetry usage will be decided dynamically.
       126521 words used for storage of precomputed grid.
 IEnd=      305468 IEndB=      305468 NGot=  1073741824 MDV=  1073505667
 LenX=  1073505667 LenY=  1073452785
 Fock matrices will be formed incrementally for  20 cycles.

 Cycle   1  Pass 1  IDiag  1:
 FoFJK:  IHMeth= 1 ICntrl=     0 DoSepK=T KAlg= 1 I1Cent= 0 FoldK=F
 FoFCou: FMM=F IPFlag=           0 FMFlag=      100000 FMFlg1=           0
         NFxFlg=           0 DoJE=T BraDBF=F KetDBF=F FulRan=T
         Omega=  0.000000  0.000000  1.000000  0.000000  0.000000 ICntrl=     500 IOpCl=  0
         NMat0=    1 NMatS0=    1 NMatT0=    0 NMatD0=    1 NMtDS0=    0 NMtDT0=    0
         I1Cent=           0 NGrid=           0.
 Symmetry not used in FoFCou.
 E= -2904.93440125215    
 DIIS: error= 7.20D-02 at cycle   1 NSaved=   1.
 NSaved= 1 IEnMin= 1 EnMin= -2904.93440125215     IErMin= 1 ErrMin= 7.20D-02
 ErrMax= 7.20D-02 EMaxC= 1.00D-01 BMatC= 2.18D+00 BMatP= 2.18D+00
 IDIUse=3 WtCom= 2.80D-01 WtEn= 7.20D-01
 Coeff-Com:  0.100D+01
 Coeff-En:   0.100D+01
 Coeff:      0.100D+01
 Gap=     0.519 Goal=   None    Shift=    0.000
 GapD=    0.519 DampG=2.000 DampE=0.500 DampFc=1.0000 IDamp=-1.
 RMSDP=6.13D-03 MaxDP=3.68D-01              OVMax= 1.77D-01

 Cycle   2  Pass 1  IDiag  1:
 RMSU=  4.31D-03    CP:  1.03D+00
 FoFJK:  IHMeth= 1 ICntrl=     0 DoSepK=T KAlg= 1 I1Cent= 0 FoldK=F
 E= -2905.22968256012     Delta-E=       -0.295281307971 Rises=F Damp=F
 DIIS: error= 3.14D-02 at cycle   2 NSaved=   2.
 NSaved= 2 IEnMin= 2 EnMin= -2905.22968256012     IErMin= 2 ErrMin= 3.14D-02
 ErrMax= 3.14D-02 EMaxC= 1.00D-01 BMatC= 5.63D-01 BMatP= 2.18D+00
 IDIUse=3 WtCom= 6.86D-01 WtEn= 3.14D-01
 Coeff-Com:  0.330D+00 0.670D+00
 Coeff-En:   0.214D+00 0.786D+00
 Coeff:      0.293D+00 0.707D+00
 Gap=     0.466 Goal=   None    Shift=    0.000
 RMSDP=2.70D-03 MaxDP=1.58D-01 DE=-2.95D-01 OVMax= 7.69D-02

 Cycle   3  Pass 1  IDiag  1:
 RMSU=  5.49D-04    CP:  1.02D+00  5.78D-01
 FoFJK:  IHMeth= 1 ICntrl=     0 DoSepK=T KAlg= 1 I1Cent= 0 FoldK=F
 E= -2905.42097574819     Delta-E=       -0.191293188069 Rises=F Damp=F
 DIIS: error= 5.50D-03 at cycle   3 NSaved=   3.
 NSaved= 3 IEnMin= 3 EnMin= -2905.42097574819     IErMin= 3 ErrMin= 5.50D-03
 ErrMax= 5.50D-03 EMaxC= 1.00D-01 BMatC= 1.85D-02 BMatP= 5.63D-01
 IDIUse=3 WtCom= 9.45D-01 WtEn= 5.50D-02
 Coeff-Com:  0.361D-01 0.191D+00 0.773D+00
 Coeff-En:   0.000D+00 0.000D+00 0.100D+01
 Coeff:      0.341D-01 0.181D+00 0.785D+00
 Gap=     0.427 Goal=   None    Shift=    0.000
 RMSDP=5.02D-04 MaxDP=2.12D-02 DE=-1.91D-01 OVMax= 2.61D-02

 Cycle   4  Pass 1  IDiag  1:
 RMSU=  2.42D-04    CP:  1.02D+00  6.36D-01  8.81D-01
 FoFJK:  IHMeth= 1 ICntrl=     0 DoSepK=T KAlg= 1 I1Cent= 0 FoldK=F
 E= -2905.42925947493     Delta-E=       -0.008283726740 Rises=F Damp=F
 DIIS: error= 2.21D-03 at cycle   4 NSaved=   4.
 NSaved= 4 IEnMin= 4 EnMin= -2905.42925947493     IErMin= 4 ErrMin= 2.21D-03
 ErrMax= 2.21D-03 EMaxC= 1.00D-01 BMatC= 2.05D-03 BMatP= 1.85D-02
 IDIUse=3 WtCom= 9.78D-01 WtEn= 2.21D-02
 Coeff-Com: -0.102D-02 0.532D-01 0.381D+00 0.566D+00
 Coeff-En:   0.000D+00 0.000D+00 0.000D+00 0.100D+01
 Coeff:     -0.993D-03 0.520D-01 0.373D+00 0.576D+00
 Gap=     0.412 Goal=   None    Shift=    0.000
 RMSDP=1.35D-04 MaxDP=7.75D-03 DE=-8.28D-03 OVMax= 7.31D-03

 Cycle   5  Pass 1  IDiag  1:
 RMSU=  3.83D-05    CP:  1.02D+00  6.33D-01  9.21D-01  6.60D-01
 FoFJK:  IHMeth= 1 ICntrl=     0 DoSepK=T KAlg= 1 I1Cent= 0 FoldK=F
 E= -2905.43051371529     Delta-E=       -0.001254240359 Rises=F Damp=F
 DIIS: error= 2.61D-04 at cycle   5 NSaved=   5.
 NSaved= 5 IEnMin= 5 EnMin= -2905.43051371529     IErMin= 5 ErrMin= 2.61D-04
 ErrMax= 2.61D-04 EMaxC= 1.00D-01 BMatC= 2.49D-05 BMatP= 2.05D-03
 IDIUse=3 WtCom= 9.97D-01 WtEn= 2.61D-03
 Coeff-Com: -0.103D-02 0.143D-01 0.119D+00 0.195D+00 0.673D+00
 Coeff-En:   0.000D+00 0.000D+00 0.000D+00 0.000D+00 0.100D+01
 Coeff:     -0.102D-02 0.142D-01 0.118D+00 0.195D+00 0.674D+00
 Gap=     0.411 Goal=   None    Shift=    0.000
 RMSDP=2.10D-05 MaxDP=9.88D-04 DE=-1.25D-03 OVMax= 1.57D-03

 Cycle   6  Pass 1  IDiag  1:
 RMSU=  1.42D-05    CP:  1.02D+00  6.33D-01  9.27D-01  6.70D-01  1.03D+00
 FoFJK:  IHMeth= 1 ICntrl=     0 DoSepK=T KAlg= 1 I1Cent= 0 FoldK=F
 E= -2905.43052541447     Delta-E=       -0.000011699181 Rises=F Damp=F
 DIIS: error= 1.66D-04 at cycle   6 NSaved=   6.
 NSaved= 6 IEnMin= 6 EnMin= -2905.43052541447     IErMin= 6 ErrMin= 1.66D-04
 ErrMax= 1.66D-04 EMaxC= 1.00D-01 BMatC= 9.61D-06 BMatP= 2.49D-05
 IDIUse=3 WtCom= 9.98D-01 WtEn= 1.66D-03
 Coeff-Com: -0.385D-03-0.488D-02-0.230D-01-0.279D-01 0.387D+00 0.669D+00
 Coeff-En:   0.000D+00 0.000D+00 0.000D+00 0.000D+00 0.229D+00 0.771D+00
 Coeff:     -0.384D-03-0.487D-02-0.230D-01-0.279D-01 0.387D+00 0.669D+00
 Gap=     0.411 Goal=   None    Shift=    0.000
 RMSDP=1.09D-05 MaxDP=4.44D-04 DE=-1.17D-05 OVMax= 7.15D-04

 Cycle   7  Pass 1  IDiag  1:
 RMSU=  3.90D-06    CP:  1.02D+00  6.33D-01  9.33D-01  6.73D-01  1.16D+00
                    CP:  8.20D-01
 FoFJK:  IHMeth= 1 ICntrl=     0 DoSepK=T KAlg= 1 I1Cent= 0 FoldK=F
 E= -2905.43053217180     Delta-E=       -0.000006757329 Rises=F Damp=F
 DIIS: error= 1.73D-05 at cycle   7 NSaved=   7.
 NSaved= 7 IEnMin= 7 EnMin= -2905.43053217180     IErMin= 7 ErrMin= 1.73D-05
 ErrMax= 1.73D-05 EMaxC= 1.00D-01 BMatC= 8.56D-08 BMatP= 9.61D-06
 IDIUse=1 WtCom= 1.00D+00 WtEn= 0.00D+00
 Coeff-Com: -0.183D-05-0.139D-02-0.922D-02-0.131D-01 0.126D-01 0.942D-01
 Coeff-Com:  0.917D+00
 Coeff:     -0.183D-05-0.139D-02-0.922D-02-0.131D-01 0.126D-01 0.942D-01
 Coeff:      0.917D+00
 Gap=     0.411 Goal=   None    Shift=    0.000
 RMSDP=2.13D-06 MaxDP=6.25D-05 DE=-6.76D-06 OVMax= 1.78D-04

 Cycle   8  Pass 1  IDiag  1:
 RMSU=  8.82D-07    CP:  1.02D+00  6.33D-01  9.33D-01  6.74D-01  1.18D+00
                    CP:  8.68D-01  1.14D+00
 FoFJK:  IHMeth= 1 ICntrl=     0 DoSepK=T KAlg= 1 I1Cent= 0 FoldK=F
 E= -2905.43053231367     Delta-E=       -0.000000141878 Rises=F Damp=F
 DIIS: error= 3.68D-06 at cycle   8 NSaved=   8.
 NSaved= 8 IEnMin= 8 EnMin= -2905.43053231367     IErMin= 8 ErrMin= 3.68D-06
 ErrMax= 3.68D-06 EMaxC= 1.00D-01 BMatC= 4.56D-09 BMatP= 8.56D-08
 IDIUse=1 WtCom= 1.00D+00 WtEn= 0.00D+00
 Coeff-Com:  0.198D-04 0.124D-03 0.368D-03 0.210D-03-0.211D-01-0.287D-01
 Coeff-Com:  0.552D-01 0.994D+00
 Coeff:      0.198D-04 0.124D-03 0.368D-03 0.210D-03-0.211D-01-0.287D-01
 Coeff:      0.552D-01 0.994D+00
 Gap=     0.411 Goal=   None    Shift=    0.000
 RMSDP=6.88D-07 MaxDP=1.55D-05 DE=-1.42D-07 OVMax= 7.03D-05

 Cycle   9  Pass 1  IDiag  1:
 RMSU=  2.34D-07    CP:  1.02D+00  6.33D-01  9.33D-01  6.74D-01  1.19D+00
                    CP:  8.76D-01  1.20D+00  1.31D+00
 FoFJK:  IHMeth= 1 ICntrl=     0 DoSepK=T KAlg= 1 I1Cent= 0 FoldK=F
 E= -2905.43053232537     Delta-E=       -0.000000011697 Rises=F Damp=F
 DIIS: error= 1.40D-06 at cycle   9 NSaved=   9.
 NSaved= 9 IEnMin= 9 EnMin= -2905.43053232537     IErMin= 9 ErrMin= 1.40D-06
 ErrMax= 1.40D-06 EMaxC= 1.00D-01 BMatC= 3.94D-10 BMatP= 4.56D-09
 IDIUse=1 WtCom= 1.00D+00 WtEn= 0.00D+00
 Coeff-Com: -0.502D-06 0.798D-04 0.552D-03 0.605D-03-0.124D-02-0.495D-02
 Coeff-Com: -0.499D-01-0.335D-01 0.109D+01
 Coeff:     -0.502D-06 0.798D-04 0.552D-03 0.605D-03-0.124D-02-0.495D-02
 Coeff:     -0.499D-01-0.335D-01 0.109D+01
 Gap=     0.411 Goal=   None    Shift=    0.000
 RMSDP=2.35D-07 MaxDP=6.80D-06 DE=-1.17D-08 OVMax= 2.93D-05

 Cycle  10  Pass 1  IDiag  1:
 RMSU=  8.21D-08    CP:  1.02D+00  6.33D-01  9.33D-01  6.74D-01  1.19D+00
                    CP:  8.77D-01  1.22D+00  1.41D+00  1.33D+00
 FoFJK:  IHMeth= 1 ICntrl=     0 DoSepK=T KAlg= 1 I1Cent= 0 FoldK=F
 E= -2905.43053232663     Delta-E=       -0.000000001260 Rises=F Damp=F
 DIIS: error= 3.35D-07 at cycle  10 NSaved=  10.
 NSaved=10 IEnMin=10 EnMin= -2905.43053232663     IErMin=10 ErrMin= 3.35D-07
 ErrMax= 3.35D-07 EMaxC= 1.00D-01 BMatC= 4.56D-11 BMatP= 3.94D-10
 IDIUse=1 WtCom= 1.00D+00 WtEn= 0.00D+00
 Coeff-Com: -0.129D-05-0.156D-05 0.186D-04 0.151D-04 0.185D-02 0.259D-02
 Coeff-Com: -0.597D-02-0.115D+00 0.156D+00 0.961D+00
 Coeff:     -0.129D-05-0.156D-05 0.186D-04 0.151D-04 0.185D-02 0.259D-02
 Coeff:     -0.597D-02-0.115D+00 0.156D+00 0.961D+00
 Gap=     0.411 Goal=   None    Shift=    0.000
 RMSDP=7.07D-08 MaxDP=1.40D-06 DE=-1.26D-09 OVMax= 9.43D-06

 Cycle  11  Pass 1  IDiag  1:
 RMSU=  2.00D-08    CP:  1.02D+00  6.33D-01  9.33D-01  6.74D-01  1.19D+00
                    CP:  8.77D-01  1.21D+00  1.43D+00  1.47D+00  1.28D+00
 FoFJK:  IHMeth= 1 ICntrl=     0 DoSepK=T KAlg= 1 I1Cent= 0 FoldK=F
 E= -2905.43053232671     Delta-E=       -0.000000000083 Rises=F Damp=F
 DIIS: error= 1.07D-07 at cycle  11 NSaved=  11.
 NSaved=11 IEnMin=11 EnMin= -2905.43053232671     IErMin=11 ErrMin= 1.07D-07
 ErrMax= 1.07D-07 EMaxC= 1.00D-01 BMatC= 3.42D-12 BMatP= 4.56D-11
 IDIUse=1 WtCom= 1.00D+00 WtEn= 0.00D+00
 Coeff-Com:  0.382D-06-0.510D-05-0.451D-04-0.322D-04-0.258D-04 0.249D-03
 Coeff-Com:  0.538D-02 0.236D-02-0.913D-01-0.612D-01 0.114D+01
 Coeff:      0.382D-06-0.510D-05-0.451D-04-0.322D-04-0.258D-04 0.249D-03
 Coeff:      0.538D-02 0.236D-02-0.913D-01-0.612D-01 0.114D+01
 Gap=     0.411 Goal=   None    Shift=    0.000
 RMSDP=2.39D-08 MaxDP=4.77D-07 DE=-8.32D-11 OVMax= 3.20D-06

 Cycle  12  Pass 1  IDiag  1:
 RMSU=  4.79D-09    CP:  1.02D+00  6.33D-01  9.33D-01  6.74D-01  1.19D+00
                    CP:  8.77D-01  1.21D+00  1.43D+00  1.51D+00  1.43D+00
                    CP:  1.28D+00
 FoFJK:  IHMeth= 1 ICntrl=     0 DoSepK=T KAlg= 1 I1Cent= 0 FoldK=F
 E= -2905.43053232676     Delta-E=       -0.000000000049 Rises=F Damp=F
 DIIS: error= 2.16D-08 at cycle  12 NSaved=  12.
 NSaved=12 IEnMin=12 EnMin= -2905.43053232676     IErMin=12 ErrMin= 2.16D-08
 ErrMax= 2.16D-08 EMaxC= 1.00D-01 BMatC= 1.24D-13 BMatP= 3.42D-12
 IDIUse=1 WtCom= 1.00D+00 WtEn= 0.00D+00
 Coeff-Com:  0.317D-08-0.399D-06-0.199D-05-0.417D-05-0.104D-03-0.143D-03
 Coeff-Com:  0.395D-03 0.507D-02-0.201D-02-0.392D-01-0.797D-01 0.112D+01
 Coeff:      0.317D-08-0.399D-06-0.199D-05-0.417D-05-0.104D-03-0.143D-03
 Coeff:      0.395D-03 0.507D-02-0.201D-02-0.392D-01-0.797D-01 0.112D+01
 Gap=     0.411 Goal=   None    Shift=    0.000
 RMSDP=4.79D-09 MaxDP=1.50D-07 DE=-4.91D-11 OVMax= 5.42D-07

 SCF Done:  E(RwB97XD) =  -2905.43053233     A.U. after   12 cycles
             Convg  =    0.4791D-08             -V/T =  2.0015
 KE= 2.900993543004D+03 PE=-7.237933355963D+03 EE= 1.281551463484D+03
 Leave Link  502 at Sun May 10 13:34:57 2020, MaxMem= 1073741824 cpu:     306.6
 (Enter /home/matheus/.gaussian/g09/l601.exe)
 Copying SCF densities to generalized density rwf, IOpCl= 0 IROHF=0.

 **********************************************************************

            Population analysis using the SCF density.

 **********************************************************************

 Orbital symmetries:
       Occupied  (A) (A) (A) (A) (A) (A) (A) (A) (A) (A) (A) (A)
                 (A) (A) (A) (A) (A) (A) (A) (A) (A) (A) (A) (A)
                 (A) (A) (A)
       Virtual   (A) (A) (A) (A) (A) (A) (A) (A) (A) (A) (A) (A)
                 (A) (A) (A) (A) (A) (A) (A) (A) (A) (A) (A) (A)
                 (A) (A) (A) (A) (A) (A) (A) (A) (A) (A) (A) (A)
                 (A) (A) (A) (A) (A) (A) (A) (A) (A) (A) (A) (A)
                 (A) (A) (A) (A) (A) (A) (A) (A) (A) (A) (A) (A)
                 (A) (A) (A) (A) (A) (A) (A) (A) (A) (A) (A) (A)
                 (A) (A) (A) (A) (A) (A) (A) (A) (A) (A) (A) (A)
                 (A) (A) (A) (A) (A) (A) (A) (A) (A) (A) (A) (A)
                 (A) (A) (A) (A) (A) (A) (A) (A) (A) (A) (A) (A)
                 (A) (A) (A) (A) (A) (A) (A) (A) (A) (A) (A) (A)
                 (A) (A) (A) (A) (A) (A) (A) (A) (A) (A) (A) (A)
                 (A) (A) (A) (A) (A) (A) (A) (A) (A) (A) (A) (A)
                 (A) (A) (A) (A) (A) (A) (A) (A) (A) (A) (A) (A)
                 (A) (A) (A) (A) (A) (A) (A) (A) (A) (A) (A) (A)
                 (A) (A)
 The electronic state is 1-A.
 Alpha  occ. eigenvalues -- -513.07966 -67.34650 -60.89534 -60.89523 -60.89514
 Alpha  occ. eigenvalues --  -19.31885 -19.31532  -9.79959  -7.49286  -7.49251
 Alpha  occ. eigenvalues --   -7.49223  -3.36026  -3.36020  -3.35999  -3.35970
 Alpha  occ. eigenvalues --   -3.35967  -1.22275  -1.01104  -1.00507  -0.66050
 Alpha  occ. eigenvalues --   -0.55744  -0.52345  -0.48979  -0.48628  -0.47678
 Alpha  occ. eigenvalues --   -0.41415  -0.37700
 Alpha virt. eigenvalues --    0.03368   0.04238   0.08091   0.09207   0.10070
 Alpha virt. eigenvalues --    0.11812   0.12839   0.14206   0.17149   0.17425
 Alpha virt. eigenvalues --    0.17971   0.18912   0.20181   0.22140   0.23014
 Alpha virt. eigenvalues --    0.24030   0.24997   0.27461   0.29875   0.31960
 Alpha virt. eigenvalues --    0.33593   0.34856   0.36491   0.38274   0.38859
 Alpha virt. eigenvalues --    0.40156   0.41823   0.46723   0.51450   0.53395
 Alpha virt. eigenvalues --    0.54184   0.58481   0.60805   0.62507   0.66650
 Alpha virt. eigenvalues --    0.69043   0.69983   0.72090   0.73763   0.73876
 Alpha virt. eigenvalues --    0.75370   0.75648   0.77533   0.78649   0.81533
 Alpha virt. eigenvalues --    0.82267   0.85106   0.87101   0.88356   0.89192
 Alpha virt. eigenvalues --    0.90315   0.92031   0.93906   0.95455   0.96716
 Alpha virt. eigenvalues --    0.97791   1.01305   1.03039   1.05499   1.06950
 Alpha virt. eigenvalues --    1.08755   1.12903   1.16061   1.20849   1.22485
 Alpha virt. eigenvalues --    1.24618   1.29713   1.34019   1.35479   1.38363
 Alpha virt. eigenvalues --    1.41583   1.45966   1.48343   1.52754   1.57634
 Alpha virt. eigenvalues --    1.66695   1.67373   1.80982   1.89793   1.91132
 Alpha virt. eigenvalues --    1.98529   2.00499   2.03399   2.07314   2.12200
 Alpha virt. eigenvalues --    2.13911   2.15667   2.18163   2.20497   2.23389
 Alpha virt. eigenvalues --    2.23563   2.26881   2.27804   2.28668   2.30314
 Alpha virt. eigenvalues --    2.33806   2.36175   2.42232   2.44998   2.45411
 Alpha virt. eigenvalues --    2.46426   2.48462   2.50063   2.53966   2.54373
 Alpha virt. eigenvalues --    2.57015   2.60136   2.62116   2.67960   2.68830
 Alpha virt. eigenvalues --    2.69468   2.72861   2.75856   2.82136   2.86348
 Alpha virt. eigenvalues --    2.92459   3.00053   3.07608   3.09803   3.58232
 Alpha virt. eigenvalues --    3.65991   3.91600   3.93229   3.97339   4.05101
 Alpha virt. eigenvalues --    4.08478   4.11031   4.21954   4.22154   4.26500
 Alpha virt. eigenvalues --    4.34251   4.46463   4.50537   4.56369   4.69843
 Alpha virt. eigenvalues --    4.91788   4.94877   4.97603   5.11355   5.13878
 Alpha virt. eigenvalues --    5.16654   5.41711   5.83224   6.00144   6.12145
 Alpha virt. eigenvalues --    6.18365   6.23577   6.30613   6.39938   6.47867
 Alpha virt. eigenvalues --    6.60301   6.74191   6.75546   6.80381   6.83034
 Alpha virt. eigenvalues --    6.87675   6.88596   6.91812   6.94385   6.99924
 Alpha virt. eigenvalues --    7.06023   7.11886   7.22296   7.45090   7.52136
 Alpha virt. eigenvalues --    7.78681   8.07331   8.11807  14.11087  14.65640
          Condensed to atoms (all electrons):
              1          2          3          4          5
     1  O    8.218995  -0.193060   0.193038   0.012293  -0.017164
     2  O   -0.193060   8.297473   0.017929   0.160183  -0.021245
     3  H    0.193038   0.017929   0.567207  -0.000658  -0.000515
     4  H    0.012293   0.160183  -0.000658   0.586801  -0.005422
     5  Kr  -0.017164  -0.021245  -0.000515  -0.005422  36.038765
 Mulliken atomic charges:
              1
     1  O   -0.214103
     2  O   -0.261280
     3  H    0.222999
     4  H    0.246803
     5  Kr   0.005581
 Sum of Mulliken atomic charges =   0.00000
 Mulliken charges with hydrogens summed into heavy atoms:
              1
     1  O    0.008897
     2  O   -0.014477
     5  Kr   0.005581
 Sum of Mulliken charges with hydrogens summed into heavy atoms =   0.00000
          Condensed to fragments (all electrons):
     1      -0.005581
     2       0.005581
 Electronic spatial extent (au):  <R**2>=            480.9221
 Charge=              0.0000 electrons
 Dipole moment (field-independent basis, Debye):
    X=              2.3228    Y=             -0.3313    Z=              1.3306  Tot=              2.6973
 Quadrupole moment (field-independent basis, Debye-Ang):
   XX=            -36.4611   YY=            -27.8467   ZZ=            -29.1260
   XY=              1.5039   XZ=             -2.3904   YZ=             -1.7105
 Traceless Quadrupole moment (field-independent basis, Debye-Ang):
   XX=             -5.3165   YY=              3.2979   ZZ=              2.0186
   XY=              1.5039   XZ=             -2.3904   YZ=             -1.7105
 Octapole moment (field-independent basis, Debye-Ang**2):
  XXX=             39.5331  YYY=             -0.8985  ZZZ=              0.8893  XYY=              5.8321
  XXY=             -4.2011  XXZ=              3.4383  XZZ=              6.0457  YZZ=             -1.6629
  YYZ=              2.0991  XYZ=              3.0239
 Hexadecapole moment (field-independent basis, Debye-Ang**3):
 XXXX=           -458.4745 YYYY=            -62.7426 ZZZZ=            -29.6795 XXXY=              7.3311
 XXXZ=             -5.9025 YYYX=              2.8424 YYYZ=             -2.5020 ZZZX=             -2.0147
 ZZZY=             -1.7465 XXYY=            -82.4155 XXZZ=            -72.8270 YYZZ=            -15.9707
 XXYZ=             -5.4561 YYXZ=             -3.6401 ZZXY=              2.8303
 N-N= 1.499578171487D+02 E-N=-7.237933352590D+03  KE= 2.900993543004D+03
 No NMR shielding tensors so no spin-rotation constants.
 Leave Link  601 at Sun May 10 13:34:57 2020, MaxMem= 1073741824 cpu:       0.8
 (Enter /home/matheus/.gaussian/g09/l122.exe)
 Counterpoise: doing DCBS calculation for fragment   1 NewBq=T
 Leave Link  122 at Sun May 10 13:34:57 2020, MaxMem= 1073741824 cpu:       0.0
 (Enter /home/matheus/.gaussian/g09/l301.exe)
 Basis read from rwf:  (5D, 7F)
 No pseudopotential information found on rwf file.
 There are   197 symmetry adapted basis functions of A   symmetry.
 Integral buffers will be    131072 words long.
 Raffenetti 2 integral format.
 Two-electron integral symmetry is turned on.
   197 basis functions,   415 primitive gaussians,   229 cartesian basis functions
     9 alpha electrons        9 beta electrons
       nuclear repulsion energy        36.6380791177 Hartrees.
 IExCor= 4639 DFT=T Ex+Corr=wB97XD ExCW=0 ScaHFX=  1.000000
 ScaDFX=  1.000000  1.000000  1.000000  1.000000 ScalE2=  1.000000  1.000000
 IRadAn=      5 IRanWt=     -1 IRanGd=            0 ICorTp=0
  HFx wShort=  0.000000 wLong=  0.200000 cFull=  0.222036 cShort=  0.000000 cLong=  0.777964
  DFx wShort=  0.000000 wLong=  0.200000 cFull=  0.000000 cShort=  0.000000 cLong=  1.000000
 NAtoms=    5 NActive=    5 NUniq=    5 SFac= 1.00D+00 NAtFMM=   60 NAOKFM=F Big=F
 R6Disp: Dispersion energy =        -0.0002573303 Hartrees.
 Nuclear repulsion after empirical dispersion term =       36.6378217874 Hartrees.
 No density basis found on file   718.
 Leave Link  301 at Sun May 10 13:34:57 2020, MaxMem= 1073741824 cpu:       0.2
 (Enter /home/matheus/.gaussian/g09/l302.exe)
 NPDir=0 NMtPBC=     1 NCelOv=     1 NCel=       1 NClECP=     1 NCelD=      1
         NCelK=      1 NCelE2=     1 NClLst=     1 CellRange=     0.0.
 One-electron integrals computed using PRISM.
 NBasis=   197 RedAO= T  NBF=   197
 NBsUse=   197 1.00D-06 NBFU=   197
 Precomputing XC quadrature grid using
 IXCGrd= 2 IRadAn=           5 IRanWt=          -1 IRanGd=           0 AccXCQ= 0.00D+00.
 NRdTot=     427 NPtTot=      123512 NUsed=      126579 NTot=      126611
 NSgBfM=   229   229   229   229   229 NAtAll=     5     5.
 Leave Link  302 at Sun May 10 13:34:57 2020, MaxMem= 1073741824 cpu:       1.0
 (Enter /home/matheus/.gaussian/g09/l303.exe)
 DipDrv:  MaxL=1.
 Leave Link  303 at Sun May 10 13:34:57 2020, MaxMem= 1073741824 cpu:       0.2
 (Enter /home/matheus/.gaussian/g09/l401.exe)
 Harris functional with IExCor= 4639 diagonalized for initial guess.
 ExpMin= 2.53D-02 ExpMax= 1.17D+07 ExpMxC= 1.33D+04 IAcc=3 IRadAn=         5 AccDes= 0.00D+00
 HarFok:  IExCor= 4639 AccDes= 0.00D+00 IRadAn=         5 IDoV= 1
 ScaDFX=  1.000000  1.000000  1.000000  1.000000
 FoFCou: FMM=F IPFlag=           0 FMFlag=      100000 FMFlg1=           0
         NFxFlg=           0 DoJE=T BraDBF=F KetDBF=T FulRan=T
         Omega=  0.000000  0.000000  1.000000  0.000000  0.000000 ICntrl=     500 IOpCl=  0
         NMat0=    1 NMatS0=    1 NMatT0=    0 NMatD0=    1 NMtDS0=    0 NMtDT0=    0
         I1Cent=           4 NGrid=           0.
 Petite list used in FoFCou.
 Harris En= -146.295273939456    
 Initial guess orbital symmetries:
       Occupied  (A) (A) (A) (A) (A) (A) (A) (A) (A)
       Virtual   (A) (A) (A) (A) (A) (A) (A) (A) (A) (A) (A) (A)
                 (A) (A) (A) (A) (A) (A) (A) (A) (A) (A) (A) (A)
                 (A) (A) (A) (A) (A) (A) (A) (A) (A) (A) (A) (A)
                 (A) (A) (A) (A) (A) (A) (A) (A) (A) (A) (A) (A)
                 (A) (A) (A) (A) (A) (A) (A) (A) (A) (A) (A) (A)
                 (A) (A) (A) (A) (A) (A) (A) (A) (A) (A) (A) (A)
                 (A) (A) (A) (A) (A) (A) (A) (A) (A) (A) (A) (A)
                 (A) (A) (A) (A) (A) (A) (A) (A) (A) (A) (A) (A)
                 (A) (A) (A) (A) (A) (A) (A) (A) (A) (A) (A) (A)
                 (A) (A) (A) (A) (A) (A) (A) (A) (A) (A) (A) (A)
                 (A) (A) (A) (A) (A) (A) (A) (A) (A) (A) (A) (A)
                 (A) (A) (A) (A) (A) (A) (A) (A) (A) (A) (A) (A)
                 (A) (A) (A) (A) (A) (A) (A) (A) (A) (A) (A) (A)
                 (A) (A) (A) (A) (A) (A) (A) (A) (A) (A) (A) (A)
                 (A) (A) (A) (A) (A) (A) (A) (A) (A) (A) (A) (A)
                 (A) (A) (A) (A) (A) (A) (A) (A)
 The electronic state of the initial guess is 1-A.
 Leave Link  401 at Sun May 10 13:34:58 2020, MaxMem= 1073741824 cpu:       4.1
 (Enter /home/matheus/.gaussian/g09/l502.exe)
 Closed shell SCF:
 Requested convergence on RMS density matrix=1.00D-08 within 128 cycles.
 Requested convergence on MAX density matrix=1.00D-06.
 Requested convergence on             energy=1.00D-06.
 No special actions if energy rises.
 Using DIIS extrapolation, IDIIS=  1040.
 Integral symmetry usage will be decided dynamically.
       126521 words used for storage of precomputed grid.
 IEnd=      305468 IEndB=      305468 NGot=  1073741824 MDV=  1073505667
 LenX=  1073505667 LenY=  1073452785
 Fock matrices will be formed incrementally for  20 cycles.

 Cycle   1  Pass 1  IDiag  1:
 FoFJK:  IHMeth= 1 ICntrl=     0 DoSepK=T KAlg= 1 I1Cent= 0 FoldK=F
 FoFCou: FMM=F IPFlag=           0 FMFlag=      100000 FMFlg1=           0
         NFxFlg=           0 DoJE=T BraDBF=F KetDBF=F FulRan=T
         Omega=  0.000000  0.000000  1.000000  0.000000  0.000000 ICntrl=     500 IOpCl=  0
         NMat0=    1 NMatS0=    1 NMatT0=    0 NMatD0=    1 NMtDS0=    0 NMtDT0=    0
         I1Cent=           0 NGrid=           0.
 Symmetry not used in FoFCou.
 E= -151.476835884898    
 DIIS: error= 3.28D-02 at cycle   1 NSaved=   1.
 NSaved= 1 IEnMin= 1 EnMin= -151.476835884898     IErMin= 1 ErrMin= 3.28D-02
 ErrMax= 3.28D-02 EMaxC= 1.00D-01 BMatC= 3.02D-01 BMatP= 3.02D-01
 IDIUse=3 WtCom= 6.72D-01 WtEn= 3.28D-01
 Coeff-Com:  0.100D+01
 Coeff-En:   0.100D+01
 Coeff:      0.100D+01
 Gap=     0.517 Goal=   None    Shift=    0.000
 GapD=    0.517 DampG=2.000 DampE=0.500 DampFc=1.0000 IDamp=-1.
 RMSDP=2.46D-03 MaxDP=1.10D-01              OVMax= 1.07D-01

 Cycle   2  Pass 1  IDiag  1:
 RMSU=  1.70D-03    CP:  9.47D-01
 FoFJK:  IHMeth= 1 ICntrl=     0 DoSepK=T KAlg= 1 I1Cent= 0 FoldK=F
 E= -151.508238745451     Delta-E=       -0.031402860553 Rises=F Damp=F
 DIIS: error= 1.43D-02 at cycle   2 NSaved=   2.
 NSaved= 2 IEnMin= 2 EnMin= -151.508238745451     IErMin= 2 ErrMin= 1.43D-02
 ErrMax= 1.43D-02 EMaxC= 1.00D-01 BMatC= 8.95D-02 BMatP= 3.02D-01
 IDIUse=3 WtCom= 8.57D-01 WtEn= 1.43D-01
 Coeff-Com:  0.330D+00 0.670D+00
 Coeff-En:   0.356D+00 0.644D+00
 Coeff:      0.334D+00 0.666D+00
 Gap=     0.465 Goal=   None    Shift=    0.000
 RMSDP=1.03D-03 MaxDP=4.96D-02 DE=-3.14D-02 OVMax= 6.05D-02

 Cycle   3  Pass 1  IDiag  1:
 RMSU=  3.69D-04    CP:  9.70D-01  6.42D-01
 FoFJK:  IHMeth= 1 ICntrl=     0 DoSepK=T KAlg= 1 I1Cent= 0 FoldK=F
 E= -151.555795820566     Delta-E=       -0.047557075115 Rises=F Damp=F
 DIIS: error= 4.55D-03 at cycle   3 NSaved=   3.
 NSaved= 3 IEnMin= 3 EnMin= -151.555795820566     IErMin= 3 ErrMin= 4.55D-03
 ErrMax= 4.55D-03 EMaxC= 1.00D-01 BMatC= 7.19D-03 BMatP= 8.95D-02
 IDIUse=3 WtCom= 9.55D-01 WtEn= 4.55D-02
 Coeff-Com:  0.166D-01 0.231D+00 0.753D+00
 Coeff-En:   0.000D+00 0.000D+00 0.100D+01
 Coeff:      0.158D-01 0.220D+00 0.764D+00
 Gap=     0.409 Goal=   None    Shift=    0.000
 RMSDP=2.93D-04 MaxDP=1.17D-02 DE=-4.76D-02 OVMax= 1.73D-02

 Cycle   4  Pass 1  IDiag  1:
 RMSU=  6.72D-05    CP:  9.63D-01  7.45D-01  7.95D-01
 FoFJK:  IHMeth= 1 ICntrl=     0 DoSepK=T KAlg= 1 I1Cent= 0 FoldK=F
 E= -151.560448076324     Delta-E=       -0.004652255759 Rises=F Damp=F
 DIIS: error= 5.27D-04 at cycle   4 NSaved=   4.
 NSaved= 4 IEnMin= 4 EnMin= -151.560448076324     IErMin= 4 ErrMin= 5.27D-04
 ErrMax= 5.27D-04 EMaxC= 1.00D-01 BMatC= 8.15D-05 BMatP= 7.19D-03
 IDIUse=3 WtCom= 9.95D-01 WtEn= 5.27D-03
 Coeff-Com:  0.338D-03 0.285D-01 0.172D+00 0.799D+00
 Coeff-En:   0.000D+00 0.000D+00 0.000D+00 0.100D+01
 Coeff:      0.336D-03 0.284D-01 0.171D+00 0.800D+00
 Gap=     0.407 Goal=   None    Shift=    0.000
 RMSDP=3.91D-05 MaxDP=2.19D-03 DE=-4.65D-03 OVMax= 1.89D-03

 Cycle   5  Pass 1  IDiag  1:
 RMSU=  1.38D-05    CP:  9.65D-01  7.37D-01  8.41D-01  1.09D+00
 FoFJK:  IHMeth= 1 ICntrl=     0 DoSepK=T KAlg= 1 I1Cent= 0 FoldK=F
 E= -151.560505507350     Delta-E=       -0.000057431026 Rises=F Damp=F
 DIIS: error= 4.51D-05 at cycle   5 NSaved=   5.
 NSaved= 5 IEnMin= 5 EnMin= -151.560505507350     IErMin= 5 ErrMin= 4.51D-05
 ErrMax= 4.51D-05 EMaxC= 1.00D-01 BMatC= 7.80D-07 BMatP= 8.15D-05
 IDIUse=1 WtCom= 1.00D+00 WtEn= 0.00D+00
 Coeff-Com: -0.654D-03-0.113D-01-0.376D-01-0.719D-01 0.112D+01
 Coeff:     -0.654D-03-0.113D-01-0.376D-01-0.719D-01 0.112D+01
 Gap=     0.406 Goal=   None    Shift=    0.000
 RMSDP=1.15D-05 MaxDP=4.36D-04 DE=-5.74D-05 OVMax= 7.07D-04

 Cycle   6  Pass 1  IDiag  1:
 RMSU=  2.70D-06    CP:  9.65D-01  7.36D-01  8.53D-01  1.16D+00  1.27D+00
 FoFJK:  IHMeth= 1 ICntrl=     0 DoSepK=T KAlg= 1 I1Cent= 0 FoldK=F
 E= -151.560507318366     Delta-E=       -0.000001811016 Rises=F Damp=F
 DIIS: error= 9.79D-06 at cycle   6 NSaved=   6.
 NSaved= 6 IEnMin= 6 EnMin= -151.560507318366     IErMin= 6 ErrMin= 9.79D-06
 ErrMax= 9.79D-06 EMaxC= 1.00D-01 BMatC= 2.93D-08 BMatP= 7.80D-07
 IDIUse=1 WtCom= 1.00D+00 WtEn= 0.00D+00
 Coeff-Com:  0.299D-04-0.419D-03-0.448D-02-0.213D-01-0.164D-01 0.104D+01
 Coeff:      0.299D-04-0.419D-03-0.448D-02-0.213D-01-0.164D-01 0.104D+01
 Gap=     0.406 Goal=   None    Shift=    0.000
 RMSDP=1.90D-06 MaxDP=6.69D-05 DE=-1.81D-06 OVMax= 1.89D-04

 Cycle   7  Pass 1  IDiag  1:
 RMSU=  6.28D-07    CP:  9.65D-01  7.36D-01  8.53D-01  1.17D+00  1.32D+00
                    CP:  1.33D+00
 FoFJK:  IHMeth= 1 ICntrl=     0 DoSepK=T KAlg= 1 I1Cent= 0 FoldK=F
 E= -151.560507403564     Delta-E=       -0.000000085198 Rises=F Damp=F
 DIIS: error= 3.72D-06 at cycle   7 NSaved=   7.
 NSaved= 7 IEnMin= 7 EnMin= -151.560507403564     IErMin= 7 ErrMin= 3.72D-06
 ErrMax= 3.72D-06 EMaxC= 1.00D-01 BMatC= 5.88D-09 BMatP= 2.93D-08
 IDIUse=1 WtCom= 1.00D+00 WtEn= 0.00D+00
 Coeff-Com:  0.268D-04 0.258D-03 0.230D-03-0.359D-02-0.436D-01 0.223D+00
 Coeff-Com:  0.824D+00
 Coeff:      0.268D-04 0.258D-03 0.230D-03-0.359D-02-0.436D-01 0.223D+00
 Coeff:      0.824D+00
 Gap=     0.406 Goal=   None    Shift=    0.000
 RMSDP=5.00D-07 MaxDP=2.25D-05 DE=-8.52D-08 OVMax= 5.69D-05

 Cycle   8  Pass 1  IDiag  1:
 RMSU=  2.58D-07    CP:  9.65D-01  7.36D-01  8.53D-01  1.17D+00  1.32D+00
                    CP:  1.38D+00  1.17D+00
 FoFJK:  IHMeth= 1 ICntrl=     0 DoSepK=T KAlg= 1 I1Cent= 0 FoldK=F
 E= -151.560507410674     Delta-E=       -0.000000007110 Rises=F Damp=F
 DIIS: error= 3.55D-06 at cycle   8 NSaved=   8.
 NSaved= 8 IEnMin= 8 EnMin= -151.560507410674     IErMin= 8 ErrMin= 3.55D-06
 ErrMax= 3.55D-06 EMaxC= 1.00D-01 BMatC= 4.09D-09 BMatP= 5.88D-09
 IDIUse=1 WtCom= 1.00D+00 WtEn= 0.00D+00
 Coeff-Com:  0.422D-05 0.237D-03 0.138D-02 0.358D-02-0.166D-01-0.198D+00
 Coeff-Com:  0.529D+00 0.681D+00
 Coeff:      0.422D-05 0.237D-03 0.138D-02 0.358D-02-0.166D-01-0.198D+00
 Coeff:      0.529D+00 0.681D+00
 Gap=     0.406 Goal=   None    Shift=    0.000
 RMSDP=3.04D-07 MaxDP=1.25D-05 DE=-7.11D-09 OVMax= 3.65D-05

 Cycle   9  Pass 1  IDiag  1:
 RMSU=  1.04D-07    CP:  9.65D-01  7.36D-01  8.53D-01  1.17D+00  1.32D+00
                    CP:  1.42D+00  1.40D+00  9.18D-01
 FoFJK:  IHMeth= 1 ICntrl=     0 DoSepK=T KAlg= 1 I1Cent= 0 FoldK=F
 E= -151.560507414626     Delta-E=       -0.000000003952 Rises=F Damp=F
 DIIS: error= 4.37D-07 at cycle   9 NSaved=   9.
 NSaved= 9 IEnMin= 9 EnMin= -151.560507414626     IErMin= 9 ErrMin= 4.37D-07
 ErrMax= 4.37D-07 EMaxC= 1.00D-01 BMatC= 5.23D-11 BMatP= 4.09D-09
 IDIUse=1 WtCom= 1.00D+00 WtEn= 0.00D+00
 Coeff-Com: -0.350D-06-0.185D-05 0.185D-04 0.315D-04 0.419D-02-0.272D-01
 Coeff-Com: -0.243D-01 0.408D-01 0.101D+01
 Coeff:     -0.350D-06-0.185D-05 0.185D-04 0.315D-04 0.419D-02-0.272D-01
 Coeff:     -0.243D-01 0.408D-01 0.101D+01
 Gap=     0.406 Goal=   None    Shift=    0.000
 RMSDP=8.30D-08 MaxDP=1.61D-06 DE=-3.95D-09 OVMax= 1.03D-05

 Cycle  10  Pass 1  IDiag  1:
 RMSU=  1.71D-08    CP:  9.65D-01  7.36D-01  8.53D-01  1.17D+00  1.32D+00
                    CP:  1.41D+00  1.44D+00  1.04D+00  1.34D+00
 FoFJK:  IHMeth= 1 ICntrl=     0 DoSepK=T KAlg= 1 I1Cent= 0 FoldK=F
 E= -151.560507414772     Delta-E=       -0.000000000146 Rises=F Damp=F
 DIIS: error= 1.18D-07 at cycle  10 NSaved=  10.
 NSaved=10 IEnMin=10 EnMin= -151.560507414772     IErMin=10 ErrMin= 1.18D-07
 ErrMax= 1.18D-07 EMaxC= 1.00D-01 BMatC= 5.90D-12 BMatP= 5.23D-11
 IDIUse=1 WtCom= 1.00D+00 WtEn= 0.00D+00
 Coeff-Com:  0.557D-07-0.169D-04-0.131D-03-0.421D-03 0.180D-02 0.166D-01
 Coeff-Com: -0.523D-01-0.654D-01-0.106D-01 0.111D+01
 Coeff:      0.557D-07-0.169D-04-0.131D-03-0.421D-03 0.180D-02 0.166D-01
 Coeff:     -0.523D-01-0.654D-01-0.106D-01 0.111D+01
 Gap=     0.406 Goal=   None    Shift=    0.000
 RMSDP=3.21D-08 MaxDP=6.87D-07 DE=-1.46D-10 OVMax= 4.21D-06

 Cycle  11  Pass 1  IDiag  1:
 RMSU=  5.61D-09    CP:  9.65D-01  7.36D-01  8.53D-01  1.17D+00  1.32D+00
                    CP:  1.41D+00  1.45D+00  1.08D+00  1.48D+00  1.41D+00
 FoFJK:  IHMeth= 1 ICntrl=     0 DoSepK=T KAlg= 1 I1Cent= 0 FoldK=F
 E= -151.560507414789     Delta-E=       -0.000000000017 Rises=F Damp=F
 DIIS: error= 2.67D-08 at cycle  11 NSaved=  11.
 NSaved=11 IEnMin=11 EnMin= -151.560507414789     IErMin=11 ErrMin= 2.67D-08
 ErrMax= 2.67D-08 EMaxC= 1.00D-01 BMatC= 1.79D-13 BMatP= 5.90D-12
 IDIUse=1 WtCom= 1.00D+00 WtEn= 0.00D+00
 Coeff-Com: -0.869D-07-0.122D-05-0.204D-05-0.956D-05-0.118D-03 0.833D-03
 Coeff-Com:  0.384D-02 0.124D-02-0.491D-01-0.598D-01 0.110D+01
 Coeff:     -0.869D-07-0.122D-05-0.204D-05-0.956D-05-0.118D-03 0.833D-03
 Coeff:      0.384D-02 0.124D-02-0.491D-01-0.598D-01 0.110D+01
 Gap=     0.406 Goal=   None    Shift=    0.000
 RMSDP=6.24D-09 MaxDP=2.19D-07 DE=-1.73D-11 OVMax= 7.16D-07

 SCF Done:  E(RwB97XD) =  -151.560507415     A.U. after   11 cycles
             Convg  =    0.6239D-08             -V/T =  2.0058
 KE= 1.506838351241D+02 PE=-4.317574277752D+02 EE= 9.287526344884D+01
 Leave Link  502 at Sun May 10 13:35:32 2020, MaxMem= 1073741824 cpu:     271.0
 (Enter /home/matheus/.gaussian/g09/l601.exe)
 Copying SCF densities to generalized density rwf, IOpCl= 0 IROHF=0.

 **********************************************************************

            Population analysis using the SCF density.

 **********************************************************************

 Orbital symmetries:
       Occupied  (A) (A) (A) (A) (A) (A) (A) (A) (A)
       Virtual   (A) (A) (A) (A) (A) (A) (A) (A) (A) (A) (A) (A)
                 (A) (A) (A) (A) (A) (A) (A) (A) (A) (A) (A) (A)
                 (A) (A) (A) (A) (A) (A) (A) (A) (A) (A) (A) (A)
                 (A) (A) (A) (A) (A) (A) (A) (A) (A) (A) (A) (A)
                 (A) (A) (A) (A) (A) (A) (A) (A) (A) (A) (A) (A)
                 (A) (A) (A) (A) (A) (A) (A) (A) (A) (A) (A) (A)
                 (A) (A) (A) (A) (A) (A) (A) (A) (A) (A) (A) (A)
                 (A) (A) (A) (A) (A) (A) (A) (A) (A) (A) (A) (A)
                 (A) (A) (A) (A) (A) (A) (A) (A) (A) (A) (A) (A)
                 (A) (A) (A) (A) (A) (A) (A) (A) (A) (A) (A) (A)
                 (A) (A) (A) (A) (A) (A) (A) (A) (A) (A) (A) (A)
                 (A) (A) (A) (A) (A) (A) (A) (A) (A) (A) (A) (A)
                 (A) (A) (A) (A) (A) (A) (A) (A) (A) (A) (A) (A)
                 (A) (A) (A) (A) (A) (A) (A) (A) (A) (A) (A) (A)
                 (A) (A) (A) (A) (A) (A) (A) (A) (A) (A) (A) (A)
                 (A) (A) (A) (A) (A) (A) (A) (A)
 The electronic state is 1-A.
 Alpha  occ. eigenvalues --  -19.32122 -19.32117  -1.22545  -1.01197  -0.66147
 Alpha  occ. eigenvalues --   -0.55399  -0.52092  -0.41828  -0.38027
 Alpha virt. eigenvalues --    0.02593   0.03799   0.07164   0.08422   0.09085
 Alpha virt. eigenvalues --    0.10336   0.10739   0.14381   0.17284   0.17678
 Alpha virt. eigenvalues --    0.18371   0.19041   0.20689   0.22767   0.25176
 Alpha virt. eigenvalues --    0.27176   0.30161   0.30949   0.32945   0.34097
 Alpha virt. eigenvalues --    0.34755   0.37078   0.38059   0.38815   0.39883
 Alpha virt. eigenvalues --    0.43213   0.45047   0.46198   0.47896   0.50363
 Alpha virt. eigenvalues --    0.52477   0.57882   0.59409   0.61548   0.64872
 Alpha virt. eigenvalues --    0.68889   0.73978   0.74858   0.75811   0.77701
 Alpha virt. eigenvalues --    0.79596   0.80506   0.86303   0.89283   0.89911
 Alpha virt. eigenvalues --    0.90424   0.93045   0.94209   0.95068   0.98236
 Alpha virt. eigenvalues --    0.99285   1.00567   1.02996   1.08010   1.11058
 Alpha virt. eigenvalues --    1.13734   1.16115   1.19646   1.20830   1.22079
 Alpha virt. eigenvalues --    1.25982   1.29705   1.30792   1.31147   1.33294
 Alpha virt. eigenvalues --    1.33632   1.35057   1.37746   1.38570   1.39492
 Alpha virt. eigenvalues --    1.44950   1.47179   1.50687   1.52513   1.54861
 Alpha virt. eigenvalues --    1.58546   1.63195   1.66027   1.72361   1.76465
 Alpha virt. eigenvalues --    1.81094   1.84456   1.91009   1.96321   2.00193
 Alpha virt. eigenvalues --    2.01913   2.06525   2.12970   2.17667   2.19846
 Alpha virt. eigenvalues --    2.25772   2.26479   2.30318   2.34117   2.35275
 Alpha virt. eigenvalues --    2.46970   2.52179   2.54381   2.58672   2.60644
 Alpha virt. eigenvalues --    2.64664   2.72005   2.77664   2.83528   2.91272
 Alpha virt. eigenvalues --    2.97963   3.06700   3.07974   3.26287   3.30509
 Alpha virt. eigenvalues --    3.39859   3.54892   3.61440   3.65697   3.77811
 Alpha virt. eigenvalues --    3.78703   3.81368   3.82201   3.82763   3.84027
 Alpha virt. eigenvalues --    3.86368   3.89262   3.92377   3.95034   3.95458
 Alpha virt. eigenvalues --    3.97349   4.00153   4.05111   4.08876   4.12209
 Alpha virt. eigenvalues --    4.13842   4.22607   4.24518   4.28834   4.34833
 Alpha virt. eigenvalues --    4.36406   4.48020   4.57257   4.69943   4.91501
 Alpha virt. eigenvalues --    4.95247   4.97632   5.11519   5.13801   5.16919
 Alpha virt. eigenvalues --    5.41398   5.83000   5.99562   6.12088   6.18222
 Alpha virt. eigenvalues --    6.23508   6.30455   6.39779   6.47799   6.60068
 Alpha virt. eigenvalues --    6.73870   6.75360   6.79942   6.82770   6.87450
 Alpha virt. eigenvalues --    6.88271   6.91555   6.94174   6.99604   7.05758
 Alpha virt. eigenvalues --    7.11635   7.22079   7.44800   7.51903   7.78332
 Alpha virt. eigenvalues --    8.07055   8.10656  10.92401  14.10702  14.64586
 Alpha virt. eigenvalues --   14.83787  14.89130  15.10773  29.03376  29.03620
 Alpha virt. eigenvalues --   29.08157  29.14343  29.23452  49.12348 148.32015
 Alpha virt. eigenvalues --  148.40016 148.71789 752.55595
          Condensed to atoms (all electrons):
              1          2          3          4          5
     1  O    8.186287  -0.184493   0.197938   0.009561   0.001606
     2  O   -0.184493   8.229293   0.016916   0.180019  -0.002155
     3  H    0.197938   0.016916   0.570844   0.001956  -0.001823
     4  H    0.009561   0.180019   0.001956   0.581579  -0.004141
     5  Kr   0.001606  -0.002155  -0.001823  -0.004141   0.001228
 Mulliken atomic charges:
              1
     1  O   -0.210899
     2  O   -0.239581
     3  H    0.214169
     4  H    0.231025
     5  Kr   0.005285
 Sum of Mulliken atomic charges =   0.00000
 Mulliken charges with hydrogens summed into heavy atoms:
              1
     1  O    0.003270
     2  O   -0.008555
     5  Kr   0.005285
 Sum of Mulliken charges with hydrogens summed into heavy atoms =   0.00000
          Condensed to fragments (all electrons):
     1      -0.005285
     2       0.005285
 Electronic spatial extent (au):  <R**2>=            318.9867
 Charge=              0.0000 electrons
 Dipole moment (field-independent basis, Debye):
    X=              2.0566    Y=             -0.1446    Z=              1.4764  Tot=              2.5358
 Quadrupole moment (field-independent basis, Debye-Ang):
   XX=            -18.9746   YY=            -10.2270   ZZ=            -11.5771
   XY=              1.5962   XZ=             -2.2851   YZ=             -1.7360
 Traceless Quadrupole moment (field-independent basis, Debye-Ang):
   XX=             -5.3817   YY=              3.3659   ZZ=              2.0158
   XY=              1.5962   XZ=             -2.2851   YZ=             -1.7360
 Octapole moment (field-independent basis, Debye-Ang**2):
  XXX=             89.6754  YYY=             -1.0042  ZZZ=              1.0132  XYY=             22.8085
  XXY=             -4.0428  XXZ=              3.5403  XZZ=             23.0677  YZZ=             -1.7027
  YYZ=              2.1425  XYZ=              3.0293
 Hexadecapole moment (field-independent basis, Debye-Ang**3):
 XXXX=           -338.8529 YYYY=            -44.4811 ZZZZ=            -11.5502 XXXY=              7.0243
 XXXZ=             -5.7225 YYYX=              2.7325 YYYZ=             -2.5499 ZZZX=             -1.9640
 ZZZY=             -1.7922 XXYY=            -59.4775 XXZZ=            -50.0312 YYZZ=             -9.8948
 XXYZ=             -5.4719 YYXZ=             -3.6081 ZZXY=              2.7600
 N-N= 3.663782178739D+01 E-N=-4.317574278050D+02  KE= 1.506838351241D+02
 No NMR shielding tensors so no spin-rotation constants.
 Leave Link  601 at Sun May 10 13:35:32 2020, MaxMem= 1073741824 cpu:       0.8
 (Enter /home/matheus/.gaussian/g09/l122.exe)
 Counterpoise: doing DCBS calculation for fragment   2 NewBq=T
 Leave Link  122 at Sun May 10 13:35:32 2020, MaxMem= 1073741824 cpu:       0.0
 (Enter /home/matheus/.gaussian/g09/l301.exe)
 Basis read from rwf:  (5D, 7F)
 No pseudopotential information found on rwf file.
 There are   197 symmetry adapted basis functions of A   symmetry.
 Integral buffers will be    131072 words long.
 Raffenetti 2 integral format.
 Two-electron integral symmetry is turned on.
   197 basis functions,   415 primitive gaussians,   229 cartesian basis functions
    18 alpha electrons       18 beta electrons
       nuclear repulsion energy         0.0000000000 Hartrees.
 IExCor= 4639 DFT=T Ex+Corr=wB97XD ExCW=0 ScaHFX=  1.000000
 ScaDFX=  1.000000  1.000000  1.000000  1.000000 ScalE2=  1.000000  1.000000
 IRadAn=      5 IRanWt=     -1 IRanGd=            0 ICorTp=0
  HFx wShort=  0.000000 wLong=  0.200000 cFull=  0.222036 cShort=  0.000000 cLong=  0.777964
  DFx wShort=  0.000000 wLong=  0.200000 cFull=  0.000000 cShort=  0.000000 cLong=  1.000000
 NAtoms=    5 NActive=    5 NUniq=    5 SFac= 1.00D+00 NAtFMM=   60 NAOKFM=F Big=F
 R6Disp: Dispersion energy =         0.0000000000 Hartrees.
 Nuclear repulsion after empirical dispersion term =        0.0000000000 Hartrees.
 No density basis found on file   718.
 Leave Link  301 at Sun May 10 13:35:32 2020, MaxMem= 1073741824 cpu:       0.2
 (Enter /home/matheus/.gaussian/g09/l302.exe)
 NPDir=0 NMtPBC=     1 NCelOv=     1 NCel=       1 NClECP=     1 NCelD=      1
         NCelK=      1 NCelE2=     1 NClLst=     1 CellRange=     0.0.
 One-electron integrals computed using PRISM.
 NBasis=   197 RedAO= T  NBF=   197
 NBsUse=   197 1.00D-06 NBFU=   197
 Precomputing XC quadrature grid using
 IXCGrd= 2 IRadAn=           5 IRanWt=          -1 IRanGd=           0 AccXCQ= 0.00D+00.
 NRdTot=     427 NPtTot=      123512 NUsed=      126579 NTot=      126611
 NSgBfM=   229   229   229   229   229 NAtAll=     5     5.
 Leave Link  302 at Sun May 10 13:35:32 2020, MaxMem= 1073741824 cpu:       1.1
 (Enter /home/matheus/.gaussian/g09/l303.exe)
 DipDrv:  MaxL=1.
 Leave Link  303 at Sun May 10 13:35:32 2020, MaxMem= 1073741824 cpu:       0.2
 (Enter /home/matheus/.gaussian/g09/l401.exe)
 Harris functional with IExCor= 4639 diagonalized for initial guess.
 ExpMin= 2.53D-02 ExpMax= 1.17D+07 ExpMxC= 1.33D+04 IAcc=3 IRadAn=         5 AccDes= 0.00D+00
 HarFok:  IExCor= 4639 AccDes= 0.00D+00 IRadAn=         5 IDoV= 1
 ScaDFX=  1.000000  1.000000  1.000000  1.000000
 FoFCou: FMM=F IPFlag=           0 FMFlag=      100000 FMFlg1=           0
         NFxFlg=           0 DoJE=T BraDBF=F KetDBF=T FulRan=T
         Omega=  0.000000  0.000000  1.000000  0.000000  0.000000 ICntrl=     500 IOpCl=  0
         NMat0=    1 NMatS0=    1 NMatT0=    0 NMatD0=    1 NMtDS0=    0 NMtDT0=    0
         I1Cent=           4 NGrid=           0.
 Petite list used in FoFCou.
 Harris En= -2730.20440854667    
 Initial guess orbital symmetries:
       Occupied  (A) (A) (A) (A) (A) (A) (A) (A) (A) (A) (A) (A)
                 (A) (A) (A) (A) (A) (A)
       Virtual   (A) (A) (A) (A) (A) (A) (A) (A) (A) (A) (A) (A)
                 (A) (A) (A) (A) (A) (A) (A) (A) (A) (A) (A) (A)
                 (A) (A) (A) (A) (A) (A) (A) (A) (A) (A) (A) (A)
                 (A) (A) (A) (A) (A) (A) (A) (A) (A) (A) (A) (A)
                 (A) (A) (A) (A) (A) (A) (A) (A) (A) (A) (A) (A)
                 (A) (A) (A) (A) (A) (A) (A) (A) (A) (A) (A) (A)
                 (A) (A) (A) (A) (A) (A) (A) (A) (A) (A) (A) (A)
                 (A) (A) (A) (A) (A) (A) (A) (A) (A) (A) (A) (A)
                 (A) (A) (A) (A) (A) (A) (A) (A) (A) (A) (A) (A)
                 (A) (A) (A) (A) (A) (A) (A) (A) (A) (A) (A) (A)
                 (A) (A) (A) (A) (A) (A) (A) (A) (A) (A) (A) (A)
                 (A) (A) (A) (A) (A) (A) (A) (A) (A) (A) (A) (A)
                 (A) (A) (A) (A) (A) (A) (A) (A) (A) (A) (A) (A)
                 (A) (A) (A) (A) (A) (A) (A) (A) (A) (A) (A) (A)
                 (A) (A) (A) (A) (A) (A) (A) (A) (A) (A) (A)
 The electronic state of the initial guess is 1-A.
 Leave Link  401 at Sun May 10 13:35:33 2020, MaxMem= 1073741824 cpu:       3.8
 (Enter /home/matheus/.gaussian/g09/l502.exe)
 Closed shell SCF:
 Requested convergence on RMS density matrix=1.00D-08 within 128 cycles.
 Requested convergence on MAX density matrix=1.00D-06.
 Requested convergence on             energy=1.00D-06.
 No special actions if energy rises.
 Using DIIS extrapolation, IDIIS=  1040.
 Integral symmetry usage will be decided dynamically.
       126521 words used for storage of precomputed grid.
 IEnd=      305468 IEndB=      305468 NGot=  1073741824 MDV=  1073505667
 LenX=  1073505667 LenY=  1073452785
 Fock matrices will be formed incrementally for  20 cycles.

 Cycle   1  Pass 1  IDiag  1:
 FoFJK:  IHMeth= 1 ICntrl=     0 DoSepK=T KAlg= 1 I1Cent= 0 FoldK=F
 FoFCou: FMM=F IPFlag=           0 FMFlag=      100000 FMFlg1=           0
         NFxFlg=           0 DoJE=T BraDBF=F KetDBF=F FulRan=T
         Omega=  0.000000  0.000000  1.000000  0.000000  0.000000 ICntrl=     500 IOpCl=  0
         NMat0=    1 NMatS0=    1 NMatT0=    0 NMatD0=    1 NMtDS0=    0 NMtDT0=    0
         I1Cent=           0 NGrid=           0.
 Symmetry not used in FoFCou.
 E= -2753.46452538919    
 DIIS: error= 7.30D-02 at cycle   1 NSaved=   1.
 NSaved= 1 IEnMin= 1 EnMin= -2753.46452538919     IErMin= 1 ErrMin= 7.30D-02
 ErrMax= 7.30D-02 EMaxC= 1.00D-01 BMatC= 1.87D+00 BMatP= 1.87D+00
 IDIUse=3 WtCom= 2.70D-01 WtEn= 7.30D-01
 Coeff-Com:  0.100D+01
 Coeff-En:   0.100D+01
 Coeff:      0.100D+01
 Gap=     0.634 Goal=   None    Shift=    0.000
 GapD=    0.634 DampG=2.000 DampE=0.500 DampFc=1.0000 IDamp=-1.
 RMSDP=5.58D-03 MaxDP=3.68D-01              OVMax= 1.78D-01

 Cycle   2  Pass 1  IDiag  1:
 RMSU=  3.88D-03    CP:  1.04D+00
 FoFJK:  IHMeth= 1 ICntrl=     0 DoSepK=T KAlg= 1 I1Cent= 0 FoldK=F
 E= -2753.72405606309     Delta-E=       -0.259530673897 Rises=F Damp=F
 DIIS: error= 3.15D-02 at cycle   2 NSaved=   2.
 NSaved= 2 IEnMin= 2 EnMin= -2753.72405606309     IErMin= 2 ErrMin= 3.15D-02
 ErrMax= 3.15D-02 EMaxC= 1.00D-01 BMatC= 4.76D-01 BMatP= 1.87D+00
 IDIUse=3 WtCom= 6.85D-01 WtEn= 3.15D-01
 Coeff-Com:  0.330D+00 0.670D+00
 Coeff-En:   0.183D+00 0.817D+00
 Coeff:      0.284D+00 0.716D+00
 Gap=     0.474 Goal=   None    Shift=    0.000
 RMSDP=2.52D-03 MaxDP=1.60D-01 DE=-2.60D-01 OVMax= 7.89D-02

 Cycle   3  Pass 1  IDiag  1:
 RMSU=  3.67D-04    CP:  1.03D+00  5.57D-01
 FoFJK:  IHMeth= 1 ICntrl=     0 DoSepK=T KAlg= 1 I1Cent= 0 FoldK=F
 E= -2753.87118924265     Delta-E=       -0.147133179562 Rises=F Damp=F
 DIIS: error= 4.19D-03 at cycle   3 NSaved=   3.
 NSaved= 3 IEnMin= 3 EnMin= -2753.87118924265     IErMin= 3 ErrMin= 4.19D-03
 ErrMax= 4.19D-03 EMaxC= 1.00D-01 BMatC= 9.86D-03 BMatP= 4.76D-01
 IDIUse=3 WtCom= 9.58D-01 WtEn= 4.19D-02
 Coeff-Com: -0.519D-02 0.118D+00 0.888D+00
 Coeff-En:   0.000D+00 0.000D+00 0.100D+01
 Coeff:     -0.497D-02 0.113D+00 0.892D+00
 Gap=     0.502 Goal=   None    Shift=    0.000
 RMSDP=2.92D-04 MaxDP=1.67D-02 DE=-1.47D-01 OVMax= 1.24D-02

 Cycle   4  Pass 1  IDiag  1:
 RMSU=  4.28D-05    CP:  1.03D+00  6.08D-01  9.42D-01
 FoFJK:  IHMeth= 1 ICntrl=     0 DoSepK=T KAlg= 1 I1Cent= 0 FoldK=F
 E= -2753.87435039492     Delta-E=       -0.003161152269 Rises=F Damp=F
 DIIS: error= 2.03D-04 at cycle   4 NSaved=   4.
 NSaved= 4 IEnMin= 4 EnMin= -2753.87435039492     IErMin= 4 ErrMin= 2.03D-04
 ErrMax= 2.03D-04 EMaxC= 1.00D-01 BMatC= 1.72D-05 BMatP= 9.86D-03
 IDIUse=3 WtCom= 9.98D-01 WtEn= 2.03D-03
 Coeff-Com: -0.847D-03-0.148D-01-0.497D-01 0.107D+01
 Coeff-En:   0.000D+00 0.000D+00 0.000D+00 0.100D+01
 Coeff:     -0.845D-03-0.148D-01-0.496D-01 0.107D+01
 Gap=     0.500 Goal=   None    Shift=    0.000
 RMSDP=2.24D-05 MaxDP=8.96D-04 DE=-3.16D-03 OVMax= 7.94D-04

 Cycle   5  Pass 1  IDiag  1:
 RMSU=  1.09D-05    CP:  1.03D+00  6.06D-01  9.61D-01  1.11D+00
 FoFJK:  IHMeth= 1 ICntrl=     0 DoSepK=T KAlg= 1 I1Cent= 0 FoldK=F
 E= -2753.87435917860     Delta-E=       -0.000008783679 Rises=F Damp=F
 DIIS: error= 1.67D-05 at cycle   5 NSaved=   5.
 NSaved= 5 IEnMin= 5 EnMin= -2753.87435917860     IErMin= 5 ErrMin= 1.67D-05
 ErrMax= 1.67D-05 EMaxC= 1.00D-01 BMatC= 3.80D-08 BMatP= 1.72D-05
 IDIUse=1 WtCom= 1.00D+00 WtEn= 0.00D+00
 Coeff-Com:  0.116D-03-0.951D-03-0.962D-02-0.207D-01 0.103D+01
 Coeff:      0.116D-03-0.951D-03-0.962D-02-0.207D-01 0.103D+01
 Gap=     0.500 Goal=   None    Shift=    0.000
 RMSDP=2.43D-06 MaxDP=1.10D-04 DE=-8.78D-06 OVMax= 1.83D-04

 Cycle   6  Pass 1  IDiag  1:
 RMSU=  8.77D-07    CP:  1.03D+00  6.06D-01  9.62D-01  1.13D+00  1.08D+00
 FoFJK:  IHMeth= 1 ICntrl=     0 DoSepK=T KAlg= 1 I1Cent= 0 FoldK=F
 E= -2753.87435929632     Delta-E=       -0.000000117719 Rises=F Damp=F
 DIIS: error= 4.10D-06 at cycle   6 NSaved=   6.
 NSaved= 6 IEnMin= 6 EnMin= -2753.87435929632     IErMin= 6 ErrMin= 4.10D-06
 ErrMax= 4.10D-06 EMaxC= 1.00D-01 BMatC= 3.93D-09 BMatP= 3.80D-08
 IDIUse=1 WtCom= 1.00D+00 WtEn= 0.00D+00
 Coeff-Com:  0.633D-05 0.206D-03 0.370D-03-0.357D-01 0.418D-01 0.993D+00
 Coeff:      0.633D-05 0.206D-03 0.370D-03-0.357D-01 0.418D-01 0.993D+00
 Gap=     0.500 Goal=   None    Shift=    0.000
 RMSDP=6.07D-07 MaxDP=2.64D-05 DE=-1.18D-07 OVMax= 2.80D-05

 Cycle   7  Pass 1  IDiag  1:
 RMSU=  9.48D-08    CP:  1.03D+00  6.06D-01  9.62D-01  1.14D+00  1.11D+00
                    CP:  1.20D+00
 FoFJK:  IHMeth= 1 ICntrl=     0 DoSepK=T KAlg= 1 I1Cent= 0 FoldK=F
 E= -2753.87435930055     Delta-E=       -0.000000004239 Rises=F Damp=F
 DIIS: error= 2.75D-07 at cycle   7 NSaved=   7.
 NSaved= 7 IEnMin= 7 EnMin= -2753.87435930055     IErMin= 7 ErrMin= 2.75D-07
 ErrMax= 2.75D-07 EMaxC= 1.00D-01 BMatC= 3.25D-11 BMatP= 3.93D-09
 IDIUse=1 WtCom= 1.00D+00 WtEn= 0.00D+00
 Coeff-Com:  0.483D-06 0.648D-04 0.211D-03-0.837D-02 0.133D-02 0.225D+00
 Coeff-Com:  0.782D+00
 Coeff:      0.483D-06 0.648D-04 0.211D-03-0.837D-02 0.133D-02 0.225D+00
 Coeff:      0.782D+00
 Gap=     0.500 Goal=   None    Shift=    0.000
 RMSDP=4.18D-08 MaxDP=1.23D-06 DE=-4.24D-09 OVMax= 2.46D-06

 Cycle   8  Pass 1  IDiag  1:
 RMSU=  1.75D-08    CP:  1.03D+00  6.06D-01  9.62D-01  1.14D+00  1.11D+00
                    CP:  1.22D+00  1.06D+00
 FoFJK:  IHMeth= 1 ICntrl=     0 DoSepK=T KAlg= 1 I1Cent= 0 FoldK=F
 E= -2753.87435930059     Delta-E=       -0.000000000034 Rises=F Damp=F
 DIIS: error= 6.60D-08 at cycle   8 NSaved=   8.
 NSaved= 8 IEnMin= 8 EnMin= -2753.87435930059     IErMin= 8 ErrMin= 6.60D-08
 ErrMax= 6.60D-08 EMaxC= 1.00D-01 BMatC= 1.50D-12 BMatP= 3.25D-11
 IDIUse=1 WtCom= 1.00D+00 WtEn= 0.00D+00
 Coeff-Com: -0.140D-06-0.373D-05 0.113D-04 0.156D-02-0.219D-02-0.451D-01
 Coeff-Com:  0.524D-01 0.993D+00
 Coeff:     -0.140D-06-0.373D-05 0.113D-04 0.156D-02-0.219D-02-0.451D-01
 Coeff:      0.524D-01 0.993D+00
 Gap=     0.500 Goal=   None    Shift=    0.000
 RMSDP=1.90D-08 MaxDP=7.00D-07 DE=-3.37D-11 OVMax= 5.30D-07

 Cycle   9  Pass 1  IDiag  1:
 RMSU=  3.23D-09    CP:  1.03D+00  6.06D-01  9.62D-01  1.14D+00  1.11D+00
                    CP:  1.24D+00  1.12D+00  1.13D+00
 FoFJK:  IHMeth= 1 ICntrl=     0 DoSepK=T KAlg= 1 I1Cent= 0 FoldK=F
 E= -2753.87435930060     Delta-E=       -0.000000000014 Rises=F Damp=F
 DIIS: error= 8.93D-09 at cycle   9 NSaved=   9.
 NSaved= 9 IEnMin= 9 EnMin= -2753.87435930060     IErMin= 9 ErrMin= 8.93D-09
 ErrMax= 8.93D-09 EMaxC= 1.00D-01 BMatC= 6.56D-15 BMatP= 1.50D-12
 IDIUse=1 WtCom= 1.00D+00 WtEn= 0.00D+00
 Coeff-Com:  0.106D-07 0.136D-06-0.136D-05-0.134D-03 0.314D-04 0.478D-02
 Coeff-Com: -0.125D-01-0.141D+00 0.115D+01
 Coeff:      0.106D-07 0.136D-06-0.136D-05-0.134D-03 0.314D-04 0.478D-02
 Coeff:     -0.125D-01-0.141D+00 0.115D+01
 Gap=     0.500 Goal=   None    Shift=    0.000
 RMSDP=1.74D-09 MaxDP=7.27D-08 DE=-1.41D-11 OVMax= 9.58D-08

 SCF Done:  E(RwB97XD) =  -2753.87435930     A.U. after    9 cycles
             Convg  =    0.1737D-08             -V/T =  2.0013
 KE= 2.750259231173D+03 PE=-6.580197618405D+03 EE= 1.076064027932D+03
 Leave Link  502 at Sun May 10 13:36:01 2020, MaxMem= 1073741824 cpu:     228.9
 (Enter /home/matheus/.gaussian/g09/l601.exe)
 Copying SCF densities to generalized density rwf, IOpCl= 0 IROHF=0.

 **********************************************************************

            Population analysis using the SCF density.

 **********************************************************************

 Orbital symmetries:
       Occupied  (A) (A) (A) (A) (A) (A) (A) (A) (A) (A) (A) (A)
                 (A) (A) (A) (A) (A) (A)
       Virtual   (A) (A) (A) (A) (A) (A) (A) (A) (A) (A) (A) (A)
                 (A) (A) (A) (A) (A) (A) (A) (A) (A) (A) (A) (A)
                 (A) (A) (A) (A) (A) (A) (A) (A) (A) (A) (A) (A)
                 (A) (A) (A) (A) (A) (A) (A) (A) (A) (A) (A) (A)
                 (A) (A) (A) (A) (A) (A) (A) (A) (A) (A) (A) (A)
                 (A) (A) (A) (A) (A) (A) (A) (A) (A) (A) (A) (A)
                 (A) (A) (A) (A) (A) (A) (A) (A) (A) (A) (A) (A)
                 (A) (A) (A) (A) (A) (A) (A) (A) (A) (A) (A) (A)
                 (A) (A) (A) (A) (A) (A) (A) (A) (A) (A) (A) (A)
                 (A) (A) (A) (A) (A) (A) (A) (A) (A) (A) (A) (A)
                 (A) (A) (A) (A) (A) (A) (A) (A) (A) (A) (A) (A)
                 (A) (A) (A) (A) (A) (A) (A) (A) (A) (A) (A) (A)
                 (A) (A) (A) (A) (A) (A) (A) (A) (A) (A) (A) (A)
                 (A) (A) (A) (A) (A) (A) (A) (A) (A) (A) (A) (A)
                 (A) (A) (A) (A) (A) (A) (A) (A) (A) (A) (A)
 The electronic state is 1-A.
 Alpha  occ. eigenvalues -- -513.05924 -67.32597 -60.87473 -60.87471 -60.87471
 Alpha  occ. eigenvalues --   -9.77891  -7.47187  -7.47186  -7.47185  -3.33929
 Alpha  occ. eigenvalues --   -3.33928  -3.33928  -3.33927  -3.33927  -0.98488
 Alpha  occ. eigenvalues --   -0.46647  -0.46643  -0.46642
 Alpha virt. eigenvalues --    0.03310   0.05253   0.08790   0.09606   0.12434
 Alpha virt. eigenvalues --    0.12709   0.13642   0.13907   0.16340   0.17367
 Alpha virt. eigenvalues --    0.18080   0.19620   0.20790   0.25370   0.26225
 Alpha virt. eigenvalues --    0.26641   0.28768   0.30631   0.32369   0.34475
 Alpha virt. eigenvalues --    0.35714   0.37447   0.38239   0.39613   0.41218
 Alpha virt. eigenvalues --    0.42146   0.43588   0.52006   0.53837   0.57124
 Alpha virt. eigenvalues --    0.58915   0.66349   0.68383   0.68919   0.71671
 Alpha virt. eigenvalues --    0.73111   0.73583   0.75296   0.76506   0.77712
 Alpha virt. eigenvalues --    0.78748   0.80692   0.83399   0.84921   0.87168
 Alpha virt. eigenvalues --    0.87917   0.89445   0.90568   0.91344   0.95360
 Alpha virt. eigenvalues --    0.96352   0.97166   0.98414   0.98990   1.01324
 Alpha virt. eigenvalues --    1.03941   1.06462   1.06977   1.10698   1.12728
 Alpha virt. eigenvalues --    1.16160   1.20442   1.23571   1.26935   1.31233
 Alpha virt. eigenvalues --    1.32121   1.39646   1.42795   1.43607   1.46833
 Alpha virt. eigenvalues --    1.55494   1.56609   1.58159   1.72160   1.76707
 Alpha virt. eigenvalues --    1.82302   1.82702   1.85651   1.96998   2.14638
 Alpha virt. eigenvalues --    2.18638   2.24359   2.27221   2.27515   2.28862
 Alpha virt. eigenvalues --    2.31293   2.32489   2.34260   2.38023   2.40776
 Alpha virt. eigenvalues --    2.41769   2.44869   2.45075   2.47591   2.48366
 Alpha virt. eigenvalues --    2.50846   2.52560   2.55903   2.57855   2.59500
 Alpha virt. eigenvalues --    2.59964   2.62499   2.64589   2.69010   2.72059
 Alpha virt. eigenvalues --    2.74296   2.77510   2.84843   2.87331   2.89843
 Alpha virt. eigenvalues --    2.95388   2.99491   3.06190   3.08351   3.18429
 Alpha virt. eigenvalues --    3.20310   3.30116   3.30856   3.39931   3.45128
 Alpha virt. eigenvalues --    3.61463   3.66392   3.82382   3.87101   4.04019
 Alpha virt. eigenvalues --    4.34706   4.47407   4.54449   4.58582   4.65395
 Alpha virt. eigenvalues --    4.72469   4.86963   4.87930   4.97871   5.06255
 Alpha virt. eigenvalues --    5.10572   5.28306   5.57650   5.67901   5.85378
 Alpha virt. eigenvalues --    5.88759   5.97052   6.15504   6.79678   6.82720
 Alpha virt. eigenvalues --    7.38776   7.49191   7.54926   7.64787   7.74503
 Alpha virt. eigenvalues --    7.80183   7.96625   8.16728   8.18141   8.22469
 Alpha virt. eigenvalues --    8.37585   8.51998   8.57652   8.88509   9.63212
 Alpha virt. eigenvalues --    9.76420   9.84472   9.86781   9.94711   9.99500
 Alpha virt. eigenvalues --   10.16710  10.27102  10.46747  10.96565  11.55502
 Alpha virt. eigenvalues --   11.62725  11.82169  12.04045  12.09782  13.20159
 Alpha virt. eigenvalues --   13.71584  14.52155  62.83659  64.69013
          Condensed to atoms (all electrons):
              1          2          3          4          5
     1  O    0.001067  -0.001459  -0.000427   0.001008  -0.006399
     2  O   -0.001459   0.005845   0.000502  -0.004307  -0.003496
     3  H   -0.000427   0.000502   0.000404  -0.000234  -0.003733
     4  H    0.001008  -0.004307  -0.000234   0.004380  -0.020237
     5  Kr  -0.006399  -0.003496  -0.003733  -0.020237  36.065869
 Mulliken atomic charges:
              1
     1  O    0.006210
     2  O    0.002915
     3  H    0.003488
     4  H    0.019391
     5  Kr  -0.032003
 Sum of Mulliken atomic charges =   0.00000
 Mulliken charges with hydrogens summed into heavy atoms:
              1
     1  O    0.009697
     2  O    0.022306
     5  Kr  -0.032003
 Sum of Mulliken charges with hydrogens summed into heavy atoms =   0.00000
          Condensed to fragments (all electrons):
     1       0.032003
     2      -0.032003
 Electronic spatial extent (au):  <R**2>=            162.1287
 Charge=              0.0000 electrons
 Dipole moment (field-independent basis, Debye):
    X=             -0.0003    Y=              0.0003    Z=              0.0001  Tot=              0.0005
 Quadrupole moment (field-independent basis, Debye-Ang):
   XX=            -17.6245   YY=            -17.6413   ZZ=            -17.6493
   XY=             -0.0028   XZ=             -0.0023   YZ=             -0.0010
 Traceless Quadrupole moment (field-independent basis, Debye-Ang):
   XX=              0.0138   YY=             -0.0029   ZZ=             -0.0109
   XY=             -0.0028   XZ=             -0.0023   YZ=             -0.0010
 Octapole moment (field-independent basis, Debye-Ang**2):
  XXX=            -51.6680  YYY=              0.3391  ZZZ=              0.1348  XYY=            -17.2398
  XXY=              0.1066  XXZ=              0.0412  XZZ=            -17.2446  YZZ=              0.1132
  YYZ=              0.0454  XYZ=             -0.0002
 Hexadecapole moment (field-independent basis, Debye-Ang**3):
 XXXX=           -119.3819 YYYY=            -18.4451 ZZZZ=            -18.4632 XXXY=              0.3204
 XXXZ=              0.1239 YYYX=              0.3214 YYYZ=             -0.0012 ZZZX=              0.1277
 ZZZY=             -0.0010 XXYY=            -22.9854 XXZZ=            -22.9904 YYZZ=             -6.1499
 XXYZ=             -0.0018 YYXZ=              0.0425 ZZXY=              0.1062
 N-N= 0.000000000000D+00 E-N=-6.580197619169D+03  KE= 2.750259231173D+03
 No NMR shielding tensors so no spin-rotation constants.
 Leave Link  601 at Sun May 10 13:36:01 2020, MaxMem= 1073741824 cpu:       0.8
 (Enter /home/matheus/.gaussian/g09/l122.exe)
 Counterpoise: doing MCBS calculation for fragment   1
 Leave Link  122 at Sun May 10 13:36:01 2020, MaxMem= 1073741824 cpu:       0.0
 (Enter /home/matheus/.gaussian/g09/l301.exe)
 Basis read from rwf:  (5D, 7F)
 No pseudopotential information found on rwf file.
 There are   138 symmetry adapted basis functions of A   symmetry.
 Integral buffers will be    131072 words long.
 Raffenetti 2 integral format.
 Two-electron integral symmetry is turned on.
   138 basis functions,   198 primitive gaussians,   160 cartesian basis functions
     9 alpha electrons        9 beta electrons
       nuclear repulsion energy        36.6380791177 Hartrees.
 IExCor= 4639 DFT=T Ex+Corr=wB97XD ExCW=0 ScaHFX=  1.000000
 ScaDFX=  1.000000  1.000000  1.000000  1.000000 ScalE2=  1.000000  1.000000
 IRadAn=      5 IRanWt=     -1 IRanGd=            0 ICorTp=0
  HFx wShort=  0.000000 wLong=  0.200000 cFull=  0.222036 cShort=  0.000000 cLong=  0.777964
  DFx wShort=  0.000000 wLong=  0.200000 cFull=  0.000000 cShort=  0.000000 cLong=  1.000000
 NAtoms=    5 NActive=    4 NUniq=    4 SFac= 1.00D+00 NAtFMM=   60 NAOKFM=F Big=F
 R6Disp: Dispersion energy =        -0.0002573303 Hartrees.
 Nuclear repulsion after empirical dispersion term =       36.6378217874 Hartrees.
 No density basis found on file   718.
 Leave Link  301 at Sun May 10 13:36:01 2020, MaxMem= 1073741824 cpu:       0.2
 (Enter /home/matheus/.gaussian/g09/l302.exe)
 NPDir=0 NMtPBC=     1 NCelOv=     1 NCel=       1 NClECP=     1 NCelD=      1
         NCelK=      1 NCelE2=     1 NClLst=     1 CellRange=     0.0.
 One-electron integrals computed using PRISM.
 NBasis=   138 RedAO= T  NBF=   138
 NBsUse=   138 1.00D-06 NBFU=   138
 Precomputing XC quadrature grid using
 IXCGrd= 2 IRadAn=           5 IRanWt=          -1 IRanGd=           0 AccXCQ= 0.00D+00.
 NRdTot=     344 NPtTot=       92556 NUsed=       95038 NTot=       95070
 NSgBfM=   160   160   160   160   160 NAtAll=     4     4.
 Leave Link  302 at Sun May 10 13:36:02 2020, MaxMem= 1073741824 cpu:       0.7
 (Enter /home/matheus/.gaussian/g09/l303.exe)
 DipDrv:  MaxL=1.
 Leave Link  303 at Sun May 10 13:36:02 2020, MaxMem= 1073741824 cpu:       0.1
 (Enter /home/matheus/.gaussian/g09/l401.exe)
 Harris functional with IExCor= 4639 diagonalized for initial guess.
 ExpMin= 2.53D-02 ExpMax= 1.53D+04 ExpMxC= 5.22D+02 IAcc=3 IRadAn=         5 AccDes= 0.00D+00
 HarFok:  IExCor= 4639 AccDes= 0.00D+00 IRadAn=         5 IDoV= 1
 ScaDFX=  1.000000  1.000000  1.000000  1.000000
 FoFCou: FMM=F IPFlag=           0 FMFlag=      100000 FMFlg1=           0
         NFxFlg=           0 DoJE=T BraDBF=F KetDBF=T FulRan=T
         Omega=  0.000000  0.000000  1.000000  0.000000  0.000000 ICntrl=     500 IOpCl=  0
         NMat0=    1 NMatS0=    1 NMatT0=    0 NMatD0=    1 NMtDS0=    0 NMtDT0=    0
         I1Cent=           4 NGrid=           0.
 Petite list used in FoFCou.
 Harris En= -146.295171070583    
 Initial guess orbital symmetries:
       Occupied  (A) (A) (A) (A) (A) (A) (A) (A) (A)
       Virtual   (A) (A) (A) (A) (A) (A) (A) (A) (A) (A) (A) (A)
                 (A) (A) (A) (A) (A) (A) (A) (A) (A) (A) (A) (A)
                 (A) (A) (A) (A) (A) (A) (A) (A) (A) (A) (A) (A)
                 (A) (A) (A) (A) (A) (A) (A) (A) (A) (A) (A) (A)
                 (A) (A) (A) (A) (A) (A) (A) (A) (A) (A) (A) (A)
                 (A) (A) (A) (A) (A) (A) (A) (A) (A) (A) (A) (A)
                 (A) (A) (A) (A) (A) (A) (A) (A) (A) (A) (A) (A)
                 (A) (A) (A) (A) (A) (A) (A) (A) (A) (A) (A) (A)
                 (A) (A) (A) (A) (A) (A) (A) (A) (A) (A) (A) (A)
                 (A) (A) (A) (A) (A) (A) (A) (A) (A) (A) (A) (A)
                 (A) (A) (A) (A) (A) (A) (A) (A) (A)
 The electronic state of the initial guess is 1-A.
 Leave Link  401 at Sun May 10 13:36:02 2020, MaxMem= 1073741824 cpu:       2.2
 (Enter /home/matheus/.gaussian/g09/l502.exe)
 Closed shell SCF:
 Requested convergence on RMS density matrix=1.00D-08 within 128 cycles.
 Requested convergence on MAX density matrix=1.00D-06.
 Requested convergence on             energy=1.00D-06.
 No special actions if energy rises.
 Using DIIS extrapolation, IDIIS=  1040.
 Integral symmetry usage will be decided dynamically.
        94980 words used for storage of precomputed grid.
 IEnd=      192360 IEndB=      192360 NGot=  1073741824 MDV=  1073591865
 LenX=  1073591865 LenY=  1073565824
 Fock matrices will be formed incrementally for  20 cycles.

 Cycle   1  Pass 1  IDiag  1:
 FoFJK:  IHMeth= 1 ICntrl=     0 DoSepK=T KAlg= 1 I1Cent= 0 FoldK=F
 FoFCou: FMM=F IPFlag=           0 FMFlag=      100000 FMFlg1=           0
         NFxFlg=           0 DoJE=T BraDBF=F KetDBF=F FulRan=T
         Omega=  0.000000  0.000000  1.000000  0.000000  0.000000 ICntrl=     500 IOpCl=  0
         NMat0=    1 NMatS0=    1 NMatT0=    0 NMatD0=    1 NMtDS0=    0 NMtDT0=    0
         I1Cent=           0 NGrid=           0.
 Symmetry not used in FoFCou.
 E= -151.476881654789    
 DIIS: error= 4.19D-02 at cycle   1 NSaved=   1.
 NSaved= 1 IEnMin= 1 EnMin= -151.476881654789     IErMin= 1 ErrMin= 4.19D-02
 ErrMax= 4.19D-02 EMaxC= 1.00D-01 BMatC= 3.00D-01 BMatP= 3.00D-01
 IDIUse=3 WtCom= 5.81D-01 WtEn= 4.19D-01
 Coeff-Com:  0.100D+01
 Coeff-En:   0.100D+01
 Coeff:      0.100D+01
 Gap=     0.519 Goal=   None    Shift=    0.000
 GapD=    0.519 DampG=2.000 DampE=0.500 DampFc=1.0000 IDamp=-1.
 RMSDP=3.43D-03 MaxDP=1.08D-01              OVMax= 1.07D-01

 Cycle   2  Pass 1  IDiag  1:
 RMSU=  2.37D-03    CP:  9.50D-01
 FoFJK:  IHMeth= 1 ICntrl=     0 DoSepK=T KAlg= 1 I1Cent= 0 FoldK=F
 E= -151.508210235876     Delta-E=       -0.031328581087 Rises=F Damp=F
 DIIS: error= 2.29D-02 at cycle   2 NSaved=   2.
 NSaved= 2 IEnMin= 2 EnMin= -151.508210235876     IErMin= 2 ErrMin= 2.29D-02
 ErrMax= 2.29D-02 EMaxC= 1.00D-01 BMatC= 8.94D-02 BMatP= 3.00D-01
 IDIUse=3 WtCom= 7.71D-01 WtEn= 2.29D-01
 Coeff-Com:  0.330D+00 0.670D+00
 Coeff-En:   0.357D+00 0.643D+00
 Coeff:      0.336D+00 0.664D+00
 Gap=     0.465 Goal=   None    Shift=    0.000
 RMSDP=1.44D-03 MaxDP=4.86D-02 DE=-3.13D-02 OVMax= 6.02D-02

 Cycle   3  Pass 1  IDiag  1:
 RMSU=  5.15D-04    CP:  9.72D-01  6.42D-01
 FoFJK:  IHMeth= 1 ICntrl=     0 DoSepK=T KAlg= 1 I1Cent= 0 FoldK=F
 E= -151.555896875318     Delta-E=       -0.047686639441 Rises=F Damp=F
 DIIS: error= 6.44D-03 at cycle   3 NSaved=   3.
 NSaved= 3 IEnMin= 3 EnMin= -151.555896875318     IErMin= 3 ErrMin= 6.44D-03
 ErrMax= 6.44D-03 EMaxC= 1.00D-01 BMatC= 6.92D-03 BMatP= 8.94D-02
 IDIUse=3 WtCom= 9.36D-01 WtEn= 6.44D-02
 Coeff-Com:  0.165D-01 0.228D+00 0.756D+00
 Coeff-En:   0.000D+00 0.000D+00 0.100D+01
 Coeff:      0.155D-01 0.213D+00 0.772D+00
[...]
 Coeff-Com: -0.106D-01 0.101D+01
 Coeff:     -0.106D-01 0.101D+01
 Gap=     0.497 Goal=   None    Shift=    0.000
 RMSDP=1.78D-06 MaxDP=7.52D-05 DE=-5.84D-07 OVMax= 5.21D-05

 Cycle   3  Pass 1  IDiag  1:
 RMSU=  5.45D-07    CP:  1.00D+00  1.09D+00
 FoFJK:  IHMeth= 1 ICntrl=     0 DoSepK=T KAlg= 1 I1Cent= 0 FoldK=F
 E= -2753.87423877211     Delta-E=       -0.000000007710 Rises=F Damp=F
 DIIS: error= 8.16D-07 at cycle   3 NSaved=   3.
 NSaved= 3 IEnMin= 3 EnMin= -2753.87423877211     IErMin= 3 ErrMin= 8.16D-07
 ErrMax= 8.16D-07 EMaxC= 1.00D-01 BMatC= 1.09D-10 BMatP= 4.14D-09
 IDIUse=1 WtCom= 1.00D+00 WtEn= 0.00D+00
 Coeff-Com:  0.519D-05-0.973D-01 0.110D+01
 Coeff:      0.519D-05-0.973D-01 0.110D+01
 Gap=     0.497 Goal=   None    Shift=    0.000
 RMSDP=2.30D-07 MaxDP=1.10D-05 DE=-7.71D-09 OVMax= 1.00D-05

 Cycle   4  Pass 1  IDiag  1:
 RMSU=  5.04D-08    CP:  1.00D+00  1.10D+00  1.22D+00
 FoFJK:  IHMeth= 1 ICntrl=     0 DoSepK=T KAlg= 1 I1Cent= 0 FoldK=F
 E= -2753.87423877231     Delta-E=       -0.000000000202 Rises=F Damp=F
 DIIS: error= 3.91D-07 at cycle   4 NSaved=   4.
 NSaved= 4 IEnMin= 4 EnMin= -2753.87423877231     IErMin= 4 ErrMin= 3.91D-07
 ErrMax= 3.91D-07 EMaxC= 1.00D-01 BMatC= 1.66D-11 BMatP= 1.09D-10
 IDIUse=1 WtCom= 1.00D+00 WtEn= 0.00D+00
 Coeff-Com:  0.217D-03-0.506D-01 0.330D+00 0.721D+00
 Coeff:      0.217D-03-0.506D-01 0.330D+00 0.721D+00
 Gap=     0.497 Goal=   None    Shift=    0.000
 RMSDP=2.31D-08 MaxDP=9.19D-07 DE=-2.02D-10 OVMax= 1.43D-06

 Cycle   5  Pass 1  IDiag  1:
 RMSU=  1.03D-08    CP:  1.00D+00  1.10D+00  1.24D+00  1.05D+00
 FoFJK:  IHMeth= 1 ICntrl=     0 DoSepK=T KAlg= 1 I1Cent= 0 FoldK=F
 E= -2753.87423877233     Delta-E=       -0.000000000019 Rises=F Damp=F
 DIIS: error= 2.82D-08 at cycle   5 NSaved=   5.
 NSaved= 5 IEnMin= 5 EnMin= -2753.87423877233     IErMin= 5 ErrMin= 2.82D-08
 ErrMax= 2.82D-08 EMaxC= 1.00D-01 BMatC= 1.33D-13 BMatP= 1.66D-11
 IDIUse=1 WtCom= 1.00D+00 WtEn= 0.00D+00
 Coeff-Com: -0.105D-04 0.541D-02-0.483D-01-0.395D-01 0.108D+01
 Coeff:     -0.105D-04 0.541D-02-0.483D-01-0.395D-01 0.108D+01
 Gap=     0.497 Goal=   None    Shift=    0.000
 RMSDP=9.24D-09 MaxDP=5.39D-07 DE=-1.86D-11 OVMax= 3.89D-07

 SCF Done:  E(RwB97XD) =  -2753.87423877     A.U. after    5 cycles
             Convg  =    0.9238D-08             -V/T =  2.0013
 KE= 2.750294977734D+03 PE=-6.580235657349D+03 EE= 1.076066440843D+03
 Leave Link  502 at Sun May 10 13:57:15 2020, MaxMem= 1073741824 cpu:      89.9
 (Enter /home/matheus/.gaussian/g09/l122.exe)
 Restoring MOs from calculation   4 to rwf.
 Counterpoise: doing MCBS calculation for fragment   1
 Leave Link  122 at Sun May 10 13:57:15 2020, MaxMem= 1073741824 cpu:       0.0
 (Enter /home/matheus/.gaussian/g09/l301.exe)
 Basis read from rwf:  (5D, 7F)
 No pseudopotential information found on rwf file.
 There are   138 symmetry adapted basis functions of A   symmetry.
 Integral buffers will be    131072 words long.
 Raffenetti 2 integral format.
 Two-electron integral symmetry is turned on.
   138 basis functions,   198 primitive gaussians,   160 cartesian basis functions
     9 alpha electrons        9 beta electrons
       nuclear repulsion energy        36.6380791177 Hartrees.
 IExCor= 4639 DFT=T Ex+Corr=wB97XD ExCW=0 ScaHFX=  1.000000
 ScaDFX=  1.000000  1.000000  1.000000  1.000000 ScalE2=  1.000000  1.000000
 IRadAn=      5 IRanWt=     -1 IRanGd=            0 ICorTp=0
  HFx wShort=  0.000000 wLong=  0.200000 cFull=  0.222036 cShort=  0.000000 cLong=  0.777964
  DFx wShort=  0.000000 wLong=  0.200000 cFull=  0.000000 cShort=  0.000000 cLong=  1.000000
 NAtoms=    5 NActive=    4 NUniq=    4 SFac= 1.00D+00 NAtFMM=   60 NAOKFM=F Big=F
 R6Disp: Dispersion energy =        -0.0002573303 Hartrees.
 Nuclear repulsion after empirical dispersion term =       36.6378217874 Hartrees.
 No density basis found on file   718.
 Leave Link  301 at Sun May 10 13:57:15 2020, MaxMem= 1073741824 cpu:       0.2
 (Enter /home/matheus/.gaussian/g09/l302.exe)
 NPDir=0 NMtPBC=     1 NCelOv=     1 NCel=       1 NClECP=     1 NCelD=      1
         NCelK=      1 NCelE2=     1 NClLst=     1 CellRange=     0.0.
 One-electron integrals computed using PRISM.
 NBasis=   138 RedAO= T  NBF=   138
 NBsUse=   138 1.00D-06 NBFU=   138
 Precomputing XC quadrature grid using
 IXCGrd= 2 IRadAn=           5 IRanWt=          -1 IRanGd=           0 AccXCQ= 0.00D+00.
 NRdTot=     344 NPtTot=       92556 NUsed=       95038 NTot=       95070
 NSgBfM=   160   160   160   160   160 NAtAll=     4     4.
 Leave Link  302 at Sun May 10 13:57:15 2020, MaxMem= 1073741824 cpu:       0.8
 (Enter /home/matheus/.gaussian/g09/l303.exe)
 DipDrv:  MaxL=1.
 Leave Link  303 at Sun May 10 13:57:15 2020, MaxMem= 1073741824 cpu:       0.2
 (Enter /home/matheus/.gaussian/g09/l401.exe)
 Initial guess read from the read-write file.
 Guess basis will be translated and rotated to current coordinates.
 Initial guess orbital symmetries:
       Occupied  (A) (A) (A) (A) (A) (A) (A) (A) (A)
       Virtual   (A) (A) (A) (A) (A) (A) (A) (A) (A) (A) (A) (A)
                 (A) (A) (A) (A) (A) (A) (A) (A) (A) (A) (A) (A)
                 (A) (A) (A) (A) (A) (A) (A) (A) (A) (A) (A) (A)
                 (A) (A) (A) (A) (A) (A) (A) (A) (A) (A) (A) (A)
                 (A) (A) (A) (A) (A) (A) (A) (A) (A) (A) (A) (A)
                 (A) (A) (A) (A) (A) (A) (A) (A) (A) (A) (A) (A)
                 (A) (A) (A) (A) (A) (A) (A) (A) (A) (A) (A) (A)
                 (A) (A) (A) (A) (A) (A) (A) (A) (A) (A) (A) (A)
                 (A) (A) (A) (A) (A) (A) (A) (A) (A) (A) (A) (A)
                 (A) (A) (A) (A) (A) (A) (A) (A) (A) (A) (A) (A)
                 (A) (A) (A) (A) (A) (A) (A) (A) (A)
 The electronic state of the initial guess is 1-A.
 Generating alternative initial guess.
 Harris functional with IExCor= 4639 diagonalized for initial guess.
 ExpMin= 2.53D-02 ExpMax= 1.53D+04 ExpMxC= 5.22D+02 IAcc=3 IRadAn=         5 AccDes= 0.00D+00
 HarFok:  IExCor= 4639 AccDes= 0.00D+00 IRadAn=         5 IDoV= 1
 ScaDFX=  1.000000  1.000000  1.000000  1.000000
 FoFCou: FMM=F IPFlag=           0 FMFlag=      100000 FMFlg1=           0
         NFxFlg=           0 DoJE=T BraDBF=F KetDBF=T FulRan=T
         Omega=  0.000000  0.000000  1.000000  0.000000  0.000000 ICntrl=     500 IOpCl=  0
         NMat0=    1 NMatS0=    1 NMatT0=    0 NMatD0=    1 NMtDS0=    0 NMtDT0=    0
         I1Cent=           4 NGrid=           0.
 Petite list used in FoFCou.
 Harris En= -146.295171068707    
 Leave Link  401 at Sun May 10 13:57:15 2020, MaxMem= 1073741824 cpu:       2.3
 (Enter /home/matheus/.gaussian/g09/l502.exe)
 Closed shell SCF:
 Requested convergence on RMS density matrix=1.00D-08 within 128 cycles.
 Requested convergence on MAX density matrix=1.00D-06.
 Requested convergence on             energy=1.00D-06.
 No special actions if energy rises.
 Using DIIS extrapolation, IDIIS=  1040.
 Integral symmetry usage will be decided dynamically.
        94980 words used for storage of precomputed grid.
 IEnd=      192360 IEndB=      192360 NGot=  1073741824 MDV=  1073591865
 LenX=  1073591865 LenY=  1073565824
 Fock matrices will be formed incrementally for  20 cycles.

 Cycle   1  Pass 1  IDiag  1:
 FoFJK:  IHMeth= 1 ICntrl=     0 DoSepK=T KAlg= 1 I1Cent= 0 FoldK=F
 FoFCou: FMM=F IPFlag=           0 FMFlag=      100000 FMFlg1=           0
         NFxFlg=           0 DoJE=T BraDBF=F KetDBF=F FulRan=T
         Omega=  0.000000  0.000000  1.000000  0.000000  0.000000 ICntrl=     500 IOpCl=  0
         NMat0=    1 NMatS0=    1 NMatT0=    0 NMatD0=    1 NMtDS0=    0 NMtDT0=    0
         I1Cent=           0 NGrid=           0.
 Symmetry not used in FoFCou.
 E= -151.560436558631    
 DIIS: error= 6.62D-06 at cycle   1 NSaved=   1.
 NSaved= 1 IEnMin= 1 EnMin= -151.560436558631     IErMin= 1 ErrMin= 6.62D-06
 ErrMax= 6.62D-06 EMaxC= 1.00D-01 BMatC= 1.32D-08 BMatP= 1.32D-08
 IDIUse=1 WtCom= 1.00D+00 WtEn= 0.00D+00
 Coeff-Com:  0.100D+01
 Coeff:      0.100D+01
 Gap=     0.410 Goal=   None    Shift=    0.000
 RMSDP=7.89D-07 MaxDP=1.84D-05              OVMax= 3.39D-05

 Cycle   2  Pass 1  IDiag  1:
 RMSU=  5.58D-07    CP:  1.00D+00
 FoFJK:  IHMeth= 1 ICntrl=     0 DoSepK=T KAlg= 1 I1Cent= 0 FoldK=F
 E= -151.560436572446     Delta-E=       -0.000000013815 Rises=F Damp=F
 DIIS: error= 1.49D-06 at cycle   2 NSaved=   2.
 NSaved= 2 IEnMin= 2 EnMin= -151.560436572446     IErMin= 2 ErrMin= 1.49D-06
 ErrMax= 1.49D-06 EMaxC= 1.00D-01 BMatC= 4.01D-10 BMatP= 1.32D-08
 IDIUse=1 WtCom= 1.00D+00 WtEn= 0.00D+00
 Coeff-Com: -0.101D+00 0.110D+01
 Coeff:     -0.101D+00 0.110D+01
 Gap=     0.410 Goal=   None    Shift=    0.000
 RMSDP=2.21D-07 MaxDP=6.48D-06 DE=-1.38D-08 OVMax= 1.06D-05

 Cycle   3  Pass 1  IDiag  1:
 RMSU=  8.49D-08    CP:  1.00D+00  1.24D+00
 FoFJK:  IHMeth= 1 ICntrl=     0 DoSepK=T KAlg= 1 I1Cent= 0 FoldK=F
 E= -151.560436573269     Delta-E=       -0.000000000822 Rises=F Damp=F
 DIIS: error= 4.05D-07 at cycle   3 NSaved=   3.
 NSaved= 3 IEnMin= 3 EnMin= -151.560436573269     IErMin= 3 ErrMin= 4.05D-07
 ErrMax= 4.05D-07 EMaxC= 1.00D-01 BMatC= 2.89D-11 BMatP= 4.01D-10
 IDIUse=1 WtCom= 1.00D+00 WtEn= 0.00D+00
 Coeff-Com: -0.199D-01 0.573D-01 0.963D+00
 Coeff:     -0.199D-01 0.573D-01 0.963D+00
 Gap=     0.410 Goal=   None    Shift=    0.000
 RMSDP=6.11D-08 MaxDP=1.44D-06 DE=-8.22D-10 OVMax= 3.46D-06

 Cycle   4  Pass 1  IDiag  1:
 RMSU=  2.31D-08    CP:  1.00D+00  1.28D+00  1.29D+00
 FoFJK:  IHMeth= 1 ICntrl=     0 DoSepK=T KAlg= 1 I1Cent= 0 FoldK=F
 E= -151.560436573322     Delta-E=       -0.000000000054 Rises=F Damp=F
 DIIS: error= 3.55D-07 at cycle   4 NSaved=   4.
 NSaved= 4 IEnMin= 4 EnMin= -151.560436573322     IErMin= 4 ErrMin= 3.55D-07
 ErrMax= 3.55D-07 EMaxC= 1.00D-01 BMatC= 1.74D-11 BMatP= 2.89D-11
 IDIUse=1 WtCom= 1.00D+00 WtEn= 0.00D+00
 Coeff-Com: -0.139D-02-0.642D-01 0.438D+00 0.628D+00
 Coeff:     -0.139D-02-0.642D-01 0.438D+00 0.628D+00
 Gap=     0.410 Goal=   None    Shift=    0.000
 RMSDP=2.27D-08 MaxDP=4.32D-07 DE=-5.38D-11 OVMax= 1.42D-06

 Cycle   5  Pass 1  IDiag  1:
 RMSU=  1.02D-08    CP:  1.00D+00  1.30D+00  1.38D+00  6.92D-01
 FoFJK:  IHMeth= 1 ICntrl=     0 DoSepK=T KAlg= 1 I1Cent= 0 FoldK=F
 E= -151.560436573337     Delta-E=       -0.000000000014 Rises=F Damp=F
 DIIS: error= 1.55D-07 at cycle   5 NSaved=   5.
 NSaved= 5 IEnMin= 5 EnMin= -151.560436573337     IErMin= 5 ErrMin= 1.55D-07
 ErrMax= 1.55D-07 EMaxC= 1.00D-01 BMatC= 3.24D-12 BMatP= 1.74D-11
 IDIUse=1 WtCom= 1.00D+00 WtEn= 0.00D+00
 Coeff-Com:  0.443D-02-0.489D-01-0.477D-01 0.310D+00 0.782D+00
 Coeff:      0.443D-02-0.489D-01-0.477D-01 0.310D+00 0.782D+00
 Gap=     0.410 Goal=   None    Shift=    0.000
 RMSDP=1.26D-08 MaxDP=2.65D-07 DE=-1.44D-11 OVMax= 8.37D-07

 Cycle   6  Pass 1  IDiag  1:
 RMSU=  3.25D-09    CP:  1.00D+00  1.30D+00  1.45D+00  9.19D-01  1.08D+00
 FoFJK:  IHMeth= 1 ICntrl=     0 DoSepK=T KAlg= 1 I1Cent= 0 FoldK=F
 E= -151.560436573341     Delta-E=       -0.000000000004 Rises=F Damp=F
 DIIS: error= 1.80D-08 at cycle   6 NSaved=   6.
 NSaved= 6 IEnMin= 6 EnMin= -151.560436573341     IErMin= 6 ErrMin= 1.80D-08
 ErrMax= 1.80D-08 EMaxC= 1.00D-01 BMatC= 5.84D-14 BMatP= 3.24D-12
 IDIUse=1 WtCom= 1.00D+00 WtEn= 0.00D+00
 Coeff-Com: -0.355D-03 0.961D-02-0.296D-01-0.580D-01-0.377D-01 0.112D+01
 Coeff:     -0.355D-03 0.961D-02-0.296D-01-0.580D-01-0.377D-01 0.112D+01
 Gap=     0.410 Goal=   None    Shift=    0.000
 RMSDP=3.77D-09 MaxDP=8.64D-08 DE=-4.21D-12 OVMax= 3.09D-07

 SCF Done:  E(RwB97XD) =  -151.560436573     A.U. after    6 cycles
             Convg  =    0.3766D-08             -V/T =  2.0058
 KE= 1.506828173585D+02 PE=-4.317550085901D+02 EE= 9.287393287094D+01
 Leave Link  502 at Sun May 10 13:57:21 2020, MaxMem= 1073741824 cpu:      44.2
 (Enter /home/matheus/.gaussian/g09/l122.exe)
 Restoring MOs from calculation   5 to rwf.
 Counterpoise: doing MCBS calculation for fragment   2
 Leave Link  122 at Sun May 10 13:57:21 2020, MaxMem= 1073741824 cpu:       0.0
 (Enter /home/matheus/.gaussian/g09/l301.exe)
 Basis read from rwf:  (5D, 7F)
 No pseudopotential information found on rwf file.
 There are    59 symmetry adapted basis functions of A   symmetry.
 Integral buffers will be    131072 words long.
 Raffenetti 2 integral format.
 Two-electron integral symmetry is turned on.
    59 basis functions,   217 primitive gaussians,    69 cartesian basis functions
    18 alpha electrons       18 beta electrons
       nuclear repulsion energy         0.0000000000 Hartrees.
 IExCor= 4639 DFT=T Ex+Corr=wB97XD ExCW=0 ScaHFX=  1.000000
 ScaDFX=  1.000000  1.000000  1.000000  1.000000 ScalE2=  1.000000  1.000000
 IRadAn=      5 IRanWt=     -1 IRanGd=            0 ICorTp=0
  HFx wShort=  0.000000 wLong=  0.200000 cFull=  0.222036 cShort=  0.000000 cLong=  0.777964
  DFx wShort=  0.000000 wLong=  0.200000 cFull=  0.000000 cShort=  0.000000 cLong=  1.000000
 NAtoms=    5 NActive=    1 NUniq=    1 SFac= 1.00D+00 NAtFMM=   60 NAOKFM=F Big=F
 R6Disp: Dispersion energy =         0.0000000000 Hartrees.
 Nuclear repulsion after empirical dispersion term =        0.0000000000 Hartrees.
 No density basis found on file   718.
 Leave Link  301 at Sun May 10 13:57:21 2020, MaxMem= 1073741824 cpu:       0.2
 (Enter /home/matheus/.gaussian/g09/l302.exe)
 NPDir=0 NMtPBC=     1 NCelOv=     1 NCel=       1 NClECP=     1 NCelD=      1
         NCelK=      1 NCelE2=     1 NClLst=     1 CellRange=     0.0.
 One-electron integrals computed using PRISM.
 NBasis=    59 RedAO= T  NBF=    59
 NBsUse=    59 1.00D-06 NBFU=    59
 Precomputing XC quadrature grid using
 IXCGrd= 2 IRadAn=           5 IRanWt=          -1 IRanGd=           0 AccXCQ= 0.00D+00.
 NRdTot=      81 NPtTot=       30352 NUsed=       30981 NTot=       31013
 NSgBfM=    69    69    69    69    69 NAtAll=     1     1.
 Leave Link  302 at Sun May 10 13:57:21 2020, MaxMem= 1073741824 cpu:       0.6
 (Enter /home/matheus/.gaussian/g09/l303.exe)
 DipDrv:  MaxL=1.
 Leave Link  303 at Sun May 10 13:57:21 2020, MaxMem= 1073741824 cpu:       0.1
 (Enter /home/matheus/.gaussian/g09/l401.exe)
 Initial guess read from the read-write file.
 Guess basis will be translated and rotated to current coordinates.
 Initial guess orbital symmetries:
       Occupied  (A) (A) (A) (A) (A) (A) (A) (A) (A) (A) (A) (A)
                 (A) (A) (A) (A) (A) (A)
       Virtual   (A) (A) (A) (A) (A) (A) (A) (A) (A) (A) (A) (A)
                 (A) (A) (A) (A) (A) (A) (A) (A) (A) (A) (A) (A)
                 (A) (A) (A) (A) (A) (A) (A) (A) (A) (A) (A) (A)
                 (A) (A) (A) (A) (A)
 The electronic state of the initial guess is 1-A.
 Generating alternative initial guess.
 Harris functional with IExCor= 4639 diagonalized for initial guess.
 ExpMin= 4.00D-02 ExpMax= 1.17D+07 ExpMxC= 1.33D+04 IAcc=3 IRadAn=         5 AccDes= 0.00D+00
 HarFok:  IExCor= 4639 AccDes= 0.00D+00 IRadAn=         5 IDoV= 1
 ScaDFX=  1.000000  1.000000  1.000000  1.000000
 FoFCou: FMM=F IPFlag=           0 FMFlag=      100000 FMFlg1=           0
         NFxFlg=           0 DoJE=T BraDBF=F KetDBF=T FulRan=T
         Omega=  0.000000  0.000000  1.000000  0.000000  0.000000 ICntrl=     500 IOpCl=  0
         NMat0=    1 NMatS0=    1 NMatT0=    0 NMatD0=    1 NMtDS0=    0 NMtDT0=    0
         I1Cent=           4 NGrid=           0.
 Petite list used in FoFCou.
 Harris En= -2730.20235208354    
 Leave Link  401 at Sun May 10 13:57:21 2020, MaxMem= 1073741824 cpu:       1.0
 (Enter /home/matheus/.gaussian/g09/l502.exe)
 Closed shell SCF:
 Requested convergence on RMS density matrix=1.00D-08 within 128 cycles.
 Requested convergence on MAX density matrix=1.00D-06.
 Requested convergence on             energy=1.00D-06.
 No special actions if energy rises.
 Using DIIS extrapolation, IDIIS=  1040.
 Integral symmetry usage will be decided dynamically.
        30923 words used for storage of precomputed grid.
 IEnd=       64406 IEndB=       64406 NGot=  1073741824 MDV=  1073698889
 LenX=  1073698889 LenY=  1073693687
 Fock matrices will be formed incrementally for  20 cycles.

 Cycle   1  Pass 1  IDiag  1:
 FoFJK:  IHMeth= 1 ICntrl=     0 DoSepK=T KAlg= 1 I1Cent= 0 FoldK=F
 FoFCou: FMM=F IPFlag=           0 FMFlag=      100000 FMFlg1=           0
         NFxFlg=           0 DoJE=T BraDBF=F KetDBF=F FulRan=T
         Omega=  0.000000  0.000000  1.000000  0.000000  0.000000 ICntrl=     500 IOpCl=  0
         NMat0=    1 NMatS0=    1 NMatT0=    0 NMatD0=    1 NMtDS0=    0 NMtDT0=    0
         I1Cent=           0 NGrid=           0.
 Symmetry not used in FoFCou.
 E= -2753.87421986326    
 DIIS: error= 9.07D-14 at cycle   1 NSaved=   1.
 NSaved= 1 IEnMin= 1 EnMin= -2753.87421986326     IErMin= 1 ErrMin= 9.07D-14
 ErrMax= 9.07D-14 EMaxC= 1.00D-01 BMatC= 9.29D-25 BMatP= 9.29D-25
 IDIUse=1 WtCom= 1.00D+00 WtEn= 0.00D+00
 Coeff-Com:  0.100D+01
 Coeff:      0.100D+01
 Gap=     0.562 Goal=   None    Shift=    0.000
 DSYEVD returned Info=          89 IAlg= 4 N=    59 NDim=    59 NE2=    18198197 trying DSYEV.
 RMSDP=1.26D-14 MaxDP=1.42D-13              OVMax= 2.39D-13

 SCF Done:  E(RwB97XD) =  -2753.87421986     A.U. after    1 cycles
             Convg  =    0.1264D-13             -V/T =  2.0013
 KE= 2.750300381543D+03 PE=-6.580241205809D+03 EE= 1.076066604402D+03
 Leave Link  502 at Sun May 10 13:57:23 2020, MaxMem= 1073741824 cpu:      11.3
 (Enter /home/matheus/.gaussian/g09/l122.exe)
 Restoring MOs from calculation   1 to rwf.
 Counterpoise: corrected energy =   -2905.434992931089
 Counterpoise: BSSE energy =       0.000022333475
 Leave Link  122 at Sun May 10 13:57:23 2020, MaxMem= 1073741824 cpu:       0.0
 (Enter /home/matheus/.gaussian/g09/l108.exe)
 Scan completed.

 Summary of the potential surface scan:
   N      R1          SCF    
 ----  ---------  -----------
    1     3.0000  -2753.87422
    2     3.1000  -2753.87422
    3     3.2000  -2753.87422
    4     3.3000  -2753.87422
    5     3.4000  -2753.87422
    6     3.5000  -2753.87422
    7     3.6000  -2753.87422
    8     3.7000  -2753.87422
    9     3.8000  -2753.87422
   10     3.9000  -2753.87422
   11     4.0000  -2753.87422
   12     4.1000  -2753.87422
   13     4.2000  -2753.87422
   14     4.3000  -2753.87422
   15     4.4000  -2753.87422
   16     4.5000  -2753.87422
   17     4.6000  -2753.87422
   18     4.7000  -2753.87422
   19     4.8000  -2753.87422
   20     4.9000  -2753.87422
   21     5.0000  -2753.87422
 ----  ---------  -----------
  
 Leave Link  108 at Sun May 10 13:57:23 2020, MaxMem= 1073741824 cpu:       0.0
 (Enter /home/matheus/.gaussian/g09/l9999.exe)
 1\1\GINC-REDGIANT\Scan\RwB97XD\Aug-CC-pVTZ\H2Kr1O2\MATHEUS\10-May-2020
 \1\\#p wb97xd/aug-cc-PVTz int=ultrafine counterpoise=2 Scan\\TCC\\0,1\
 O,0,0.,0.,0.725\O,0,0.,0.,-0.725\H,0,-0.8633149634,0.3142209495,1.0235
 104166\H,0,0.,0.9187205947,-1.0235104166\Kr,0,0.,R1,0.\\R1=3.,s,20,0.1
 \\Version=EM64L-G09RevC.01\State=1-A\HF=-2753.8742199,-2753.8742199,-2
 753.8742199,-2753.8742199,-2753.8742199,-2753.8742199,-2753.8742199,-2
 753.8742199,-2753.8742199,-2753.8742199,-2753.8742199,-2753.8742199,-2
 753.8742199,-2753.8742199,-2753.8742199,-2753.8742199,-2753.8742199,-2
 753.8742199,-2753.8742199,-2753.8742199,-2753.8742199\RMSD=9.120e-09,1
 .920e-10,6.363e-11,4.203e-11,2.496e-11,1.569e-11,9.716e-12,6.056e-12,3
 .771e-12,2.347e-12,1.449e-12,9.018e-13,5.691e-13,3.558e-13,2.202e-13,1
 .380e-13,8.424e-14,5.194e-14,3.032e-14,2.325e-14,1.264e-14\PG=C01 [X(H
 2Kr1O2)]\\@


 WE MIGHT AS WELL ATTEMPT TO INTRODUCE A NEW PLANET 
 INTO THE SOLAR SYSTEM, OR TO ANNIHILATE ONE ALREADYIN EXISTENCE, 
 AS TO CREATE OR DESTROY A PARTICLE OF HYDROGEN.
 ALL THE CHANGES WE CAN PRODUCE CONSIST IN SEPARATING PARTICLES
 THAT ARE IN A STATE OF ... COMBINATION, AND JOINING 
 THOSE THAT WERE PREVIOUSLY AT A DISTANCE.

                                    -- JOHN DALTON, 1810
 Job cpu time:  0 days  3 hours  3 minutes 36.0 seconds.
 File lengths (MBytes):  RWF=     33 Int=      0 D2E=      0 Chk=      8 Scr=      1
 Normal termination of Gaussian 09 at Sun May 10 13:57:23 2020.
