 Entering Gaussian System, Link 0=g09
 Input=/home/matheus/.tcc/Inputs/Inputs-wb97xd-default/H2O2-Kr_4.com
 Output=/home/matheus/.tcc/Logs/Logs-wb97xd-default/H2O2-Kr_4.log
 Initial command:
 /home/matheus/.gaussian/g09/l1.exe /home/matheus/.gaussian/g09/scratch/Gau-13115.inp -scrdir=/home/matheus/.gaussian/g09/scratch/
 Entering Link 1 = /home/matheus/.gaussian/g09/l1.exe PID=     13119.
  
 Copyright (c) 1988,1990,1992,1993,1995,1998,2003,2009,2011,
            Gaussian, Inc.  All Rights Reserved.
  
 This is part of the Gaussian(R) 09 program.  It is based on
 the Gaussian(R) 03 system (copyright 2003, Gaussian, Inc.),
 the Gaussian(R) 98 system (copyright 1998, Gaussian, Inc.),
 the Gaussian(R) 94 system (copyright 1995, Gaussian, Inc.),
 the Gaussian 92(TM) system (copyright 1992, Gaussian, Inc.),
 the Gaussian 90(TM) system (copyright 1990, Gaussian, Inc.),
 the Gaussian 88(TM) system (copyright 1988, Gaussian, Inc.),
 the Gaussian 86(TM) system (copyright 1986, Carnegie Mellon
 University), and the Gaussian 82(TM) system (copyright 1983,
 Carnegie Mellon University). Gaussian is a federally registered
 trademark of Gaussian, Inc.
  
 This software contains proprietary and confidential information,
 including trade secrets, belonging to Gaussian, Inc.
  
 This software is provided under written license and may be
 used, copied, transmitted, or stored only in accord with that
 written license.
  
 The following legend is applicable only to US Government
 contracts under FAR:
  
                    RESTRICTED RIGHTS LEGEND
  
 Use, reproduction and disclosure by the US Government is
 subject to restrictions as set forth in subparagraphs (a)
 and (c) of the Commercial Computer Software - Restricted
 Rights clause in FAR 52.227-19.
  
 Gaussian, Inc.
 340 Quinnipiac St., Bldg. 40, Wallingford CT 06492
  
  
 ---------------------------------------------------------------
 Warning -- This program may not be used in any manner that
 competes with the business of Gaussian, Inc. or will provide
 assistance to any competitor of Gaussian, Inc.  The licensee
 of this program is prohibited from giving any competitor of
 Gaussian, Inc. access to this program.  By using this program,
 the user acknowledges that Gaussian, Inc. is engaged in the
 business of creating and licensing software in the field of
 computational chemistry and represents and warrants to the
 licensee that it is not a competitor of Gaussian, Inc. and that
 it will not use this program in any manner prohibited above.
 ---------------------------------------------------------------
  

 Cite this work as:
 Gaussian 09, Revision C.01,
 M. J. Frisch, G. W. Trucks, H. B. Schlegel, G. E. Scuseria, 
 M. A. Robb, J. R. Cheeseman, G. Scalmani, V. Barone, B. Mennucci, 
 G. A. Petersson, H. Nakatsuji, M. Caricato, X. Li, H. P. Hratchian, 
 A. F. Izmaylov, J. Bloino, G. Zheng, J. L. Sonnenberg, M. Hada, 
 M. Ehara, K. Toyota, R. Fukuda, J. Hasegawa, M. Ishida, T. Nakajima, 
 Y. Honda, O. Kitao, H. Nakai, T. Vreven, J. A. Montgomery, Jr., 
 J. E. Peralta, F. Ogliaro, M. Bearpark, J. J. Heyd, E. Brothers, 
 K. N. Kudin, V. N. Staroverov, T. Keith, R. Kobayashi, J. Normand, 
 K. Raghavachari, A. Rendell, J. C. Burant, S. S. Iyengar, J. Tomasi, 
 M. Cossi, N. Rega, J. M. Millam, M. Klene, J. E. Knox, J. B. Cross, 
 V. Bakken, C. Adamo, J. Jaramillo, R. Gomperts, R. E. Stratmann, 
 O. Yazyev, A. J. Austin, R. Cammi, C. Pomelli, J. W. Ochterski, 
 R. L. Martin, K. Morokuma, V. G. Zakrzewski, G. A. Voth, 
 P. Salvador, J. J. Dannenberg, S. Dapprich, A. D. Daniels, 
 O. Farkas, J. B. Foresman, J. V. Ortiz, J. Cioslowski, 
 and D. J. Fox, Gaussian, Inc., Wallingford CT, 2010.
 
 ******************************************
 Gaussian 09:  EM64L-G09RevC.01 23-Sep-2011
                 9-May-2020 
 ******************************************
 %mem=8GB
 %nproc=8
 Will use up to    8 processors via shared memory.
 -------------------------------------------------------
 #p wb97xd/aug-cc-PVTz int=ultrafine counterpoise=2 Scan
 -------------------------------------------------------
 1/38=1,60=1,62=2/1,8;
 2/12=2,17=6,18=5,29=3,40=1/2;
 1/38=1,53=5172,62=2/22;
 3/5=16,6=1,7=10,11=2,16=1,25=1,30=1,74=-58,75=-5/1,2,3;
 4//1;
 5/5=2,38=5/2;
 6/7=2,8=2,9=2,10=2,18=1,28=1/1;
 1/53=4052,62=2,63=1/22;
 3/5=7,6=11,7=10,11=2,16=1,25=1,30=1,74=-58,75=-5,82=7/1,2,3;
 4//1;
 5/5=2,38=5/2;
 6/7=2,8=2,9=2,10=2,18=1,28=1/1;
 1/53=3042,62=2,63=2/22;
 3/5=7,6=11,7=10,11=2,16=1,25=1,30=1,74=-58,75=-5,82=7/1,2,3;
 4//1;
 5/5=2,38=5/2;
 6/7=2,8=2,9=2,10=2,18=1,28=1/1;
 1/53=2032,62=2,63=3/22;
 3/5=7,6=11,7=10,11=2,16=1,25=1,30=1,74=-58,75=-5,82=7/1,2,3;
 4//1;
 5/5=2,38=5/2;
 6/7=2,8=2,9=2,10=2,18=1,28=1/1;
 1/53=1022,62=2,63=4/22;
 3/5=7,6=11,7=10,11=2,16=1,25=1,30=1,74=-58,75=-5,82=7/1,2,3;
 4//1;
 5/5=2,38=5/2;
 6/7=2,8=2,9=2,10=2,18=1,28=1/1;
 1/53=5014,62=2,63=5/22;
 1/60=1,62=2/8(1);
 99/9=1/99;
 2/29=3/2;
 1/53=5173,62=2/22;
 3/5=7,6=11,7=10,11=2,16=1,25=1,30=1,74=-58,75=-5,82=7/1,2,3;
 4/5=5,16=3/1;
 5/5=2,38=5/2;
 1/53=4053,62=2,63=1/22;
 3/5=7,6=11,7=10,11=2,16=1,25=1,30=1,74=-58,75=-5,82=7/1,2,3;
 4/5=5,16=3/1;
 5/5=2,38=5/2;
 1/53=3043,62=2,63=2/22;
 3/5=7,6=11,7=10,11=2,16=1,25=1,30=1,74=-58,75=-5,82=7/1,2,3;
 4/5=5,16=3/1;
 5/5=2,38=5/2;
 1/53=2033,62=2,63=3/22;
 3/5=7,6=11,7=10,11=2,16=1,25=1,30=1,74=-58,75=-5,82=7/1,2,3;
 4/5=5,16=3/1;
 5/5=2,38=5/2;
 1/53=1024,62=2,63=4/22;
 3/5=7,6=11,7=10,11=2,16=1,25=1,30=1,74=-58,75=-5,82=7/1,2,3;
 4/5=5,16=3/1;
 5/5=2,38=5/2;
 1/53=5014,62=2,63=5/22;
 1/60=1,62=2/8(-22);
 99/9=1/99;
 Leave Link    1 at Sat May  9 16:56:32 2020, MaxMem= 1073741824 cpu:       0.1
 (Enter /home/matheus/.gaussian/g09/l101.exe)
 ---
 TCC
 ---
 Charge =  0 Multiplicity = 1 in supermolecule
 Charge =  0 Multiplicity = 1 in fragment  1.
 Charge =  0 Multiplicity = 1 in fragment  2.
 Symbolic Z-Matrix:
 O(Fragment=1)         0.        0.        0.725 
 O(Fragment=1)         0.        0.       -0.725 
 H(Fragment=1)         0.59054   0.70378   1.02351 
 H(Fragment=1)         0.        0.91872  -1.02351 
 Kr(Fragment=2)        0.       R1        0. 
       Variables:
  R1                    3.     Scan 20    0.1    
 
 NAtoms=      5 NQM=        0 NQMF=       0 NMMI=      5 NMMIF=      0
                NMic=       0 NMicF=      0.
                    Isotopes and Nuclear Properties:
 (Nuclear quadrupole moments (NQMom) in fm**2, nuclear magnetic moments (NMagM)
  in nuclear magnetons)

  Atom         1           2           3           4           5
 IAtWgt=          16          16           1           1          84
 AtmWgt=  15.9949146  15.9949146   1.0078250   1.0078250  83.9115064
 NucSpn=           0           0           1           1           0
 AtZEff=   0.0000000   0.0000000   0.0000000   0.0000000   0.0000000
 NQMom=    0.0000000   0.0000000   0.0000000   0.0000000   0.0000000
 NMagM=    0.0000000   0.0000000   2.7928460   2.7928460   0.0000000
 Leave Link  101 at Sat May  9 16:56:32 2020, MaxMem= 1073741824 cpu:       0.3
 (Enter /home/matheus/.gaussian/g09/l108.exe)
 Scan the potential surface.
 Variable   Value     No. Steps Step-Size
 -------- ----------- --------- ---------
     1       3.000000      20      0.1000
 A total of     21 points will be computed.
 Leave Link  108 at Sat May  9 16:56:32 2020, MaxMem= 1073741824 cpu:       0.0
 (Enter /home/matheus/.gaussian/g09/l202.exe)
 ---------------------------------------------------------------------------------------------------
                            Z-MATRIX (ANGSTROMS AND DEGREES)
   CD    Cent   Atom    N1       Length/X        N2       Alpha/Y        N3        Beta/Z          J
 ---------------------------------------------------------------------------------------------------
      1      1  O        0   0.000000          0.000000          0.725000
      2      2  O        0   0.000000          0.000000         -0.725000
      3      3  H        0   0.590542          0.703781          1.023510
      4      4  H        0   0.000000          0.918721         -1.023510
      5      5  Kr       0   0.000000          3.000000          0.000000
 ---------------------------------------------------------------------------------------------------
                         Z-Matrix orientation:                         
 ---------------------------------------------------------------------
 Center     Atomic      Atomic             Coordinates (Angstroms)
 Number     Number       Type             X           Y           Z
 ---------------------------------------------------------------------
      1          8           0        0.000000    0.000000    0.725000
      2          8           0        0.000000    0.000000   -0.725000
      3          1           0        0.590542    0.703781    1.023510
      4          1           0        0.000000    0.918721   -1.023510
      5         36           0        0.000000    3.000000    0.000000
 ---------------------------------------------------------------------
                    Distance matrix (angstroms):
                    1          2          3          4          5
     1  O    0.000000
     2  O    1.450000   0.000000
     3  H    0.966000   1.975180   0.000000
     4  H    1.975180   0.966000   2.141316   0.000000
     5  Kr   3.086361   3.086361   2.582428   2.319331   0.000000
 Stoichiometry    H2KrO2
 Framework group  C1[X(H2KrO2)]
 Deg. of freedom     9
 Full point group                 C1      NOp   1
 Largest Abelian subgroup         C1      NOp   1
 Largest concise Abelian subgroup C1      NOp   1
                         Standard orientation:                         
 ---------------------------------------------------------------------
 Center     Atomic      Atomic             Coordinates (Angstroms)
 Number     Number       Type             X           Y           Z
 ---------------------------------------------------------------------
      1          8           0        2.031661   -0.717244   -0.068894
      2          8           0        2.028133    0.730229    0.016606
      3          1           0        1.333152   -1.052071    0.508282
      4          1           0        1.108715    1.025573    0.041099
      5         36           0       -0.970006   -0.002150   -0.003641
 ---------------------------------------------------------------------
 Rotational constants (GHZ):     26.2249700      2.3786625      2.1869902
 Leave Link  202 at Sat May  9 16:56:32 2020, MaxMem= 1073741824 cpu:       0.0
 (Enter /home/matheus/.gaussian/g09/l122.exe)
 Leave Link  122 at Sat May  9 16:56:32 2020, MaxMem= 1073741824 cpu:       0.0
 (Enter /home/matheus/.gaussian/g09/l301.exe)
 Standard basis: Aug-CC-pVTZ (5D, 7F)
 Ernie: Thresh=  0.10000D-02 Tol=  0.10000D-05 Strict=F.
 Ernie:  38 primitive shells out of 205 were deleted.
 There are   197 symmetry adapted basis functions of A   symmetry.
 Integral buffers will be    131072 words long.
 Raffenetti 2 integral format.
 Two-electron integral symmetry is turned on.
   197 basis functions,   415 primitive gaussians,   229 cartesian basis functions
    27 alpha electrons       27 beta electrons
       nuclear repulsion energy       151.0050746500 Hartrees.
 IExCor= 4639 DFT=T Ex+Corr=wB97XD ExCW=0 ScaHFX=  1.000000
 ScaDFX=  1.000000  1.000000  1.000000  1.000000 ScalE2=  1.000000  1.000000
 IRadAn=      5 IRanWt=     -1 IRanGd=            0 ICorTp=0
  HFx wShort=  0.000000 wLong=  0.200000 cFull=  0.222036 cShort=  0.000000 cLong=  0.777964
  DFx wShort=  0.000000 wLong=  0.200000 cFull=  0.000000 cShort=  0.000000 cLong=  1.000000
 NAtoms=    5 NActive=    5 NUniq=    5 SFac= 1.00D+00 NAtFMM=   60 NAOKFM=F Big=F
 R6Disp: Dispersion energy =        -0.0008317333 Hartrees.
 Nuclear repulsion after empirical dispersion term =      151.0042429167 Hartrees.
 Leave Link  301 at Sat May  9 16:56:32 2020, MaxMem= 1073741824 cpu:       0.2
 (Enter /home/matheus/.gaussian/g09/l302.exe)
 NPDir=0 NMtPBC=     1 NCelOv=     1 NCel=       1 NClECP=     1 NCelD=      1
         NCelK=      1 NCelE2=     1 NClLst=     1 CellRange=     0.0.
 One-electron integrals computed using PRISM.
 NBasis=   197 RedAO= T  NBF=   197
 NBsUse=   197 1.00D-06 NBFU=   197
 Precomputing XC quadrature grid using
 IXCGrd= 2 IRadAn=           5 IRanWt=          -1 IRanGd=           0 AccXCQ= 0.00D+00.
 NRdTot=     427 NPtTot=      123512 NUsed=      126579 NTot=      126611
 NSgBfM=   229   229   229   229   229 NAtAll=     5     5.
 Leave Link  302 at Sat May  9 16:56:32 2020, MaxMem= 1073741824 cpu:       1.0
 (Enter /home/matheus/.gaussian/g09/l303.exe)
 DipDrv:  MaxL=1.
 Leave Link  303 at Sat May  9 16:56:32 2020, MaxMem= 1073741824 cpu:       0.2
 (Enter /home/matheus/.gaussian/g09/l401.exe)
 Harris functional with IExCor= 4639 diagonalized for initial guess.
 ExpMin= 2.53D-02 ExpMax= 1.17D+07 ExpMxC= 1.33D+04 IAcc=3 IRadAn=         5 AccDes= 0.00D+00
 HarFok:  IExCor= 4639 AccDes= 0.00D+00 IRadAn=         5 IDoV= 1
 ScaDFX=  1.000000  1.000000  1.000000  1.000000
 FoFCou: FMM=F IPFlag=           0 FMFlag=      100000 FMFlg1=           0
         NFxFlg=           0 DoJE=T BraDBF=F KetDBF=T FulRan=T
         Omega=  0.000000  0.000000  1.000000  0.000000  0.000000 ICntrl=     500 IOpCl=  0
         NMat0=    1 NMatS0=    1 NMatT0=    0 NMatD0=    1 NMtDS0=    0 NMtDT0=    0
         I1Cent=           4 NGrid=           0.
 Petite list used in FoFCou.
 Harris En= -2876.48402811259    
 Initial guess orbital symmetries:
       Occupied  (A) (A) (A) (A) (A) (A) (A) (A) (A) (A) (A) (A)
                 (A) (A) (A) (A) (A) (A) (A) (A) (A) (A) (A) (A)
                 (A) (A) (A)
       Virtual   (A) (A) (A) (A) (A) (A) (A) (A) (A) (A) (A) (A)
                 (A) (A) (A) (A) (A) (A) (A) (A) (A) (A) (A) (A)
                 (A) (A) (A) (A) (A) (A) (A) (A) (A) (A) (A) (A)
                 (A) (A) (A) (A) (A) (A) (A) (A) (A) (A) (A) (A)
                 (A) (A) (A) (A) (A) (A) (A) (A) (A) (A) (A) (A)
                 (A) (A) (A) (A) (A) (A) (A) (A) (A) (A) (A) (A)
                 (A) (A) (A) (A) (A) (A) (A) (A) (A) (A) (A) (A)
                 (A) (A) (A) (A) (A) (A) (A) (A) (A) (A) (A) (A)
                 (A) (A) (A) (A) (A) (A) (A) (A) (A) (A) (A) (A)
                 (A) (A) (A) (A) (A) (A) (A) (A) (A) (A) (A) (A)
                 (A) (A) (A) (A) (A) (A) (A) (A) (A) (A) (A) (A)
                 (A) (A) (A) (A) (A) (A) (A) (A) (A) (A) (A) (A)
                 (A) (A) (A) (A) (A) (A) (A) (A) (A) (A) (A) (A)
                 (A) (A) (A) (A) (A) (A) (A) (A) (A) (A) (A) (A)
                 (A) (A)
 The electronic state of the initial guess is 1-A.
 Leave Link  401 at Sat May  9 16:56:32 2020, MaxMem= 1073741824 cpu:       4.2
 (Enter /home/matheus/.gaussian/g09/l502.exe)
 Closed shell SCF:
 Requested convergence on RMS density matrix=1.00D-08 within 128 cycles.
 Requested convergence on MAX density matrix=1.00D-06.
 Requested convergence on             energy=1.00D-06.
 No special actions if energy rises.
 Using DIIS extrapolation, IDIIS=  1040.
 Integral symmetry usage will be decided dynamically.
       126521 words used for storage of precomputed grid.
 IEnd=      305468 IEndB=      305468 NGot=  1073741824 MDV=  1073505667
 LenX=  1073505667 LenY=  1073452785
 Fock matrices will be formed incrementally for  20 cycles.

 Cycle   1  Pass 1  IDiag  1:
 FoFJK:  IHMeth= 1 ICntrl=     0 DoSepK=T KAlg= 1 I1Cent= 0 FoldK=F
 FoFCou: FMM=F IPFlag=           0 FMFlag=      100000 FMFlg1=           0
         NFxFlg=           0 DoJE=T BraDBF=F KetDBF=F FulRan=T
         Omega=  0.000000  0.000000  1.000000  0.000000  0.000000 ICntrl=     500 IOpCl=  0
         NMat0=    1 NMatS0=    1 NMatT0=    0 NMatD0=    1 NMtDS0=    0 NMtDT0=    0
         I1Cent=           0 NGrid=           0.
 Symmetry not used in FoFCou.
 E= -2904.92779664494    
 DIIS: error= 7.67D-02 at cycle   1 NSaved=   1.
 NSaved= 1 IEnMin= 1 EnMin= -2904.92779664494     IErMin= 1 ErrMin= 7.67D-02
 ErrMax= 7.67D-02 EMaxC= 1.00D-01 BMatC= 2.19D+00 BMatP= 2.19D+00
 IDIUse=3 WtCom= 2.33D-01 WtEn= 7.67D-01
 Coeff-Com:  0.100D+01
 Coeff-En:   0.100D+01
 Coeff:      0.100D+01
 Gap=     0.497 Goal=   None    Shift=    0.000
 GapD=    0.497 DampG=2.000 DampE=0.500 DampFc=1.0000 IDamp=-1.
 RMSDP=6.24D-03 MaxDP=3.75D-01              OVMax= 1.82D-01

 Cycle   2  Pass 1  IDiag  1:
 RMSU=  4.39D-03    CP:  1.03D+00
 FoFJK:  IHMeth= 1 ICntrl=     0 DoSepK=T KAlg= 1 I1Cent= 0 FoldK=F
 E= -2905.22698948101     Delta-E=       -0.299192836072 Rises=F Damp=F
 DIIS: error= 3.12D-02 at cycle   2 NSaved=   2.
 NSaved= 2 IEnMin= 2 EnMin= -2905.22698948101     IErMin= 2 ErrMin= 3.12D-02
 ErrMax= 3.12D-02 EMaxC= 1.00D-01 BMatC= 5.63D-01 BMatP= 2.19D+00
 IDIUse=3 WtCom= 6.88D-01 WtEn= 3.12D-01
 Coeff-Com:  0.329D+00 0.671D+00
 Coeff-En:   0.209D+00 0.791D+00
 Coeff:      0.292D+00 0.708D+00
 Gap=     0.446 Goal=   None    Shift=    0.000
 RMSDP=2.74D-03 MaxDP=1.61D-01 DE=-2.99D-01 OVMax= 7.56D-02

 Cycle   3  Pass 1  IDiag  1:
 RMSU=  5.55D-04    CP:  1.02D+00  5.80D-01
 FoFJK:  IHMeth= 1 ICntrl=     0 DoSepK=T KAlg= 1 I1Cent= 0 FoldK=F
 E= -2905.41691798812     Delta-E=       -0.189928507116 Rises=F Damp=F
 DIIS: error= 4.88D-03 at cycle   3 NSaved=   3.
 NSaved= 3 IEnMin= 3 EnMin= -2905.41691798812     IErMin= 3 ErrMin= 4.88D-03
 ErrMax= 4.88D-03 EMaxC= 1.00D-01 BMatC= 1.82D-02 BMatP= 5.63D-01
 IDIUse=3 WtCom= 9.51D-01 WtEn= 4.88D-02
 Coeff-Com:  0.332D-01 0.187D+00 0.780D+00
 Coeff-En:   0.000D+00 0.000D+00 0.100D+01
 Coeff:      0.316D-01 0.178D+00 0.790D+00
 Gap=     0.409 Goal=   None    Shift=    0.000
 RMSDP=5.05D-04 MaxDP=1.93D-02 DE=-1.90D-01 OVMax= 2.54D-02

 Cycle   4  Pass 1  IDiag  1:
 RMSU=  2.41D-04    CP:  1.02D+00  6.39D-01  9.06D-01
 FoFJK:  IHMeth= 1 ICntrl=     0 DoSepK=T KAlg= 1 I1Cent= 0 FoldK=F
 E= -2905.42491828522     Delta-E=       -0.008000297100 Rises=F Damp=F
 DIIS: error= 2.16D-03 at cycle   4 NSaved=   4.
 NSaved= 4 IEnMin= 4 EnMin= -2905.42491828522     IErMin= 4 ErrMin= 2.16D-03
 ErrMax= 2.16D-03 EMaxC= 1.00D-01 BMatC= 1.94D-03 BMatP= 1.82D-02
 IDIUse=3 WtCom= 9.78D-01 WtEn= 2.16D-02
 Coeff-Com: -0.126D-02 0.536D-01 0.384D+00 0.564D+00
 Coeff-En:   0.000D+00 0.000D+00 0.000D+00 0.100D+01
 Coeff:     -0.124D-02 0.525D-01 0.375D+00 0.573D+00
 Gap=     0.393 Goal=   None    Shift=    0.000
 RMSDP=1.36D-04 MaxDP=7.05D-03 DE=-8.00D-03 OVMax= 7.34D-03

 Cycle   5  Pass 1  IDiag  1:
 RMSU=  3.77D-05    CP:  1.02D+00  6.35D-01  9.35D-01  6.48D-01
 FoFJK:  IHMeth= 1 ICntrl=     0 DoSepK=T KAlg= 1 I1Cent= 0 FoldK=F
 E= -2905.42612017919     Delta-E=       -0.001201893969 Rises=F Damp=F
 DIIS: error= 1.65D-04 at cycle   5 NSaved=   5.
 NSaved= 5 IEnMin= 5 EnMin= -2905.42612017919     IErMin= 5 ErrMin= 1.65D-04
 ErrMax= 1.65D-04 EMaxC= 1.00D-01 BMatC= 1.11D-05 BMatP= 1.94D-03
 IDIUse=3 WtCom= 9.98D-01 WtEn= 1.65D-03
 Coeff-Com: -0.893D-03 0.581D-02 0.586D-01 0.104D+00 0.833D+00
 Coeff-En:   0.000D+00 0.000D+00 0.000D+00 0.000D+00 0.100D+01
 Coeff:     -0.891D-03 0.580D-02 0.585D-01 0.103D+00 0.833D+00
 Gap=     0.393 Goal=   None    Shift=    0.000
 RMSDP=1.92D-05 MaxDP=8.01D-04 DE=-1.20D-03 OVMax= 1.07D-03

 Cycle   6  Pass 1  IDiag  1:
 RMSU=  1.15D-05    CP:  1.02D+00  6.35D-01  9.43D-01  6.58D-01  1.13D+00
 FoFJK:  IHMeth= 1 ICntrl=     0 DoSepK=T KAlg= 1 I1Cent= 0 FoldK=F
 E= -2905.42612430988     Delta-E=       -0.000004130685 Rises=F Damp=F
 DIIS: error= 1.59D-04 at cycle   6 NSaved=   6.
 NSaved= 6 IEnMin= 6 EnMin= -2905.42612430988     IErMin= 6 ErrMin= 1.59D-04
 ErrMax= 1.59D-04 EMaxC= 1.00D-01 BMatC= 8.58D-06 BMatP= 1.11D-05
 IDIUse=3 WtCom= 9.98D-01 WtEn= 1.59D-03
 Coeff-Com: -0.366D-03-0.462D-02-0.216D-01-0.238D-01 0.496D+00 0.555D+00
 Coeff-En:   0.000D+00 0.000D+00 0.000D+00 0.000D+00 0.321D+00 0.679D+00
 Coeff:     -0.366D-03-0.462D-02-0.216D-01-0.238D-01 0.496D+00 0.555D+00
 Gap=     0.393 Goal=   None    Shift=    0.000
 RMSDP=9.20D-06 MaxDP=3.79D-04 DE=-4.13D-06 OVMax= 6.47D-04

 Cycle   7  Pass 1  IDiag  1:
 RMSU=  3.85D-06    CP:  1.02D+00  6.35D-01  9.47D-01  6.60D-01  1.23D+00
                    CP:  7.26D-01
 FoFJK:  IHMeth= 1 ICntrl=     0 DoSepK=T KAlg= 1 I1Cent= 0 FoldK=F
 E= -2905.42613005283     Delta-E=       -0.000005742954 Rises=F Damp=F
 DIIS: error= 2.08D-05 at cycle   7 NSaved=   7.
 NSaved= 7 IEnMin= 7 EnMin= -2905.42613005283     IErMin= 7 ErrMin= 2.08D-05
 ErrMax= 2.08D-05 EMaxC= 1.00D-01 BMatC= 1.33D-07 BMatP= 8.58D-06
 IDIUse=1 WtCom= 1.00D+00 WtEn= 0.00D+00
 Coeff-Com: -0.771D-05-0.149D-02-0.958D-02-0.133D-01 0.297D-01 0.123D+00
 Coeff-Com:  0.871D+00
 Coeff:     -0.771D-05-0.149D-02-0.958D-02-0.133D-01 0.297D-01 0.123D+00
 Coeff:      0.871D+00
 Gap=     0.393 Goal=   None    Shift=    0.000
 RMSDP=2.34D-06 MaxDP=5.82D-05 DE=-5.74D-06 OVMax= 1.64D-04

 Cycle   8  Pass 1  IDiag  1:
 RMSU=  9.17D-07    CP:  1.02D+00  6.35D-01  9.47D-01  6.61D-01  1.25D+00
                    CP:  7.98D-01  1.13D+00
 FoFJK:  IHMeth= 1 ICntrl=     0 DoSepK=T KAlg= 1 I1Cent= 0 FoldK=F
 E= -2905.42613022057     Delta-E=       -0.000000167736 Rises=F Damp=F
 DIIS: error= 4.46D-06 at cycle   8 NSaved=   8.
 NSaved= 8 IEnMin= 8 EnMin= -2905.42613022057     IErMin= 8 ErrMin= 4.46D-06
 ErrMax= 4.46D-06 EMaxC= 1.00D-01 BMatC= 4.94D-09 BMatP= 1.33D-07
 IDIUse=1 WtCom= 1.00D+00 WtEn= 0.00D+00
 Coeff-Com:  0.207D-04 0.106D-03 0.237D-03-0.159D-03-0.277D-01-0.217D-01
 Coeff-Com:  0.660D-01 0.983D+00
 Coeff:      0.207D-04 0.106D-03 0.237D-03-0.159D-03-0.277D-01-0.217D-01
 Coeff:      0.660D-01 0.983D+00
 Gap=     0.393 Goal=   None    Shift=    0.000
 RMSDP=7.91D-07 MaxDP=1.76D-05 DE=-1.68D-07 OVMax= 6.52D-05

 Cycle   9  Pass 1  IDiag  1:
 RMSU=  2.50D-07    CP:  1.02D+00  6.35D-01  9.47D-01  6.60D-01  1.26D+00
                    CP:  8.10D-01  1.21D+00  1.30D+00
 FoFJK:  IHMeth= 1 ICntrl=     0 DoSepK=T KAlg= 1 I1Cent= 0 FoldK=F
 E= -2905.42613023235     Delta-E=       -0.000000011780 Rises=F Damp=F
 DIIS: error= 1.51D-06 at cycle   9 NSaved=   9.
 NSaved= 9 IEnMin= 9 EnMin= -2905.42613023235     IErMin= 9 ErrMin= 1.51D-06
 ErrMax= 1.51D-06 EMaxC= 1.00D-01 BMatC= 4.18D-10 BMatP= 4.94D-09
 IDIUse=1 WtCom= 1.00D+00 WtEn= 0.00D+00
 Coeff-Com:  0.683D-06 0.891D-04 0.575D-03 0.576D-03-0.312D-02-0.731D-02
 Coeff-Com: -0.448D-01 0.120D-01 0.104D+01
 Coeff:      0.683D-06 0.891D-04 0.575D-03 0.576D-03-0.312D-02-0.731D-02
 Coeff:     -0.448D-01 0.120D-01 0.104D+01
 Gap=     0.393 Goal=   None    Shift=    0.000
 RMSDP=2.36D-07 MaxDP=6.37D-06 DE=-1.18D-08 OVMax= 2.45D-05

 Cycle  10  Pass 1  IDiag  1:
 RMSU=  7.74D-08    CP:  1.02D+00  6.35D-01  9.47D-01  6.60D-01  1.26D+00
                    CP:  8.12D-01  1.22D+00  1.40D+00  1.26D+00
 FoFJK:  IHMeth= 1 ICntrl=     0 DoSepK=T KAlg= 1 I1Cent= 0 FoldK=F
 E= -2905.42613023344     Delta-E=       -0.000000001095 Rises=F Damp=F
 DIIS: error= 4.26D-07 at cycle  10 NSaved=  10.
 NSaved=10 IEnMin=10 EnMin= -2905.42613023344     IErMin=10 ErrMin= 4.26D-07
 ErrMax= 4.26D-07 EMaxC= 1.00D-01 BMatC= 4.02D-11 BMatP= 4.18D-10
 IDIUse=1 WtCom= 1.00D+00 WtEn= 0.00D+00
 Coeff-Com: -0.138D-05 0.384D-06 0.325D-04 0.357D-04 0.239D-02 0.187D-02
 Coeff-Com: -0.711D-02-0.106D+00 0.141D+00 0.968D+00
 Coeff:     -0.138D-05 0.384D-06 0.325D-04 0.357D-04 0.239D-02 0.187D-02
 Coeff:     -0.711D-02-0.106D+00 0.141D+00 0.968D+00
 Gap=     0.393 Goal=   None    Shift=    0.000
 RMSDP=6.63D-08 MaxDP=1.66D-06 DE=-1.09D-09 OVMax= 7.82D-06

 Cycle  11  Pass 1  IDiag  1:
 RMSU=  1.92D-08    CP:  1.02D+00  6.35D-01  9.47D-01  6.60D-01  1.26D+00
                    CP:  8.12D-01  1.22D+00  1.41D+00  1.39D+00  1.25D+00
 FoFJK:  IHMeth= 1 ICntrl=     0 DoSepK=T KAlg= 1 I1Cent= 0 FoldK=F
 E= -2905.42613023355     Delta-E=       -0.000000000105 Rises=F Damp=F
 DIIS: error= 9.28D-08 at cycle  11 NSaved=  11.
 NSaved=11 IEnMin=11 EnMin= -2905.42613023355     IErMin=11 ErrMin= 9.28D-08
 ErrMax= 9.28D-08 EMaxC= 1.00D-01 BMatC= 2.23D-12 BMatP= 4.02D-11
 IDIUse=1 WtCom= 1.00D+00 WtEn= 0.00D+00
 Coeff-Com:  0.334D-06-0.393D-05-0.350D-04-0.184D-04-0.443D-04 0.286D-03
 Coeff-Com:  0.385D-02 0.336D-02-0.690D-01-0.800D-01 0.114D+01
 Coeff:      0.334D-06-0.393D-05-0.350D-04-0.184D-04-0.443D-04 0.286D-03
 Coeff:      0.385D-02 0.336D-02-0.690D-01-0.800D-01 0.114D+01
 Gap=     0.393 Goal=   None    Shift=    0.000
 RMSDP=1.86D-08 MaxDP=3.59D-07 DE=-1.05D-10 OVMax= 2.14D-06

 Cycle  12  Pass 1  IDiag  1:
 RMSU=  3.98D-09    CP:  1.02D+00  6.35D-01  9.47D-01  6.60D-01  1.26D+00
                    CP:  8.12D-01  1.22D+00  1.41D+00  1.41D+00  1.37D+00
                    CP:  1.26D+00
 FoFJK:  IHMeth= 1 ICntrl=     0 DoSepK=T KAlg= 1 I1Cent= 0 FoldK=F
 E= -2905.42613023352     Delta-E=        0.000000000027 Rises=F Damp=F
 DIIS: error= 1.94D-08 at cycle  12 NSaved=  12.
 NSaved=12 IEnMin=11 EnMin= -2905.42613023355     IErMin=12 ErrMin= 1.94D-08
 ErrMax= 1.94D-08 EMaxC= 1.00D-01 BMatC= 6.81D-14 BMatP= 2.23D-12
 IDIUse=1 WtCom= 1.00D+00 WtEn= 0.00D+00
 Coeff-Com: -0.719D-08-0.327D-06-0.131D-05-0.393D-05-0.960D-04-0.765D-04
 Coeff-Com:  0.248D-03 0.338D-02-0.241D-05-0.238D-01-0.105D+00 0.113D+01
 Coeff:     -0.719D-08-0.327D-06-0.131D-05-0.393D-05-0.960D-04-0.765D-04
 Coeff:      0.248D-03 0.338D-02-0.241D-05-0.238D-01-0.105D+00 0.113D+01
 Gap=     0.393 Goal=   None    Shift=    0.000
 RMSDP=3.56D-09 MaxDP=1.25D-07 DE= 2.73D-11 OVMax= 3.48D-07

 SCF Done:  E(RwB97XD) =  -2905.42613023     A.U. after   12 cycles
             Convg  =    0.3557D-08             -V/T =  2.0015
 KE= 2.901001801205D+03 PE=-7.239655900688D+03 EE= 1.282223726333D+03
 Leave Link  502 at Sat May  9 16:57:15 2020, MaxMem= 1073741824 cpu:     342.1
 (Enter /home/matheus/.gaussian/g09/l601.exe)
 Copying SCF densities to generalized density rwf, IOpCl= 0 IROHF=0.

 **********************************************************************

            Population analysis using the SCF density.

 **********************************************************************

 Orbital symmetries:
       Occupied  (A) (A) (A) (A) (A) (A) (A) (A) (A) (A) (A) (A)
                 (A) (A) (A) (A) (A) (A) (A) (A) (A) (A) (A) (A)
                 (A) (A) (A)
       Virtual   (A) (A) (A) (A) (A) (A) (A) (A) (A) (A) (A) (A)
                 (A) (A) (A) (A) (A) (A) (A) (A) (A) (A) (A) (A)
                 (A) (A) (A) (A) (A) (A) (A) (A) (A) (A) (A) (A)
                 (A) (A) (A) (A) (A) (A) (A) (A) (A) (A) (A) (A)
                 (A) (A) (A) (A) (A) (A) (A) (A) (A) (A) (A) (A)
                 (A) (A) (A) (A) (A) (A) (A) (A) (A) (A) (A) (A)
                 (A) (A) (A) (A) (A) (A) (A) (A) (A) (A) (A) (A)
                 (A) (A) (A) (A) (A) (A) (A) (A) (A) (A) (A) (A)
                 (A) (A) (A) (A) (A) (A) (A) (A) (A) (A) (A) (A)
                 (A) (A) (A) (A) (A) (A) (A) (A) (A) (A) (A) (A)
                 (A) (A) (A) (A) (A) (A) (A) (A) (A) (A) (A) (A)
                 (A) (A) (A) (A) (A) (A) (A) (A) (A) (A) (A) (A)
                 (A) (A) (A) (A) (A) (A) (A) (A) (A) (A) (A) (A)
                 (A) (A) (A) (A) (A) (A) (A) (A) (A) (A) (A) (A)
                 (A) (A)
 The electronic state is 1-A.
 Alpha  occ. eigenvalues -- -513.09068 -67.35745 -60.90627 -60.90620 -60.90610
 Alpha  occ. eigenvalues --  -19.31634 -19.31406  -9.81049  -7.50371  -7.50345
 Alpha  occ. eigenvalues --   -7.50314  -3.37113  -3.37109  -3.37085  -3.37064
 Alpha  occ. eigenvalues --   -3.37060  -1.22241  -1.01832  -1.00704  -0.66925
 Alpha  occ. eigenvalues --   -0.53529  -0.52563  -0.50083  -0.49570  -0.48526
 Alpha  occ. eigenvalues --   -0.44120  -0.35828
 Alpha virt. eigenvalues --    0.03430   0.04300   0.08374   0.08922   0.09799
 Alpha virt. eigenvalues --    0.11829   0.12540   0.14858   0.16921   0.17314
 Alpha virt. eigenvalues --    0.18089   0.18988   0.20096   0.21709   0.22919
 Alpha virt. eigenvalues --    0.23693   0.24273   0.27188   0.29708   0.32549
 Alpha virt. eigenvalues --    0.34118   0.34985   0.36878   0.37950   0.39623
 Alpha virt. eigenvalues --    0.41216   0.42799   0.46939   0.51450   0.52907
 Alpha virt. eigenvalues --    0.56756   0.58220   0.60074   0.62857   0.65814
 Alpha virt. eigenvalues --    0.66675   0.68617   0.71780   0.72998   0.73807
 Alpha virt. eigenvalues --    0.74480   0.75398   0.77704   0.79942   0.82762
 Alpha virt. eigenvalues --    0.84214   0.85064   0.86184   0.87735   0.89211
 Alpha virt. eigenvalues --    0.90215   0.93180   0.95166   0.96213   0.99340
 Alpha virt. eigenvalues --    1.00013   1.00728   1.03560   1.04690   1.08535
 Alpha virt. eigenvalues --    1.10754   1.16530   1.17767   1.19986   1.22286
 Alpha virt. eigenvalues --    1.28270   1.32006   1.34760   1.38001   1.43229
 Alpha virt. eigenvalues --    1.44591   1.47423   1.49998   1.53225   1.57985
 Alpha virt. eigenvalues --    1.61144   1.66184   1.81447   1.86730   1.91180
 Alpha virt. eigenvalues --    1.97330   2.03932   2.06712   2.09319   2.11329
 Alpha virt. eigenvalues --    2.11783   2.16998   2.18107   2.19080   2.24172
 Alpha virt. eigenvalues --    2.26356   2.27720   2.28872   2.30117   2.30354
 Alpha virt. eigenvalues --    2.35635   2.36907   2.41825   2.44289   2.44968
 Alpha virt. eigenvalues --    2.47559   2.49030   2.51938   2.53413   2.54710
 Alpha virt. eigenvalues --    2.56255   2.62691   2.62991   2.67443   2.69225
 Alpha virt. eigenvalues --    2.70568   2.73942   2.78172   2.86581   2.87920
 Alpha virt. eigenvalues --    2.90824   3.00476   3.07559   3.09183   3.59323
 Alpha virt. eigenvalues --    3.62869   3.90816   3.97406   3.98238   4.01467
 Alpha virt. eigenvalues --    4.10893   4.12844   4.19476   4.21089   4.21833
 Alpha virt. eigenvalues --    4.42598   4.46538   4.59399   4.62374   4.64084
 Alpha virt. eigenvalues --    4.95482   4.98486   5.02147   5.03585   5.09060
 Alpha virt. eigenvalues --    5.13450   5.44083   5.82031   6.00005   6.06972
 Alpha virt. eigenvalues --    6.10696   6.31185   6.37085   6.40524   6.52687
 Alpha virt. eigenvalues --    6.64438   6.71628   6.76508   6.81898   6.83038
 Alpha virt. eigenvalues --    6.86454   6.87807   6.88802   6.89781   7.04065
 Alpha virt. eigenvalues --    7.11025   7.15572   7.21573   7.39316   7.50749
 Alpha virt. eigenvalues --    7.90528   8.00385   8.13648  13.95528  14.66880
          Condensed to atoms (all electrons):
              1          2          3          4          5
     1  O    8.259880  -0.212364   0.162901   0.027007  -0.021737
     2  O   -0.212364   8.295878   0.030077   0.157332  -0.018709
     3  H    0.162901   0.030077   0.595188  -0.008112   0.001179
     4  H    0.027007   0.157332  -0.008112   0.592506  -0.010805
     5  Kr  -0.021737  -0.018709   0.001179  -0.010805  36.043008
 Mulliken atomic charges:
              1
     1  O   -0.215688
     2  O   -0.252213
     3  H    0.218766
     4  H    0.242072
     5  Kr   0.007064
 Sum of Mulliken atomic charges =   0.00000
 Mulliken charges with hydrogens summed into heavy atoms:
              1
     1  O    0.003078
     2  O   -0.010142
     5  Kr   0.007064
 Sum of Mulliken charges with hydrogens summed into heavy atoms =   0.00000
          Condensed to fragments (all electrons):
     1      -0.007064
     2       0.007064
 Electronic spatial extent (au):  <R**2>=            477.1147
 Charge=              0.0000 electrons
 Dipole moment (field-independent basis, Debye):
    X=             -3.1432    Y=             -0.1561    Z=              0.8539  Tot=              3.2609
 Quadrupole moment (field-independent basis, Debye-Ang):
   XX=            -38.0173   YY=            -27.9863   ZZ=            -29.8573
   XY=             -0.5269   XZ=              1.1262   YZ=             -1.1331
 Traceless Quadrupole moment (field-independent basis, Debye-Ang):
   XX=             -6.0636   YY=              3.9674   ZZ=              2.0963
   XY=             -0.5269   XZ=              1.1262   YZ=             -1.1331
 Octapole moment (field-independent basis, Debye-Ang**2):
  XXX=            -43.2371  YYY=             -0.3927  ZZZ=              0.2113  XYY=             -7.1715
  XXY=             -1.2730  XXZ=              0.5215  XZZ=             -7.7919  YZZ=             -0.7700
  YYZ=              1.3297  XYZ=             -1.4803
 Hexadecapole moment (field-independent basis, Debye-Ang**3):
 XXXX=           -456.8028 YYYY=            -62.9844 ZZZZ=            -29.5893 XXXY=             -1.5030
 XXXZ=             -0.5553 YYYX=             -0.9836 YYYZ=             -1.5811 ZZZX=              0.6079
 ZZZY=             -0.8428 XXYY=            -84.8716 XXZZ=            -75.0951 YYZZ=            -16.7481
 XXYZ=             -1.9038 YYXZ=              1.7522 ZZXY=             -1.0941
 N-N= 1.510042429167D+02 E-N=-7.239655897612D+03  KE= 2.901001801205D+03
 No NMR shielding tensors so no spin-rotation constants.
 Leave Link  601 at Sat May  9 16:57:15 2020, MaxMem= 1073741824 cpu:       0.8
 (Enter /home/matheus/.gaussian/g09/l122.exe)
 Counterpoise: doing DCBS calculation for fragment   1 NewBq=T
 Leave Link  122 at Sat May  9 16:57:15 2020, MaxMem= 1073741824 cpu:       0.0
 (Enter /home/matheus/.gaussian/g09/l301.exe)
 Basis read from rwf:  (5D, 7F)
 No pseudopotential information found on rwf file.
 There are   197 symmetry adapted basis functions of A   symmetry.
 Integral buffers will be    131072 words long.
 Raffenetti 2 integral format.
 Two-electron integral symmetry is turned on.
   197 basis functions,   415 primitive gaussians,   229 cartesian basis functions
     9 alpha electrons        9 beta electrons
       nuclear repulsion energy        36.6553686071 Hartrees.
 IExCor= 4639 DFT=T Ex+Corr=wB97XD ExCW=0 ScaHFX=  1.000000
 ScaDFX=  1.000000  1.000000  1.000000  1.000000 ScalE2=  1.000000  1.000000
 IRadAn=      5 IRanWt=     -1 IRanGd=            0 ICorTp=0
  HFx wShort=  0.000000 wLong=  0.200000 cFull=  0.222036 cShort=  0.000000 cLong=  0.777964
  DFx wShort=  0.000000 wLong=  0.200000 cFull=  0.000000 cShort=  0.000000 cLong=  1.000000
 NAtoms=    5 NActive=    5 NUniq=    5 SFac= 1.00D+00 NAtFMM=   60 NAOKFM=F Big=F
 R6Disp: Dispersion energy =        -0.0002390066 Hartrees.
 Nuclear repulsion after empirical dispersion term =       36.6551296005 Hartrees.
 No density basis found on file   718.
 Leave Link  301 at Sat May  9 16:57:15 2020, MaxMem= 1073741824 cpu:       0.2
 (Enter /home/matheus/.gaussian/g09/l302.exe)
 NPDir=0 NMtPBC=     1 NCelOv=     1 NCel=       1 NClECP=     1 NCelD=      1
         NCelK=      1 NCelE2=     1 NClLst=     1 CellRange=     0.0.
 One-electron integrals computed using PRISM.
 NBasis=   197 RedAO= T  NBF=   197
 NBsUse=   197 1.00D-06 NBFU=   197
 Precomputing XC quadrature grid using
 IXCGrd= 2 IRadAn=           5 IRanWt=          -1 IRanGd=           0 AccXCQ= 0.00D+00.
 NRdTot=     427 NPtTot=      123512 NUsed=      126579 NTot=      126611
 NSgBfM=   229   229   229   229   229 NAtAll=     5     5.
 Leave Link  302 at Sat May  9 16:57:16 2020, MaxMem= 1073741824 cpu:       1.0
 (Enter /home/matheus/.gaussian/g09/l303.exe)
 DipDrv:  MaxL=1.
 Leave Link  303 at Sat May  9 16:57:16 2020, MaxMem= 1073741824 cpu:       0.2
 (Enter /home/matheus/.gaussian/g09/l401.exe)
 Harris functional with IExCor= 4639 diagonalized for initial guess.
 ExpMin= 2.53D-02 ExpMax= 1.17D+07 ExpMxC= 1.33D+04 IAcc=3 IRadAn=         5 AccDes= 0.00D+00
 HarFok:  IExCor= 4639 AccDes= 0.00D+00 IRadAn=         5 IDoV= 1
 ScaDFX=  1.000000  1.000000  1.000000  1.000000
 FoFCou: FMM=F IPFlag=           0 FMFlag=      100000 FMFlg1=           0
         NFxFlg=           0 DoJE=T BraDBF=F KetDBF=T FulRan=T
         Omega=  0.000000  0.000000  1.000000  0.000000  0.000000 ICntrl=     500 IOpCl=  0
         NMat0=    1 NMatS0=    1 NMatT0=    0 NMatD0=    1 NMtDS0=    0 NMtDT0=    0
         I1Cent=           4 NGrid=           0.
 Petite list used in FoFCou.
 Harris En= -146.292707203825    
 Initial guess orbital symmetries:
       Occupied  (A) (A) (A) (A) (A) (A) (A) (A) (A)
       Virtual   (A) (A) (A) (A) (A) (A) (A) (A) (A) (A) (A) (A)
                 (A) (A) (A) (A) (A) (A) (A) (A) (A) (A) (A) (A)
                 (A) (A) (A) (A) (A) (A) (A) (A) (A) (A) (A) (A)
                 (A) (A) (A) (A) (A) (A) (A) (A) (A) (A) (A) (A)
                 (A) (A) (A) (A) (A) (A) (A) (A) (A) (A) (A) (A)
                 (A) (A) (A) (A) (A) (A) (A) (A) (A) (A) (A) (A)
                 (A) (A) (A) (A) (A) (A) (A) (A) (A) (A) (A) (A)
                 (A) (A) (A) (A) (A) (A) (A) (A) (A) (A) (A) (A)
                 (A) (A) (A) (A) (A) (A) (A) (A) (A) (A) (A) (A)
                 (A) (A) (A) (A) (A) (A) (A) (A) (A) (A) (A) (A)
                 (A) (A) (A) (A) (A) (A) (A) (A) (A) (A) (A) (A)
                 (A) (A) (A) (A) (A) (A) (A) (A) (A) (A) (A) (A)
                 (A) (A) (A) (A) (A) (A) (A) (A) (A) (A) (A) (A)
                 (A) (A) (A) (A) (A) (A) (A) (A) (A) (A) (A) (A)
                 (A) (A) (A) (A) (A) (A) (A) (A) (A) (A) (A) (A)
                 (A) (A) (A) (A) (A) (A) (A) (A)
 The electronic state of the initial guess is 1-A.
 Leave Link  401 at Sat May  9 16:57:16 2020, MaxMem= 1073741824 cpu:       4.2
 (Enter /home/matheus/.gaussian/g09/l502.exe)
 Closed shell SCF:
 Requested convergence on RMS density matrix=1.00D-08 within 128 cycles.
 Requested convergence on MAX density matrix=1.00D-06.
 Requested convergence on             energy=1.00D-06.
 No special actions if energy rises.
 Using DIIS extrapolation, IDIIS=  1040.
 Integral symmetry usage will be decided dynamically.
       126521 words used for storage of precomputed grid.
 IEnd=      305468 IEndB=      305468 NGot=  1073741824 MDV=  1073505667
 LenX=  1073505667 LenY=  1073452785
 Fock matrices will be formed incrementally for  20 cycles.

 Cycle   1  Pass 1  IDiag  1:
 FoFJK:  IHMeth= 1 ICntrl=     0 DoSepK=T KAlg= 1 I1Cent= 0 FoldK=F
 FoFCou: FMM=F IPFlag=           0 FMFlag=      100000 FMFlg1=           0
         NFxFlg=           0 DoJE=T BraDBF=F KetDBF=F FulRan=T
         Omega=  0.000000  0.000000  1.000000  0.000000  0.000000 ICntrl=     500 IOpCl=  0
         NMat0=    1 NMatS0=    1 NMatT0=    0 NMatD0=    1 NMtDS0=    0 NMtDT0=    0
         I1Cent=           0 NGrid=           0.
 Symmetry not used in FoFCou.
 E= -151.473773290832    
 DIIS: error= 3.27D-02 at cycle   1 NSaved=   1.
 NSaved= 1 IEnMin= 1 EnMin= -151.473773290832     IErMin= 1 ErrMin= 3.27D-02
 ErrMax= 3.27D-02 EMaxC= 1.00D-01 BMatC= 3.00D-01 BMatP= 3.00D-01
 IDIUse=3 WtCom= 6.73D-01 WtEn= 3.27D-01
 Coeff-Com:  0.100D+01
 Coeff-En:   0.100D+01
 Coeff:      0.100D+01
 Gap=     0.496 Goal=   None    Shift=    0.000
 GapD=    0.496 DampG=2.000 DampE=0.500 DampFc=1.0000 IDamp=-1.
 RMSDP=2.52D-03 MaxDP=1.09D-01              OVMax= 1.08D-01

 Cycle   2  Pass 1  IDiag  1:
 RMSU=  1.73D-03    CP:  9.42D-01
 FoFJK:  IHMeth= 1 ICntrl=     0 DoSepK=T KAlg= 1 I1Cent= 0 FoldK=F
 E= -151.506389110360     Delta-E=       -0.032615819528 Rises=F Damp=F
 DIIS: error= 1.38D-02 at cycle   2 NSaved=   2.
 NSaved= 2 IEnMin= 2 EnMin= -151.506389110360     IErMin= 2 ErrMin= 1.38D-02
 ErrMax= 1.38D-02 EMaxC= 1.00D-01 BMatC= 8.64D-02 BMatP= 3.00D-01
 IDIUse=3 WtCom= 8.62D-01 WtEn= 1.38D-01
 Coeff-Com:  0.326D+00 0.674D+00
 Coeff-En:   0.346D+00 0.654D+00
 Coeff:      0.328D+00 0.672D+00
 Gap=     0.446 Goal=   None    Shift=    0.000
 RMSDP=1.04D-03 MaxDP=4.90D-02 DE=-3.26D-02 OVMax= 6.04D-02

 Cycle   3  Pass 1  IDiag  1:
 RMSU=  3.81D-04    CP:  9.66D-01  6.49D-01
 FoFJK:  IHMeth= 1 ICntrl=     0 DoSepK=T KAlg= 1 I1Cent= 0 FoldK=F
 E= -151.551803652213     Delta-E=       -0.045414541854 Rises=F Damp=F
 DIIS: error= 4.12D-03 at cycle   3 NSaved=   3.
 NSaved= 3 IEnMin= 3 EnMin= -151.551803652213     IErMin= 3 ErrMin= 4.12D-03
 ErrMax= 4.12D-03 EMaxC= 1.00D-01 BMatC= 7.51D-03 BMatP= 8.64D-02
 IDIUse=3 WtCom= 9.59D-01 WtEn= 4.12D-02
 Coeff-Com:  0.184D-01 0.238D+00 0.743D+00
 Coeff-En:   0.000D+00 0.000D+00 0.100D+01
 Coeff:      0.177D-01 0.229D+00 0.754D+00
 Gap=     0.389 Goal=   None    Shift=    0.000
 RMSDP=3.02D-04 MaxDP=1.11D-02 DE=-4.54D-02 OVMax= 1.76D-02

 Cycle   4  Pass 1  IDiag  1:
 RMSU=  7.06D-05    CP:  9.60D-01  7.53D-01  7.92D-01
 FoFJK:  IHMeth= 1 ICntrl=     0 DoSepK=T KAlg= 1 I1Cent= 0 FoldK=F
 E= -151.556686868658     Delta-E=       -0.004883216445 Rises=F Damp=F
 DIIS: error= 5.25D-04 at cycle   4 NSaved=   4.
 NSaved= 4 IEnMin= 4 EnMin= -151.556686868658     IErMin= 4 ErrMin= 5.25D-04
 ErrMax= 5.25D-04 EMaxC= 1.00D-01 BMatC= 8.94D-05 BMatP= 7.51D-03
 IDIUse=3 WtCom= 9.95D-01 WtEn= 5.25D-03
 Coeff-Com:  0.518D-03 0.331D-01 0.182D+00 0.785D+00
 Coeff-En:   0.000D+00 0.000D+00 0.000D+00 0.100D+01
 Coeff:      0.515D-03 0.329D-01 0.181D+00 0.786D+00
 Gap=     0.386 Goal=   None    Shift=    0.000
 RMSDP=4.23D-05 MaxDP=2.27D-03 DE=-4.88D-03 OVMax= 2.06D-03

 Cycle   5  Pass 1  IDiag  1:
 RMSU=  1.54D-05    CP:  9.61D-01  7.45D-01  8.42D-01  1.09D+00
 FoFJK:  IHMeth= 1 ICntrl=     0 DoSepK=T KAlg= 1 I1Cent= 0 FoldK=F
 E= -151.556750075946     Delta-E=       -0.000063207288 Rises=F Damp=F
 DIIS: error= 5.11D-05 at cycle   5 NSaved=   5.
 NSaved= 5 IEnMin= 5 EnMin= -151.556750075946     IErMin= 5 ErrMin= 5.11D-05
 ErrMax= 5.11D-05 EMaxC= 1.00D-01 BMatC= 8.81D-07 BMatP= 8.94D-05
 IDIUse=1 WtCom= 1.00D+00 WtEn= 0.00D+00
 Coeff-Com: -0.693D-03-0.118D-01-0.376D-01-0.806D-01 0.113D+01
 Coeff:     -0.693D-03-0.118D-01-0.376D-01-0.806D-01 0.113D+01
 Gap=     0.386 Goal=   None    Shift=    0.000
 RMSDP=1.34D-05 MaxDP=5.07D-04 DE=-6.32D-05 OVMax= 6.96D-04

 Cycle   6  Pass 1  IDiag  1:
 RMSU=  3.13D-06    CP:  9.61D-01  7.44D-01  8.56D-01  1.17D+00  1.28D+00
 FoFJK:  IHMeth= 1 ICntrl=     0 DoSepK=T KAlg= 1 I1Cent= 0 FoldK=F
 E= -151.556752073760     Delta-E=       -0.000001997814 Rises=F Damp=F
 DIIS: error= 1.04D-05 at cycle   6 NSaved=   6.
 NSaved= 6 IEnMin= 6 EnMin= -151.556752073760     IErMin= 6 ErrMin= 1.04D-05
 ErrMax= 1.04D-05 EMaxC= 1.00D-01 BMatC= 3.61D-08 BMatP= 8.81D-07
 IDIUse=1 WtCom= 1.00D+00 WtEn= 0.00D+00
 Coeff-Com:  0.129D-04-0.780D-03-0.548D-02-0.213D-01 0.417D-02 0.102D+01
 Coeff:      0.129D-04-0.780D-03-0.548D-02-0.213D-01 0.417D-02 0.102D+01
 Gap=     0.386 Goal=   None    Shift=    0.000
 RMSDP=2.28D-06 MaxDP=7.76D-05 DE=-2.00D-06 OVMax= 1.76D-04

 Cycle   7  Pass 1  IDiag  1:
 RMSU=  7.73D-07    CP:  9.61D-01  7.44D-01  8.57D-01  1.18D+00  1.33D+00
                    CP:  1.31D+00
 FoFJK:  IHMeth= 1 ICntrl=     0 DoSepK=T KAlg= 1 I1Cent= 0 FoldK=F
 E= -151.556752155209     Delta-E=       -0.000000081450 Rises=F Damp=F
 DIIS: error= 7.65D-06 at cycle   7 NSaved=   7.
 NSaved= 7 IEnMin= 7 EnMin= -151.556752155209     IErMin= 7 ErrMin= 7.65D-06
 ErrMax= 7.65D-06 EMaxC= 1.00D-01 BMatC= 2.03D-08 BMatP= 3.61D-08
 IDIUse=1 WtCom= 1.00D+00 WtEn= 0.00D+00
 Coeff-Com:  0.433D-04 0.225D-03-0.759D-03-0.704D-02-0.613D-01 0.517D+00
 Coeff-Com:  0.552D+00
 Coeff:      0.433D-04 0.225D-03-0.759D-03-0.704D-02-0.613D-01 0.517D+00
 Coeff:      0.552D+00
 Gap=     0.386 Goal=   None    Shift=    0.000
 RMSDP=5.28D-07 MaxDP=2.55D-05 DE=-8.14D-08 OVMax= 4.36D-05

 Cycle   8  Pass 1  IDiag  1:
 RMSU=  3.05D-07    CP:  9.61D-01  7.44D-01  8.57D-01  1.18D+00  1.34D+00
                    CP:  1.36D+00  9.60D-01
 FoFJK:  IHMeth= 1 ICntrl=     0 DoSepK=T KAlg= 1 I1Cent= 0 FoldK=F
 E= -151.556752171198     Delta-E=       -0.000000015989 Rises=F Damp=F
 DIIS: error= 2.12D-06 at cycle   8 NSaved=   8.
 NSaved= 8 IEnMin= 8 EnMin= -151.556752171198     IErMin= 8 ErrMin= 2.12D-06
 ErrMax= 2.12D-06 EMaxC= 1.00D-01 BMatC= 2.18D-09 BMatP= 2.03D-08
 IDIUse=1 WtCom= 1.00D+00 WtEn= 0.00D+00
 Coeff-Com:  0.194D-05 0.209D-03 0.127D-02 0.333D-02-0.125D-01-0.180D+00
 Coeff-Com:  0.169D+00 0.102D+01
 Coeff:      0.194D-05 0.209D-03 0.127D-02 0.333D-02-0.125D-01-0.180D+00
 Coeff:      0.169D+00 0.102D+01
 Gap=     0.386 Goal=   None    Shift=    0.000
 RMSDP=3.80D-07 MaxDP=1.19D-05 DE=-1.60D-08 OVMax= 4.30D-05

 Cycle   9  Pass 1  IDiag  1:
 RMSU=  9.71D-08    CP:  9.61D-01  7.44D-01  8.57D-01  1.18D+00  1.34D+00
                    CP:  1.40D+00  1.18D+00  1.16D+00
 FoFJK:  IHMeth= 1 ICntrl=     0 DoSepK=T KAlg= 1 I1Cent= 0 FoldK=F
 E= -151.556752174529     Delta-E=       -0.000000003330 Rises=F Damp=F
 DIIS: error= 4.38D-07 at cycle   9 NSaved=   9.
 NSaved= 9 IEnMin= 9 EnMin= -151.556752174529     IErMin= 9 ErrMin= 4.38D-07
 ErrMax= 4.38D-07 EMaxC= 1.00D-01 BMatC= 3.36D-11 BMatP= 2.18D-09
 IDIUse=1 WtCom= 1.00D+00 WtEn= 0.00D+00
 Coeff-Com: -0.524D-07 0.843D-05 0.703D-04 0.161D-03 0.291D-02-0.280D-01
 Coeff-Com: -0.101D-01 0.621D-01 0.973D+00
 Coeff:     -0.524D-07 0.843D-05 0.703D-04 0.161D-03 0.291D-02-0.280D-01
 Coeff:     -0.101D-01 0.621D-01 0.973D+00
 Gap=     0.386 Goal=   None    Shift=    0.000
 RMSDP=6.72D-08 MaxDP=1.71D-06 DE=-3.33D-09 OVMax= 7.03D-06

 Cycle  10  Pass 1  IDiag  1:
 RMSU=  1.53D-08    CP:  9.61D-01  7.44D-01  8.57D-01  1.18D+00  1.34D+00
                    CP:  1.40D+00  1.20D+00  1.23D+00  1.31D+00
 FoFJK:  IHMeth= 1 ICntrl=     0 DoSepK=T KAlg= 1 I1Cent= 0 FoldK=F
 E= -151.556752174615     Delta-E=       -0.000000000086 Rises=F Damp=F
 DIIS: error= 1.41D-07 at cycle  10 NSaved=  10.
 NSaved=10 IEnMin=10 EnMin= -151.556752174615     IErMin=10 ErrMin= 1.41D-07
 ErrMax= 1.41D-07 EMaxC= 1.00D-01 BMatC= 4.38D-12 BMatP= 3.36D-11
 IDIUse=1 WtCom= 1.00D+00 WtEn= 0.00D+00
 Coeff-Com:  0.331D-06-0.139D-04-0.118D-03-0.373D-03 0.127D-02 0.158D-01
 Coeff-Com: -0.184D-01-0.101D+00 0.220D-01 0.108D+01
 Coeff:      0.331D-06-0.139D-04-0.118D-03-0.373D-03 0.127D-02 0.158D-01
 Coeff:     -0.184D-01-0.101D+00 0.220D-01 0.108D+01
 Gap=     0.386 Goal=   None    Shift=    0.000
 RMSDP=2.65D-08 MaxDP=7.58D-07 DE=-8.61D-11 OVMax= 3.02D-06

 Cycle  11  Pass 1  IDiag  1:
 RMSU=  4.51D-09    CP:  9.61D-01  7.44D-01  8.57D-01  1.18D+00  1.34D+00
                    CP:  1.39D+00  1.20D+00  1.25D+00  1.44D+00  1.35D+00
 FoFJK:  IHMeth= 1 ICntrl=     0 DoSepK=T KAlg= 1 I1Cent= 0 FoldK=F
 E= -151.556752174625     Delta-E=       -0.000000000011 Rises=F Damp=F
 DIIS: error= 2.57D-08 at cycle  11 NSaved=  11.
 NSaved=11 IEnMin=11 EnMin= -151.556752174625     IErMin=11 ErrMin= 2.57D-08
 ErrMax= 2.57D-08 EMaxC= 1.00D-01 BMatC= 1.11D-13 BMatP= 4.38D-12
 IDIUse=1 WtCom= 1.00D+00 WtEn= 0.00D+00
 Coeff-Com: -0.124D-06-0.630D-06 0.436D-05 0.133D-04-0.131D-03-0.292D-03
 Coeff-Com:  0.221D-02 0.763D-02-0.318D-01-0.150D+00 0.117D+01
 Coeff:     -0.124D-06-0.630D-06 0.436D-05 0.133D-04-0.131D-03-0.292D-03
 Coeff:      0.221D-02 0.763D-02-0.318D-01-0.150D+00 0.117D+01
 Gap=     0.386 Goal=   None    Shift=    0.000
 RMSDP=4.93D-09 MaxDP=1.91D-07 DE=-1.05D-11 OVMax= 5.27D-07

 SCF Done:  E(RwB97XD) =  -151.556752175     A.U. after   11 cycles
             Convg  =    0.4926D-08             -V/T =  2.0057
 KE= 1.506940488685D+02 PE=-4.317858943633D+02 EE= 9.287996371965D+01
 Leave Link  502 at Sat May  9 16:57:52 2020, MaxMem= 1073741824 cpu:     285.2
 (Enter /home/matheus/.gaussian/g09/l601.exe)
 Copying SCF densities to generalized density rwf, IOpCl= 0 IROHF=0.

 **********************************************************************

            Population analysis using the SCF density.

 **********************************************************************

 Orbital symmetries:
       Occupied  (A) (A) (A) (A) (A) (A) (A) (A) (A)
       Virtual   (A) (A) (A) (A) (A) (A) (A) (A) (A) (A) (A) (A)
                 (A) (A) (A) (A) (A) (A) (A) (A) (A) (A) (A) (A)
                 (A) (A) (A) (A) (A) (A) (A) (A) (A) (A) (A) (A)
                 (A) (A) (A) (A) (A) (A) (A) (A) (A) (A) (A) (A)
                 (A) (A) (A) (A) (A) (A) (A) (A) (A) (A) (A) (A)
                 (A) (A) (A) (A) (A) (A) (A) (A) (A) (A) (A) (A)
                 (A) (A) (A) (A) (A) (A) (A) (A) (A) (A) (A) (A)
                 (A) (A) (A) (A) (A) (A) (A) (A) (A) (A) (A) (A)
                 (A) (A) (A) (A) (A) (A) (A) (A) (A) (A) (A) (A)
                 (A) (A) (A) (A) (A) (A) (A) (A) (A) (A) (A) (A)
                 (A) (A) (A) (A) (A) (A) (A) (A) (A) (A) (A) (A)
                 (A) (A) (A) (A) (A) (A) (A) (A) (A) (A) (A) (A)
                 (A) (A) (A) (A) (A) (A) (A) (A) (A) (A) (A) (A)
                 (A) (A) (A) (A) (A) (A) (A) (A) (A) (A) (A) (A)
                 (A) (A) (A) (A) (A) (A) (A) (A) (A) (A) (A) (A)
                 (A) (A) (A) (A) (A) (A) (A) (A)
 The electronic state is 1-A.
 Alpha  occ. eigenvalues --  -19.32139 -19.32134  -1.22698  -1.01194  -0.67072
 Alpha  occ. eigenvalues --   -0.53072  -0.52408  -0.44861  -0.36316
 Alpha virt. eigenvalues --    0.02265   0.03838   0.07322   0.08199   0.08849
 Alpha virt. eigenvalues --    0.09594   0.10685   0.15444   0.17513   0.17948
 Alpha virt. eigenvalues --    0.18346   0.19294   0.20753   0.22000   0.25358
 Alpha virt. eigenvalues --    0.27073   0.29161   0.29518   0.33161   0.34801
 Alpha virt. eigenvalues --    0.35637   0.36553   0.38243   0.39428   0.40697
 Alpha virt. eigenvalues --    0.43582   0.45195   0.46196   0.48485   0.51662
 Alpha virt. eigenvalues --    0.53685   0.56953   0.58941   0.61000   0.65910
 Alpha virt. eigenvalues --    0.68712   0.71452   0.75462   0.76351   0.78475
 Alpha virt. eigenvalues --    0.80703   0.81771   0.85683   0.87492   0.89077
 Alpha virt. eigenvalues --    0.91713   0.93356   0.95693   0.97451   0.98305
 Alpha virt. eigenvalues --    1.01518   1.04753   1.05746   1.06227   1.08032
 Alpha virt. eigenvalues --    1.13083   1.16046   1.18884   1.20066   1.23411
 Alpha virt. eigenvalues --    1.26792   1.29832   1.30951   1.31136   1.32903
 Alpha virt. eigenvalues --    1.34674   1.35047   1.37533   1.42077   1.45185
 Alpha virt. eigenvalues --    1.46073   1.49034   1.51781   1.53879   1.59171
 Alpha virt. eigenvalues --    1.59815   1.62172   1.67032   1.73727   1.75734
 Alpha virt. eigenvalues --    1.80813   1.84769   1.89542   1.96075   2.01271
 Alpha virt. eigenvalues --    2.07159   2.08291   2.13666   2.17360   2.20739
 Alpha virt. eigenvalues --    2.25793   2.29008   2.30834   2.33166   2.36103
 Alpha virt. eigenvalues --    2.47725   2.50719   2.56879   2.58830   2.61115
 Alpha virt. eigenvalues --    2.62943   2.72306   2.83216   2.85899   2.89902
 Alpha virt. eigenvalues --    2.97253   3.06113   3.07525   3.25351   3.31359
 Alpha virt. eigenvalues --    3.42430   3.56331   3.59157   3.64515   3.78026
 Alpha virt. eigenvalues --    3.78912   3.81167   3.82183   3.82654   3.86048
 Alpha virt. eigenvalues --    3.89005   3.90606   3.91947   3.93613   3.96677
 Alpha virt. eigenvalues --    3.98597   4.02334   4.04864   4.08998   4.13404
 Alpha virt. eigenvalues --    4.15028   4.18325   4.21530   4.27074   4.32643
 Alpha virt. eigenvalues --    4.47954   4.50036   4.60711   4.62998   4.95213
 Alpha virt. eigenvalues --    4.98280   5.01849   5.03905   5.09104   5.13220
 Alpha virt. eigenvalues --    5.43751   5.81713   5.99335   6.06469   6.10241
 Alpha virt. eigenvalues --    6.30843   6.36750   6.40298   6.52327   6.64008
 Alpha virt. eigenvalues --    6.71026   6.76050   6.81277   6.82535   6.86017
 Alpha virt. eigenvalues --    6.87320   6.88362   6.89339   7.03682   7.10583
 Alpha virt. eigenvalues --    7.15222   7.21014   7.38878   7.50336   7.89979
 Alpha virt. eigenvalues --    7.99855   8.12579  11.05397  13.94929  14.64483
 Alpha virt. eigenvalues --   14.82706  14.90736  15.11450  29.02460  29.03148
 Alpha virt. eigenvalues --   29.07351  29.18118  29.22377  49.21100 148.30883
 Alpha virt. eigenvalues --  148.42678 148.71663 752.86426
          Condensed to atoms (all electrons):
              1          2          3          4          5
     1  O    8.213380  -0.203672   0.178883   0.022782   0.003615
     2  O   -0.203672   8.227537   0.027058   0.177113  -0.001528
     3  H    0.178883   0.027058   0.582232  -0.001226  -0.002857
     4  H    0.022782   0.177113  -0.001226   0.585165  -0.005167
     5  Kr   0.003615  -0.001528  -0.002857  -0.005167   0.001684
 Mulliken atomic charges:
              1
     1  O   -0.214988
     2  O   -0.226508
     3  H    0.215909
     4  H    0.221333
     5  Kr   0.004253
 Sum of Mulliken atomic charges =   0.00000
 Mulliken charges with hydrogens summed into heavy atoms:
              1
     1  O    0.000921
     2  O   -0.005174
     5  Kr   0.004253
 Sum of Mulliken charges with hydrogens summed into heavy atoms =   0.00000
          Condensed to fragments (all electrons):
     1      -0.004253
     2       0.004253
 Electronic spatial extent (au):  <R**2>=            317.1543
 Charge=              0.0000 electrons
 Dipole moment (field-independent basis, Debye):
    X=             -2.7132    Y=             -0.0664    Z=              1.0085  Tot=              2.8953
 Quadrupole moment (field-independent basis, Debye-Ang):
   XX=            -20.6806   YY=            -10.3727   ZZ=            -12.3565
   XY=             -0.5622   XZ=              1.0156   YZ=             -1.1659
 Traceless Quadrupole moment (field-independent basis, Debye-Ang):
   XX=             -6.2107   YY=              4.0972   ZZ=              2.1134
   XY=             -0.5622   XZ=              1.0156   YZ=             -1.1659
 Octapole moment (field-independent basis, Debye-Ang**2):
  XXX=            -92.1808  YYY=             -0.4091  ZZZ=              0.2747  XYY=            -23.8688
  XXY=             -1.1540  XXZ=              0.5985  XZZ=            -24.5595  YZZ=             -0.7825
  YYZ=              1.3593  XYZ=             -1.4817
 Hexadecapole moment (field-independent basis, Debye-Ang**3):
 XXXX=           -339.0869 YYYY=            -44.7576 ZZZZ=            -11.6233 XXXY=             -1.3383
 XXXZ=             -0.7013 YYYX=             -0.9737 YYYZ=             -1.6354 ZZZX=              0.6072
 ZZZY=             -0.8909 XXYY=            -62.2488 XXZZ=            -52.6826 YYZZ=            -10.7008
 XXYZ=             -1.9086 YYXZ=              1.7356 ZZXY=             -1.0663
 N-N= 3.665512960050D+01 E-N=-4.317858939808D+02  KE= 1.506940488685D+02
 No NMR shielding tensors so no spin-rotation constants.
 Leave Link  601 at Sat May  9 16:57:52 2020, MaxMem= 1073741824 cpu:       0.8
 (Enter /home/matheus/.gaussian/g09/l122.exe)
 Counterpoise: doing DCBS calculation for fragment   2 NewBq=T
 Leave Link  122 at Sat May  9 16:57:52 2020, MaxMem= 1073741824 cpu:       0.0
 (Enter /home/matheus/.gaussian/g09/l301.exe)
 Basis read from rwf:  (5D, 7F)
 No pseudopotential information found on rwf file.
 There are   197 symmetry adapted basis functions of A   symmetry.
 Integral buffers will be    131072 words long.
 Raffenetti 2 integral format.
 Two-electron integral symmetry is turned on.
   197 basis functions,   415 primitive gaussians,   229 cartesian basis functions
    18 alpha electrons       18 beta electrons
       nuclear repulsion energy         0.0000000000 Hartrees.
 IExCor= 4639 DFT=T Ex+Corr=wB97XD ExCW=0 ScaHFX=  1.000000
 ScaDFX=  1.000000  1.000000  1.000000  1.000000 ScalE2=  1.000000  1.000000
 IRadAn=      5 IRanWt=     -1 IRanGd=            0 ICorTp=0
  HFx wShort=  0.000000 wLong=  0.200000 cFull=  0.222036 cShort=  0.000000 cLong=  0.777964
  DFx wShort=  0.000000 wLong=  0.200000 cFull=  0.000000 cShort=  0.000000 cLong=  1.000000
 NAtoms=    5 NActive=    5 NUniq=    5 SFac= 1.00D+00 NAtFMM=   60 NAOKFM=F Big=F
 R6Disp: Dispersion energy =         0.0000000000 Hartrees.
 Nuclear repulsion after empirical dispersion term =        0.0000000000 Hartrees.
 No density basis found on file   718.
 Leave Link  301 at Sat May  9 16:57:52 2020, MaxMem= 1073741824 cpu:       0.2
 (Enter /home/matheus/.gaussian/g09/l302.exe)
 NPDir=0 NMtPBC=     1 NCelOv=     1 NCel=       1 NClECP=     1 NCelD=      1
         NCelK=      1 NCelE2=     1 NClLst=     1 CellRange=     0.0.
 One-electron integrals computed using PRISM.
 NBasis=   197 RedAO= T  NBF=   197
 NBsUse=   197 1.00D-06 NBFU=   197
 Precomputing XC quadrature grid using
 IXCGrd= 2 IRadAn=           5 IRanWt=          -1 IRanGd=           0 AccXCQ= 0.00D+00.
 NRdTot=     427 NPtTot=      123512 NUsed=      126579 NTot=      126611
 NSgBfM=   229   229   229   229   229 NAtAll=     5     5.
 Leave Link  302 at Sat May  9 16:57:52 2020, MaxMem= 1073741824 cpu:       1.0
 (Enter /home/matheus/.gaussian/g09/l303.exe)
 DipDrv:  MaxL=1.
 Leave Link  303 at Sat May  9 16:57:52 2020, MaxMem= 1073741824 cpu:       0.2
 (Enter /home/matheus/.gaussian/g09/l401.exe)
 Harris functional with IExCor= 4639 diagonalized for initial guess.
 ExpMin= 2.53D-02 ExpMax= 1.17D+07 ExpMxC= 1.33D+04 IAcc=3 IRadAn=         5 AccDes= 0.00D+00
 HarFok:  IExCor= 4639 AccDes= 0.00D+00 IRadAn=         5 IDoV= 1
 ScaDFX=  1.000000  1.000000  1.000000  1.000000
 FoFCou: FMM=F IPFlag=           0 FMFlag=      100000 FMFlg1=           0
         NFxFlg=           0 DoJE=T BraDBF=F KetDBF=T FulRan=T
         Omega=  0.000000  0.000000  1.000000  0.000000  0.000000 ICntrl=     500 IOpCl=  0
         NMat0=    1 NMatS0=    1 NMatT0=    0 NMatD0=    1 NMtDS0=    0 NMtDT0=    0
         I1Cent=           4 NGrid=           0.
 Petite list used in FoFCou.
 Harris En= -2730.20467393339    
 Initial guess orbital symmetries:
       Occupied  (A) (A) (A) (A) (A) (A) (A) (A) (A) (A) (A) (A)
                 (A) (A) (A) (A) (A) (A)
       Virtual   (A) (A) (A) (A) (A) (A) (A) (A) (A) (A) (A) (A)
                 (A) (A) (A) (A) (A) (A) (A) (A) (A) (A) (A) (A)
                 (A) (A) (A) (A) (A) (A) (A) (A) (A) (A) (A) (A)
                 (A) (A) (A) (A) (A) (A) (A) (A) (A) (A) (A) (A)
                 (A) (A) (A) (A) (A) (A) (A) (A) (A) (A) (A) (A)
                 (A) (A) (A) (A) (A) (A) (A) (A) (A) (A) (A) (A)
                 (A) (A) (A) (A) (A) (A) (A) (A) (A) (A) (A) (A)
                 (A) (A) (A) (A) (A) (A) (A) (A) (A) (A) (A) (A)
                 (A) (A) (A) (A) (A) (A) (A) (A) (A) (A) (A) (A)
                 (A) (A) (A) (A) (A) (A) (A) (A) (A) (A) (A) (A)
                 (A) (A) (A) (A) (A) (A) (A) (A) (A) (A) (A) (A)
                 (A) (A) (A) (A) (A) (A) (A) (A) (A) (A) (A) (A)
                 (A) (A) (A) (A) (A) (A) (A) (A) (A) (A) (A) (A)
                 (A) (A) (A) (A) (A) (A) (A) (A) (A) (A) (A) (A)
                 (A) (A) (A) (A) (A) (A) (A) (A) (A) (A) (A)
 The electronic state of the initial guess is 1-A.
 Leave Link  401 at Sat May  9 16:57:53 2020, MaxMem= 1073741824 cpu:       4.4
 (Enter /home/matheus/.gaussian/g09/l502.exe)
 Closed shell SCF:
 Requested convergence on RMS density matrix=1.00D-08 within 128 cycles.
 Requested convergence on MAX density matrix=1.00D-06.
 Requested convergence on             energy=1.00D-06.
 No special actions if energy rises.
 Using DIIS extrapolation, IDIIS=  1040.
 Integral symmetry usage will be decided dynamically.
       126521 words used for storage of precomputed grid.
 IEnd=      305468 IEndB=      305468 NGot=  1073741824 MDV=  1073505667
 LenX=  1073505667 LenY=  1073452785
 Fock matrices will be formed incrementally for  20 cycles.

 Cycle   1  Pass 1  IDiag  1:
 FoFJK:  IHMeth= 1 ICntrl=     0 DoSepK=T KAlg= 1 I1Cent= 0 FoldK=F
 FoFCou: FMM=F IPFlag=           0 FMFlag=      100000 FMFlg1=           0
         NFxFlg=           0 DoJE=T BraDBF=F KetDBF=F FulRan=T
         Omega=  0.000000  0.000000  1.000000  0.000000  0.000000 ICntrl=     500 IOpCl=  0
         NMat0=    1 NMatS0=    1 NMatT0=    0 NMatD0=    1 NMtDS0=    0 NMtDT0=    0
         I1Cent=           0 NGrid=           0.
 Symmetry not used in FoFCou.
 E= -2753.46415619512    
 DIIS: error= 7.71D-02 at cycle   1 NSaved=   1.
 NSaved= 1 IEnMin= 1 EnMin= -2753.46415619512     IErMin= 1 ErrMin= 7.71D-02
 ErrMax= 7.71D-02 EMaxC= 1.00D-01 BMatC= 1.88D+00 BMatP= 1.88D+00
 IDIUse=3 WtCom= 2.29D-01 WtEn= 7.71D-01
 Coeff-Com:  0.100D+01
 Coeff-En:   0.100D+01
 Coeff:      0.100D+01
 Gap=     0.634 Goal=   None    Shift=    0.000
 GapD=    0.634 DampG=2.000 DampE=0.500 DampFc=1.0000 IDamp=-1.
 RMSDP=5.66D-03 MaxDP=3.75D-01              OVMax= 1.78D-01

 Cycle   2  Pass 1  IDiag  1:
 RMSU=  3.94D-03    CP:  1.04D+00
 FoFJK:  IHMeth= 1 ICntrl=     0 DoSepK=T KAlg= 1 I1Cent= 0 FoldK=F
 E= -2753.72381873899     Delta-E=       -0.259662543874 Rises=F Damp=F
 DIIS: error= 3.10D-02 at cycle   2 NSaved=   2.
 NSaved= 2 IEnMin= 2 EnMin= -2753.72381873899     IErMin= 2 ErrMin= 3.10D-02
 ErrMax= 3.10D-02 EMaxC= 1.00D-01 BMatC= 4.78D-01 BMatP= 1.88D+00
 IDIUse=3 WtCom= 6.90D-01 WtEn= 3.10D-01
 Coeff-Com:  0.330D+00 0.670D+00
 Coeff-En:   0.184D+00 0.816D+00
 Coeff:      0.285D+00 0.715D+00
 Gap=     0.474 Goal=   None    Shift=    0.000
 RMSDP=2.54D-03 MaxDP=1.62D-01 DE=-2.60D-01 OVMax= 7.89D-02

 Cycle   3  Pass 1  IDiag  1:
 RMSU=  3.72D-04    CP:  1.03D+00  5.59D-01
 FoFJK:  IHMeth= 1 ICntrl=     0 DoSepK=T KAlg= 1 I1Cent= 0 FoldK=F
 E= -2753.87124695497     Delta-E=       -0.147428215978 Rises=F Damp=F
 DIIS: error= 4.00D-03 at cycle   3 NSaved=   3.
 NSaved= 3 IEnMin= 3 EnMin= -2753.87124695497     IErMin= 3 ErrMin= 4.00D-03
 ErrMax= 4.00D-03 EMaxC= 1.00D-01 BMatC= 9.75D-03 BMatP= 4.78D-01
 IDIUse=3 WtCom= 9.60D-01 WtEn= 4.00D-02
 Coeff-Com: -0.508D-02 0.117D+00 0.888D+00
 Coeff-En:   0.000D+00 0.000D+00 0.100D+01
 Coeff:     -0.487D-02 0.112D+00 0.893D+00
 Gap=     0.502 Goal=   None    Shift=    0.000
 RMSDP=2.92D-04 MaxDP=1.68D-02 DE=-1.47D-01 OVMax= 1.23D-02

 Cycle   4  Pass 1  IDiag  1:
 RMSU=  4.24D-05    CP:  1.03D+00  6.09D-01  9.41D-01
 FoFJK:  IHMeth= 1 ICntrl=     0 DoSepK=T KAlg= 1 I1Cent= 0 FoldK=F
 E= -2753.87436775253     Delta-E=       -0.003120797563 Rises=F Damp=F
 DIIS: error= 1.71D-04 at cycle   4 NSaved=   4.
 NSaved= 4 IEnMin= 4 EnMin= -2753.87436775253     IErMin= 4 ErrMin= 1.71D-04
 ErrMax= 1.71D-04 EMaxC= 1.00D-01 BMatC= 1.63D-05 BMatP= 9.75D-03
 IDIUse=3 WtCom= 9.98D-01 WtEn= 1.71D-03
 Coeff-Com: -0.846D-03-0.146D-01-0.503D-01 0.107D+01
 Coeff-En:   0.000D+00 0.000D+00 0.000D+00 0.100D+01
 Coeff:     -0.844D-03-0.146D-01-0.502D-01 0.107D+01
 Gap=     0.500 Goal=   None    Shift=    0.000
 RMSDP=2.22D-05 MaxDP=9.00D-04 DE=-3.12D-03 OVMax= 7.91D-04

 Cycle   5  Pass 1  IDiag  1:
 RMSU=  1.09D-05    CP:  1.03D+00  6.07D-01  9.59D-01  1.11D+00
 FoFJK:  IHMeth= 1 ICntrl=     0 DoSepK=T KAlg= 1 I1Cent= 0 FoldK=F
 E= -2753.87437623479     Delta-E=       -0.000008482260 Rises=F Damp=F
 DIIS: error= 1.85D-05 at cycle   5 NSaved=   5.
 NSaved= 5 IEnMin= 5 EnMin= -2753.87437623479     IErMin= 5 ErrMin= 1.85D-05
 ErrMax= 1.85D-05 EMaxC= 1.00D-01 BMatC= 3.87D-08 BMatP= 1.63D-05
 IDIUse=1 WtCom= 1.00D+00 WtEn= 0.00D+00
 Coeff-Com:  0.114D-03-0.970D-03-0.973D-02-0.192D-01 0.103D+01
 Coeff:      0.114D-03-0.970D-03-0.973D-02-0.192D-01 0.103D+01
 Gap=     0.500 Goal=   None    Shift=    0.000
 RMSDP=2.43D-06 MaxDP=1.10D-04 DE=-8.48D-06 OVMax= 1.83D-04

 Cycle   6  Pass 1  IDiag  1:
 RMSU=  8.72D-07    CP:  1.03D+00  6.07D-01  9.60D-01  1.13D+00  1.08D+00
 FoFJK:  IHMeth= 1 ICntrl=     0 DoSepK=T KAlg= 1 I1Cent= 0 FoldK=F
 E= -2753.87437635306     Delta-E=       -0.000000118267 Rises=F Damp=F
 DIIS: error= 3.72D-06 at cycle   6 NSaved=   6.
 NSaved= 6 IEnMin= 6 EnMin= -2753.87437635306     IErMin= 6 ErrMin= 3.72D-06
 ErrMax= 3.72D-06 EMaxC= 1.00D-01 BMatC= 4.02D-09 BMatP= 3.87D-08
 IDIUse=1 WtCom= 1.00D+00 WtEn= 0.00D+00
 Coeff-Com:  0.735D-05 0.199D-03 0.337D-03-0.358D-01 0.487D-01 0.987D+00
 Coeff:      0.735D-05 0.199D-03 0.337D-03-0.358D-01 0.487D-01 0.987D+00
 Gap=     0.500 Goal=   None    Shift=    0.000
 RMSDP=6.15D-07 MaxDP=2.67D-05 DE=-1.18D-07 OVMax= 2.82D-05

 Cycle   7  Pass 1  IDiag  1:
 RMSU=  1.00D-07    CP:  1.03D+00  6.07D-01  9.60D-01  1.13D+00  1.12D+00
                    CP:  1.20D+00
 FoFJK:  IHMeth= 1 ICntrl=     0 DoSepK=T KAlg= 1 I1Cent= 0 FoldK=F
 E= -2753.87437635739     Delta-E=       -0.000000004331 Rises=F Damp=F
 DIIS: error= 4.42D-07 at cycle   7 NSaved=   7.
 NSaved= 7 IEnMin= 7 EnMin= -2753.87437635739     IErMin= 7 ErrMin= 4.42D-07
 ErrMax= 4.42D-07 EMaxC= 1.00D-01 BMatC= 4.34D-11 BMatP= 4.02D-09
 IDIUse=1 WtCom= 1.00D+00 WtEn= 0.00D+00
 Coeff-Com:  0.508D-06 0.679D-04 0.228D-03-0.908D-02 0.151D-02 0.241D+00
 Coeff-Com:  0.767D+00
 Coeff:      0.508D-06 0.679D-04 0.228D-03-0.908D-02 0.151D-02 0.241D+00
 Coeff:      0.767D+00
 Gap=     0.500 Goal=   None    Shift=    0.000
 RMSDP=4.36D-08 MaxDP=1.32D-06 DE=-4.33D-09 OVMax= 2.78D-06

 Cycle   8  Pass 1  IDiag  1:
 RMSU=  1.89D-08    CP:  1.03D+00  6.07D-01  9.60D-01  1.13D+00  1.12D+00
                    CP:  1.22D+00  1.03D+00
 FoFJK:  IHMeth= 1 ICntrl=     0 DoSepK=T KAlg= 1 I1Cent= 0 FoldK=F
 E= -2753.87437635744     Delta-E=       -0.000000000055 Rises=F Damp=F
 DIIS: error= 6.34D-08 at cycle   8 NSaved=   8.
 NSaved= 8 IEnMin= 8 EnMin= -2753.87437635744     IErMin= 8 ErrMin= 6.34D-08
 ErrMax= 6.34D-08 EMaxC= 1.00D-01 BMatC= 1.50D-12 BMatP= 4.34D-11
 IDIUse=1 WtCom= 1.00D+00 WtEn= 0.00D+00
 Coeff-Com: -0.139D-06-0.361D-05 0.999D-05 0.155D-02-0.218D-02-0.442D-01
 Coeff-Com:  0.259D-01 0.102D+01
 Coeff:     -0.139D-06-0.361D-05 0.999D-05 0.155D-02-0.218D-02-0.442D-01
 Coeff:      0.259D-01 0.102D+01
 Gap=     0.500 Goal=   None    Shift=    0.000
 RMSDP=1.94D-08 MaxDP=7.42D-07 DE=-5.50D-11 OVMax= 5.50D-07

 Cycle   9  Pass 1  IDiag  1:
 RMSU=  3.36D-09    CP:  1.03D+00  6.07D-01  9.60D-01  1.13D+00  1.12D+00
                    CP:  1.24D+00  1.09D+00  1.14D+00
 FoFJK:  IHMeth= 1 ICntrl=     0 DoSepK=T KAlg= 1 I1Cent= 0 FoldK=F
 E= -2753.87437635744     Delta-E=        0.000000000001 Rises=F Damp=F
 DIIS: error= 1.00D-08 at cycle   9 NSaved=   9.
 NSaved= 9 IEnMin= 8 EnMin= -2753.87437635744     IErMin= 9 ErrMin= 1.00D-08
 ErrMax= 1.00D-08 EMaxC= 1.00D-01 BMatC= 7.00D-15 BMatP= 1.50D-12
 IDIUse=1 WtCom= 1.00D+00 WtEn= 0.00D+00
 Coeff-Com:  0.112D-07 0.152D-06-0.119D-05-0.137D-03 0.350D-04 0.481D-02
 Coeff-Com: -0.811D-02-0.151D+00 0.115D+01
 Coeff:      0.112D-07 0.152D-06-0.119D-05-0.137D-03 0.350D-04 0.481D-02
 Coeff:     -0.811D-02-0.151D+00 0.115D+01
 Gap=     0.500 Goal=   None    Shift=    0.000
 RMSDP=1.76D-09 MaxDP=7.82D-08 DE= 9.09D-13 OVMax= 9.80D-08

 SCF Done:  E(RwB97XD) =  -2753.87437636     A.U. after    9 cycles
             Convg  =    0.1761D-08             -V/T =  2.0013
 KE= 2.750252920409D+03 PE=-6.580190922354D+03 EE= 1.076063625588D+03
 Leave Link  502 at Sat May  9 16:58:26 2020, MaxMem= 1073741824 cpu:     265.5
 (Enter /home/matheus/.gaussian/g09/l601.exe)
 Copying SCF densities to generalized density rwf, IOpCl= 0 IROHF=0.

 **********************************************************************

            Population analysis using the SCF density.

 **********************************************************************

 Orbital symmetries:
       Occupied  (A) (A) (A) (A) (A) (A) (A) (A) (A) (A) (A) (A)
                 (A) (A) (A) (A) (A) (A)
       Virtual   (A) (A) (A) (A) (A) (A) (A) (A) (A) (A) (A) (A)
                 (A) (A) (A) (A) (A) (A) (A) (A) (A) (A) (A) (A)
                 (A) (A) (A) (A) (A) (A) (A) (A) (A) (A) (A) (A)
                 (A) (A) (A) (A) (A) (A) (A) (A) (A) (A) (A) (A)
                 (A) (A) (A) (A) (A) (A) (A) (A) (A) (A) (A) (A)
                 (A) (A) (A) (A) (A) (A) (A) (A) (A) (A) (A) (A)
                 (A) (A) (A) (A) (A) (A) (A) (A) (A) (A) (A) (A)
                 (A) (A) (A) (A) (A) (A) (A) (A) (A) (A) (A) (A)
                 (A) (A) (A) (A) (A) (A) (A) (A) (A) (A) (A) (A)
                 (A) (A) (A) (A) (A) (A) (A) (A) (A) (A) (A) (A)
                 (A) (A) (A) (A) (A) (A) (A) (A) (A) (A) (A) (A)
                 (A) (A) (A) (A) (A) (A) (A) (A) (A) (A) (A) (A)
                 (A) (A) (A) (A) (A) (A) (A) (A) (A) (A) (A) (A)
                 (A) (A) (A) (A) (A) (A) (A) (A) (A) (A) (A) (A)
                 (A) (A) (A) (A) (A) (A) (A) (A) (A) (A) (A)
 The electronic state is 1-A.
 Alpha  occ. eigenvalues -- -513.05935 -67.32601 -60.87477 -60.87476 -60.87476
 Alpha  occ. eigenvalues --   -9.77891  -7.47187  -7.47185  -7.47185  -3.33928
 Alpha  occ. eigenvalues --   -3.33928  -3.33928  -3.33927  -3.33927  -0.98488
 Alpha  occ. eigenvalues --   -0.46646  -0.46643  -0.46641
 Alpha virt. eigenvalues --    0.03350   0.05273   0.08783   0.09871   0.12485
 Alpha virt. eigenvalues --    0.13176   0.13827   0.13876   0.16280   0.17410
 Alpha virt. eigenvalues --    0.17996   0.19126   0.21007   0.25374   0.26171
 Alpha virt. eigenvalues --    0.26417   0.29180   0.30891   0.32859   0.35779
 Alpha virt. eigenvalues --    0.36672   0.37852   0.38806   0.39747   0.41691
 Alpha virt. eigenvalues --    0.42005   0.44923   0.52154   0.56359   0.56796
 Alpha virt. eigenvalues --    0.60856   0.65228   0.67757   0.69595   0.70729
 Alpha virt. eigenvalues --    0.72149   0.73493   0.74934   0.75646   0.76922
 Alpha virt. eigenvalues --    0.78319   0.81456   0.84390   0.85066   0.87748
 Alpha virt. eigenvalues --    0.88490   0.89891   0.91063   0.92432   0.95510
 Alpha virt. eigenvalues --    0.97213   0.97987   0.99449   1.00047   1.01369
 Alpha virt. eigenvalues --    1.04439   1.07090   1.07604   1.13312   1.14772
 Alpha virt. eigenvalues --    1.18896   1.22463   1.24877   1.32249   1.33211
 Alpha virt. eigenvalues --    1.35464   1.40617   1.43081   1.47526   1.53831
 Alpha virt. eigenvalues --    1.55126   1.58097   1.58696   1.72588   1.79060
 Alpha virt. eigenvalues --    1.83792   1.85080   1.87034   1.89045   2.14701
 Alpha virt. eigenvalues --    2.20737   2.23039   2.27664   2.27709   2.29388
 Alpha virt. eigenvalues --    2.30748   2.33788   2.36306   2.37977   2.41900
 Alpha virt. eigenvalues --    2.42418   2.45718   2.47900   2.48542   2.49644
 Alpha virt. eigenvalues --    2.50076   2.53125   2.57059   2.58228   2.59464
 Alpha virt. eigenvalues --    2.62056   2.64411   2.68188   2.69546   2.70263
 Alpha virt. eigenvalues --    2.74816   2.79240   2.82727   2.88954   2.90354
 Alpha virt. eigenvalues --    2.94525   2.99996   3.05403   3.09985   3.19261
 Alpha virt. eigenvalues --    3.23142   3.26753   3.32707   3.41246   3.47034
 Alpha virt. eigenvalues --    3.61367   3.66287   3.84297   3.87991   4.02941
 Alpha virt. eigenvalues --    4.44711   4.47013   4.54253   4.57606   4.69103
 Alpha virt. eigenvalues --    4.71508   4.86134   4.88706   4.98327   5.07029
 Alpha virt. eigenvalues --    5.19028   5.20469   5.57382   5.65198   5.78385
 Alpha virt. eigenvalues --    5.94381   6.06501   6.08862   6.78501   6.86544
 Alpha virt. eigenvalues --    7.36967   7.38055   7.62816   7.70635   7.74631
 Alpha virt. eigenvalues --    7.84773   8.00904   8.15826   8.18346   8.27301
 Alpha virt. eigenvalues --    8.29864   8.45292   8.66047   8.95146   9.55062
 Alpha virt. eigenvalues --    9.73416   9.82659   9.89770   9.95292   9.96073
 Alpha virt. eigenvalues --   10.19117  10.22955  10.60576  10.92230  11.56041
 Alpha virt. eigenvalues --   11.61600  11.74621  11.99863  12.01851  13.22862
 Alpha virt. eigenvalues --   13.65873  14.53675  62.55638  64.69861
          Condensed to atoms (all electrons):
              1          2          3          4          5
     1  O    0.001173  -0.000670  -0.000671   0.000663  -0.009008
     2  O   -0.000670   0.004565   0.000184  -0.003601  -0.003546
     3  H   -0.000671   0.000184   0.001078  -0.000188  -0.009370
     4  H    0.000663  -0.003601  -0.000188   0.004110  -0.019784
     5  Kr  -0.009008  -0.003546  -0.009370  -0.019784  36.081054
 Mulliken atomic charges:
              1
     1  O    0.008513
     2  O    0.003067
     3  H    0.008967
     4  H    0.018801
     5  Kr  -0.039347
 Sum of Mulliken atomic charges =   0.00000
 Mulliken charges with hydrogens summed into heavy atoms:
              1
     1  O    0.017480
     2  O    0.021867
     5  Kr  -0.039347
 Sum of Mulliken charges with hydrogens summed into heavy atoms =   0.00000
          Condensed to fragments (all electrons):
     1       0.039347
     2      -0.039347
 Electronic spatial extent (au):  <R**2>=            160.3048
 Charge=              0.0000 electrons
 Dipole moment (field-independent basis, Debye):
    X=              0.0006    Y=              0.0001    Z=              0.0000  Tot=              0.0006
 Quadrupole moment (field-independent basis, Debye-Ang):
   XX=            -17.6249   YY=            -17.6402   ZZ=            -17.6493
   XY=              0.0015   XZ=              0.0031   YZ=             -0.0016
 Traceless Quadrupole moment (field-independent basis, Debye-Ang):
   XX=              0.0132   YY=             -0.0021   ZZ=             -0.0112
   XY=              0.0015   XZ=              0.0031   YZ=             -0.0016
 Octapole moment (field-independent basis, Debye-Ang**2):
  XXX=             51.2837  YYY=              0.1132  ZZZ=              0.1903  XYY=             17.1123
  XXY=              0.0341  XXZ=              0.0592  XZZ=             17.1177  YZZ=              0.0382
  YYZ=              0.0643  XYZ=              0.0003
 Hexadecapole moment (field-independent basis, Debye-Ang**3):
 XXXX=           -117.8884 YYYY=            -18.4439 ZZZZ=            -18.4674 XXXY=             -0.1041
 XXXZ=             -0.1768 YYYX=             -0.1055 YYYZ=             -0.0002 ZZZX=             -0.1786
 ZZZY=             -0.0017 XXYY=            -22.7354 XXZZ=            -22.7430 YYZZ=             -6.1511
 XXYZ=             -0.0011 YYXZ=             -0.0597 ZZXY=             -0.0339
 N-N= 0.000000000000D+00 E-N=-6.580190923140D+03  KE= 2.750252920409D+03
 No NMR shielding tensors so no spin-rotation constants.
 Leave Link  601 at Sat May  9 16:58:26 2020, MaxMem= 1073741824 cpu:       0.8
 (Enter /home/matheus/.gaussian/g09/l122.exe)
 Counterpoise: doing MCBS calculation for fragment   1
 Leave Link  122 at Sat May  9 16:58:26 2020, MaxMem= 1073741824 cpu:       0.0
 (Enter /home/matheus/.gaussian/g09/l301.exe)
 Basis read from rwf:  (5D, 7F)
 No pseudopotential information found on rwf file.
 There are   138 symmetry adapted basis functions of A   symmetry.
 Integral buffers will be    131072 words long.
 Raffenetti 2 integral format.
 Two-electron integral symmetry is turned on.
   138 basis functions,   198 primitive gaussians,   160 cartesian basis functions
     9 alpha electrons        9 beta electrons
       nuclear repulsion energy        36.6553686071 Hartrees.
 IExCor= 4639 DFT=T Ex+Corr=wB97XD ExCW=0 ScaHFX=  1.000000
 ScaDFX=  1.000000  1.000000  1.000000  1.000000 ScalE2=  1.000000  1.000000
 IRadAn=      5 IRanWt=     -1 IRanGd=            0 ICorTp=0
  HFx wShort=  0.000000 wLong=  0.200000 cFull=  0.222036 cShort=  0.000000 cLong=  0.777964
  DFx wShort=  0.000000 wLong=  0.200000 cFull=  0.000000 cShort=  0.000000 cLong=  1.000000
 NAtoms=    5 NActive=    4 NUniq=    4 SFac= 1.00D+00 NAtFMM=   60 NAOKFM=F Big=F
 R6Disp: Dispersion energy =        -0.0002390066 Hartrees.
 Nuclear repulsion after empirical dispersion term =       36.6551296005 Hartrees.
 No density basis found on file   718.
 Leave Link  301 at Sat May  9 16:58:26 2020, MaxMem= 1073741824 cpu:       0.2
 (Enter /home/matheus/.gaussian/g09/l302.exe)
 NPDir=0 NMtPBC=     1 NCelOv=     1 NCel=       1 NClECP=     1 NCelD=      1
         NCelK=      1 NCelE2=     1 NClLst=     1 CellRange=     0.0.
 One-electron integrals computed using PRISM.
 NBasis=   138 RedAO= T  NBF=   138
 NBsUse=   138 1.00D-06 NBFU=   138
 Precomputing XC quadrature grid using
 IXCGrd= 2 IRadAn=           5 IRanWt=          -1 IRanGd=           0 AccXCQ= 0.00D+00.
 NRdTot=     344 NPtTot=       92556 NUsed=       95038 NTot=       95070
 NSgBfM=   160   160   160   160   160 NAtAll=     4     4.
 Leave Link  302 at Sat May  9 16:58:26 2020, MaxMem= 1073741824 cpu:       0.8
 (Enter /home/matheus/.gaussian/g09/l303.exe)
 DipDrv:  MaxL=1.
 Leave Link  303 at Sat May  9 16:58:26 2020, MaxMem= 1073741824 cpu:       0.1
 (Enter /home/matheus/.gaussian/g09/l401.exe)
 Harris functional with IExCor= 4639 diagonalized for initial guess.
 ExpMin= 2.53D-02 ExpMax= 1.53D+04 ExpMxC= 5.22D+02 IAcc=3 IRadAn=         5 AccDes= 0.00D+00
 HarFok:  IExCor= 4639 AccDes= 0.00D+00 IRadAn=         5 IDoV= 1
 ScaDFX=  1.000000  1.000000  1.000000  1.000000
 FoFCou: FMM=F IPFlag=           0 FMFlag=      100000 FMFlg1=           0
         NFxFlg=           0 DoJE=T BraDBF=F KetDBF=T FulRan=T
         Omega=  0.000000  0.000000  1.000000  0.000000  0.000000 ICntrl=     500 IOpCl=  0
         NMat0=    1 NMatS0=    1 NMatT0=    0 NMatD0=    1 NMtDS0=    0 NMtDT0=    0
         I1Cent=           4 NGrid=           0.
 Petite list used in FoFCou.
 Harris En= -146.292603931426    
 Initial guess orbital symmetries:
       Occupied  (A) (A) (A) (A) (A) (A) (A) (A) (A)
       Virtual   (A) (A) (A) (A) (A) (A) (A) (A) (A) (A) (A) (A)
                 (A) (A) (A) (A) (A) (A) (A) (A) (A) (A) (A) (A)
                 (A) (A) (A) (A) (A) (A) (A) (A) (A) (A) (A) (A)
                 (A) (A) (A) (A) (A) (A) (A) (A) (A) (A) (A) (A)
                 (A) (A) (A) (A) (A) (A) (A) (A) (A) (A) (A) (A)
                 (A) (A) (A) (A) (A) (A) (A) (A) (A) (A) (A) (A)
                 (A) (A) (A) (A) (A) (A) (A) (A) (A) (A) (A) (A)
                 (A) (A) (A) (A) (A) (A) (A) (A) (A) (A) (A) (A)
                 (A) (A) (A) (A) (A) (A) (A) (A) (A) (A) (A) (A)
                 (A) (A) (A) (A) (A) (A) (A) (A) (A) (A) (A) (A)
                 (A) (A) (A) (A) (A) (A) (A) (A) (A)
 The electronic state of the initial guess is 1-A.
 Leave Link  401 at Sat May  9 16:58:27 2020, MaxMem= 1073741824 cpu:       2.3
 (Enter /home/matheus/.gaussian/g09/l502.exe)
 Closed shell SCF:
 Requested convergence on RMS density matrix=1.00D-08 within 128 cycles.
 Requested convergence on MAX density matrix=1.00D-06.
 Requested convergence on             energy=1.00D-06.
 No special actions if energy rises.
 Using DIIS extrapolation, IDIIS=  1040.
 Integral symmetry usage will be decided dynamically.
        94980 words used for storage of precomputed grid.
 IEnd=      192360 IEndB=      192360 NGot=  1073741824 MDV=  1073591865
 LenX=  1073591865 LenY=  1073565824
 Fock matrices will be formed incrementally for  20 cycles.

 Cycle   1  Pass 1  IDiag  1:
 FoFJK:  IHMeth= 1 ICntrl=     0 DoSepK=T KAlg= 1 I1Cent= 0 FoldK=F
 FoFCou: FMM=F IPFlag=           0 FMFlag=      100000 FMFlg1=           0
         NFxFlg=           0 DoJE=T BraDBF=F KetDBF=F FulRan=T
         Omega=  0.000000  0.000000  1.000000  0.000000  0.000000 ICntrl=     500 IOpCl=  0
         NMat0=    1 NMatS0=    1 NMatT0=    0 NMatD0=    1 NMtDS0=    0 NMtDT0=    0
         I1Cent=           0 NGrid=           0.
 Symmetry not used in FoFCou.
 E= -151.473829371768    
 DIIS: error= 5.61D-02 at cycle   1 NSaved=   1.
 NSaved= 1 IEnMin= 1 EnMin= -151.473829371768     IErMin= 1 ErrMin= 5.61D-02
 ErrMax= 5.61D-02 EMaxC= 1.00D-01 BMatC= 2.98D-01 BMatP= 2.98D-01
 IDIUse=3 WtCom= 4.39D-01 WtEn= 5.61D-01
 Coeff-Com:  0.100D+01
 Coeff-En:   0.100D+01
 Coeff:      0.100D+01
 Gap=     0.498 Goal=   None    Shift=    0.000
 GapD=    0.498 DampG=2.000 DampE=0.500 DampFc=1.0000 IDamp=-1.
 RMSDP=3.43D-03 MaxDP=1.06D-01              OVMax= 1.08D-01

 Cycle   2  Pass 1  IDiag  1:
 RMSU=  2.37D-03    CP:  9.50D-01
 FoFJK:  IHMeth= 1 ICntrl=     0 DoSepK=T KAlg= 1 I1Cent= 0 FoldK=F
 E= -151.506368428428     Delta-E=       -0.032539056660 Rises=F Damp=F
 DIIS: error= 2.72D-02 at cycle   2 NSaved=   2.
 NSaved= 2 IEnMin= 2 EnMin= -151.506368428428     IErMin= 2 ErrMin= 2.72D-02
 ErrMax= 2.72D-02 EMaxC= 1.00D-01 BMatC= 8.63D-02 BMatP= 2.98D-01
 IDIUse=3 WtCom= 7.28D-01 WtEn= 2.72D-01
 Coeff-Com:  0.326D+00 0.674D+00
 Coeff-En:   0.346D+00 0.654D+00
 Coeff:      0.332D+00 0.668D+00
 Gap=     0.446 Goal=   None    Shift=    0.000
 RMSDP=1.46D-03 MaxDP=4.83D-02 DE=-3.25D-02 OVMax= 6.00D-02

 Cycle   3  Pass 1  IDiag  1:
 RMSU=  5.27D-04    CP:  9.72D-01  6.39D-01
 FoFJK:  IHMeth= 1 ICntrl=     0 DoSepK=T KAlg= 1 I1Cent= 0 FoldK=F
 E= -151.551929419844     Delta-E=       -0.045560991415 Rises=F Damp=F
 DIIS: error= 7.95D-03 at cycle   3 NSaved=   3.
 NSaved= 3 IEnMin= 3 EnMin= -151.551929419844     IErMin= 3 ErrMin= 7.95D-03
 ErrMax= 7.95D-03 EMaxC= 1.00D-01 BMatC= 7.21D-03 BMatP= 8.63D-02
 IDIUse=3 WtCom= 9.20D-01 WtEn= 7.95D-02
 Coeff-Com:  0.184D-01 0.235D+00 0.747D+00
 Coeff-En:   0.000D+00 0.000D+00 0.100D+01
 Coeff:      0.169D-01 0.216D+00 0.767D+00
[...]
         I1Cent=           0 NGrid=           0.
 Symmetry not used in FoFCou.
 E= -2753.87423879404    
 DIIS: error= 1.73D-04 at cycle   1 NSaved=   1.
 NSaved= 1 IEnMin= 1 EnMin= -2753.87423879404     IErMin= 1 ErrMin= 1.73D-04
 ErrMax= 1.73D-04 EMaxC= 1.00D-01 BMatC= 3.85D-06 BMatP= 3.85D-06
 IDIUse=3 WtCom= 9.98D-01 WtEn= 1.73D-03
 Coeff-Com:  0.100D+01
 Coeff-En:   0.100D+01
 Coeff:      0.100D+01
 Gap=     0.498 Goal=   None    Shift=    0.000
 RMSDP=1.46D-05 MaxDP=7.98D-04              OVMax= 3.82D-04

 Cycle   2  Pass 1  IDiag  1:
 RMSU=  1.03D-05    CP:  1.00D+00
 FoFJK:  IHMeth= 1 ICntrl=     0 DoSepK=T KAlg= 1 I1Cent= 0 FoldK=F
 E= -2753.87423946759     Delta-E=       -0.000000673554 Rises=F Damp=F
 DIIS: error= 4.91D-06 at cycle   2 NSaved=   2.
 NSaved= 2 IEnMin= 2 EnMin= -2753.87423946759     IErMin= 2 ErrMin= 4.91D-06
 ErrMax= 4.91D-06 EMaxC= 1.00D-01 BMatC= 4.99D-09 BMatP= 3.85D-06
 IDIUse=1 WtCom= 1.00D+00 WtEn= 0.00D+00
 Coeff-Com: -0.116D-01 0.101D+01
 Coeff:     -0.116D-01 0.101D+01
 Gap=     0.497 Goal=   None    Shift=    0.000
 RMSDP=1.38D-06 MaxDP=6.65D-05 DE=-6.74D-07 OVMax= 5.72D-05

 Cycle   3  Pass 1  IDiag  1:
 RMSU=  5.64D-07    CP:  1.00D+00  1.08D+00
 FoFJK:  IHMeth= 1 ICntrl=     0 DoSepK=T KAlg= 1 I1Cent= 0 FoldK=F
 E= -2753.87423947682     Delta-E=       -0.000000009232 Rises=F Damp=F
 DIIS: error= 8.16D-07 at cycle   3 NSaved=   3.
 NSaved= 3 IEnMin= 3 EnMin= -2753.87423947682     IErMin= 3 ErrMin= 8.16D-07
 ErrMax= 8.16D-07 EMaxC= 1.00D-01 BMatC= 1.44D-10 BMatP= 4.99D-09
 IDIUse=1 WtCom= 1.00D+00 WtEn= 0.00D+00
 Coeff-Com: -0.179D-03-0.850D-01 0.109D+01
 Coeff:     -0.179D-03-0.850D-01 0.109D+01
 Gap=     0.497 Goal=   None    Shift=    0.000
 RMSDP=2.09D-07 MaxDP=7.78D-06 DE=-9.23D-09 OVMax= 1.11D-05

 Cycle   4  Pass 1  IDiag  1:
 RMSU=  5.25D-08    CP:  1.00D+00  1.08D+00  1.23D+00
 FoFJK:  IHMeth= 1 ICntrl=     0 DoSepK=T KAlg= 1 I1Cent= 0 FoldK=F
 E= -2753.87423947707     Delta-E=       -0.000000000244 Rises=F Damp=F
 DIIS: error= 4.78D-07 at cycle   4 NSaved=   4.
 NSaved= 4 IEnMin= 4 EnMin= -2753.87423947707     IErMin= 4 ErrMin= 4.78D-07
 ErrMax= 4.78D-07 EMaxC= 1.00D-01 BMatC= 2.25D-11 BMatP= 1.44D-10
 IDIUse=1 WtCom= 1.00D+00 WtEn= 0.00D+00
 Coeff-Com:  0.243D-03-0.510D-01 0.318D+00 0.733D+00
 Coeff:      0.243D-03-0.510D-01 0.318D+00 0.733D+00
 Gap=     0.497 Goal=   None    Shift=    0.000
 RMSDP=2.86D-08 MaxDP=1.03D-06 DE=-2.44D-10 OVMax= 1.83D-06

 Cycle   5  Pass 1  IDiag  1:
 RMSU=  1.13D-08    CP:  1.00D+00  1.08D+00  1.26D+00  1.02D+00
 FoFJK:  IHMeth= 1 ICntrl=     0 DoSepK=T KAlg= 1 I1Cent= 0 FoldK=F
 E= -2753.87423947709     Delta-E=       -0.000000000020 Rises=F Damp=F
 DIIS: error= 3.46D-08 at cycle   5 NSaved=   5.
 NSaved= 5 IEnMin= 5 EnMin= -2753.87423947709     IErMin= 5 ErrMin= 3.46D-08
 ErrMax= 3.46D-08 EMaxC= 1.00D-01 BMatC= 1.39D-13 BMatP= 2.25D-11
 IDIUse=1 WtCom= 1.00D+00 WtEn= 0.00D+00
 Coeff-Com: -0.216D-04 0.703D-02-0.571D-01-0.647D-01 0.111D+01
 Coeff:     -0.216D-04 0.703D-02-0.571D-01-0.647D-01 0.111D+01
 Gap=     0.497 Goal=   None    Shift=    0.000
 RMSDP=1.01D-08 MaxDP=4.93D-07 DE=-2.00D-11 OVMax= 4.18D-07

 Cycle   6  Pass 1  IDiag  1:
 RMSU=  1.11D-09    CP:  1.00D+00  1.08D+00  1.27D+00  1.09D+00  1.17D+00
 FoFJK:  IHMeth= 1 ICntrl=     0 DoSepK=T KAlg= 1 I1Cent= 0 FoldK=F
 E= -2753.87423947708     Delta-E=        0.000000000005 Rises=F Damp=F
 DIIS: error= 8.11D-09 at cycle   6 NSaved=   6.
 NSaved= 6 IEnMin= 5 EnMin= -2753.87423947709     IErMin= 6 ErrMin= 8.11D-09
 ErrMax= 8.11D-09 EMaxC= 1.00D-01 BMatC= 1.23D-14 BMatP= 1.39D-13
 IDIUse=1 WtCom= 1.00D+00 WtEn= 0.00D+00
 Coeff-Com: -0.109D-04 0.308D-02-0.231D-01-0.326D-01 0.327D+00 0.726D+00
 Coeff:     -0.109D-04 0.308D-02-0.231D-01-0.326D-01 0.327D+00 0.726D+00
 Gap=     0.497 Goal=   None    Shift=    0.000
 RMSDP=6.04D-10 MaxDP=2.56D-08 DE= 4.55D-12 OVMax= 4.40D-08

 SCF Done:  E(RwB97XD) =  -2753.87423948     A.U. after    6 cycles
             Convg  =    0.6038D-09             -V/T =  2.0013
 KE= 2.750294957906D+03 PE=-6.580235582414D+03 EE= 1.076066385031D+03
 Leave Link  502 at Sat May  9 17:23:57 2020, MaxMem= 1073741824 cpu:     117.1
 (Enter /home/matheus/.gaussian/g09/l122.exe)
 Restoring MOs from calculation   4 to rwf.
 Counterpoise: doing MCBS calculation for fragment   1
 Leave Link  122 at Sat May  9 17:23:57 2020, MaxMem= 1073741824 cpu:       0.0
 (Enter /home/matheus/.gaussian/g09/l301.exe)
 Basis read from rwf:  (5D, 7F)
 No pseudopotential information found on rwf file.
 There are   138 symmetry adapted basis functions of A   symmetry.
 Integral buffers will be    131072 words long.
 Raffenetti 2 integral format.
 Two-electron integral symmetry is turned on.
   138 basis functions,   198 primitive gaussians,   160 cartesian basis functions
     9 alpha electrons        9 beta electrons
       nuclear repulsion energy        36.6553686071 Hartrees.
 IExCor= 4639 DFT=T Ex+Corr=wB97XD ExCW=0 ScaHFX=  1.000000
 ScaDFX=  1.000000  1.000000  1.000000  1.000000 ScalE2=  1.000000  1.000000
 IRadAn=      5 IRanWt=     -1 IRanGd=            0 ICorTp=0
  HFx wShort=  0.000000 wLong=  0.200000 cFull=  0.222036 cShort=  0.000000 cLong=  0.777964
  DFx wShort=  0.000000 wLong=  0.200000 cFull=  0.000000 cShort=  0.000000 cLong=  1.000000
 NAtoms=    5 NActive=    4 NUniq=    4 SFac= 1.00D+00 NAtFMM=   60 NAOKFM=F Big=F
 R6Disp: Dispersion energy =        -0.0002390066 Hartrees.
 Nuclear repulsion after empirical dispersion term =       36.6551296005 Hartrees.
 No density basis found on file   718.
 Leave Link  301 at Sat May  9 17:23:57 2020, MaxMem= 1073741824 cpu:       0.2
 (Enter /home/matheus/.gaussian/g09/l302.exe)
 NPDir=0 NMtPBC=     1 NCelOv=     1 NCel=       1 NClECP=     1 NCelD=      1
         NCelK=      1 NCelE2=     1 NClLst=     1 CellRange=     0.0.
 One-electron integrals computed using PRISM.
 NBasis=   138 RedAO= T  NBF=   138
 NBsUse=   138 1.00D-06 NBFU=   138
 Precomputing XC quadrature grid using
 IXCGrd= 2 IRadAn=           5 IRanWt=          -1 IRanGd=           0 AccXCQ= 0.00D+00.
 NRdTot=     344 NPtTot=       92556 NUsed=       95038 NTot=       95070
 NSgBfM=   160   160   160   160   160 NAtAll=     4     4.
 Leave Link  302 at Sat May  9 17:23:57 2020, MaxMem= 1073741824 cpu:       0.8
 (Enter /home/matheus/.gaussian/g09/l303.exe)
 DipDrv:  MaxL=1.
 Leave Link  303 at Sat May  9 17:23:57 2020, MaxMem= 1073741824 cpu:       0.1
 (Enter /home/matheus/.gaussian/g09/l401.exe)
 Initial guess read from the read-write file.
 Guess basis will be translated and rotated to current coordinates.
 Initial guess orbital symmetries:
       Occupied  (A) (A) (A) (A) (A) (A) (A) (A) (A)
       Virtual   (A) (A) (A) (A) (A) (A) (A) (A) (A) (A) (A) (A)
                 (A) (A) (A) (A) (A) (A) (A) (A) (A) (A) (A) (A)
                 (A) (A) (A) (A) (A) (A) (A) (A) (A) (A) (A) (A)
                 (A) (A) (A) (A) (A) (A) (A) (A) (A) (A) (A) (A)
                 (A) (A) (A) (A) (A) (A) (A) (A) (A) (A) (A) (A)
                 (A) (A) (A) (A) (A) (A) (A) (A) (A) (A) (A) (A)
                 (A) (A) (A) (A) (A) (A) (A) (A) (A) (A) (A) (A)
                 (A) (A) (A) (A) (A) (A) (A) (A) (A) (A) (A) (A)
                 (A) (A) (A) (A) (A) (A) (A) (A) (A) (A) (A) (A)
                 (A) (A) (A) (A) (A) (A) (A) (A) (A) (A) (A) (A)
                 (A) (A) (A) (A) (A) (A) (A) (A) (A)
 The electronic state of the initial guess is 1-A.
 Generating alternative initial guess.
 Harris functional with IExCor= 4639 diagonalized for initial guess.
 ExpMin= 2.53D-02 ExpMax= 1.53D+04 ExpMxC= 5.22D+02 IAcc=3 IRadAn=         5 AccDes= 0.00D+00
 HarFok:  IExCor= 4639 AccDes= 0.00D+00 IRadAn=         5 IDoV= 1
 ScaDFX=  1.000000  1.000000  1.000000  1.000000
 FoFCou: FMM=F IPFlag=           0 FMFlag=      100000 FMFlg1=           0
         NFxFlg=           0 DoJE=T BraDBF=F KetDBF=T FulRan=T
         Omega=  0.000000  0.000000  1.000000  0.000000  0.000000 ICntrl=     500 IOpCl=  0
         NMat0=    1 NMatS0=    1 NMatT0=    0 NMatD0=    1 NMtDS0=    0 NMtDT0=    0
         I1Cent=           4 NGrid=           0.
 Petite list used in FoFCou.
 Harris En= -146.292603933817    
 Leave Link  401 at Sat May  9 17:23:58 2020, MaxMem= 1073741824 cpu:       2.7
 (Enter /home/matheus/.gaussian/g09/l502.exe)
 Closed shell SCF:
 Requested convergence on RMS density matrix=1.00D-08 within 128 cycles.
 Requested convergence on MAX density matrix=1.00D-06.
 Requested convergence on             energy=1.00D-06.
 No special actions if energy rises.
 Using DIIS extrapolation, IDIIS=  1040.
 Integral symmetry usage will be decided dynamically.
        94980 words used for storage of precomputed grid.
 IEnd=      192360 IEndB=      192360 NGot=  1073741824 MDV=  1073591865
 LenX=  1073591865 LenY=  1073565824
 Fock matrices will be formed incrementally for  20 cycles.

 Cycle   1  Pass 1  IDiag  1:
 FoFJK:  IHMeth= 1 ICntrl=     0 DoSepK=T KAlg= 1 I1Cent= 0 FoldK=F
 FoFCou: FMM=F IPFlag=           0 FMFlag=      100000 FMFlg1=           0
         NFxFlg=           0 DoJE=T BraDBF=F KetDBF=F FulRan=T
         Omega=  0.000000  0.000000  1.000000  0.000000  0.000000 ICntrl=     500 IOpCl=  0
         NMat0=    1 NMatS0=    1 NMatT0=    0 NMatD0=    1 NMtDS0=    0 NMtDT0=    0
         I1Cent=           0 NGrid=           0.
 Symmetry not used in FoFCou.
 E= -151.556684113615    
 DIIS: error= 3.45D-06 at cycle   1 NSaved=   1.
 NSaved= 1 IEnMin= 1 EnMin= -151.556684113615     IErMin= 1 ErrMin= 3.45D-06
 ErrMax= 3.45D-06 EMaxC= 1.00D-01 BMatC= 2.68D-09 BMatP= 2.68D-09
 IDIUse=1 WtCom= 1.00D+00 WtEn= 0.00D+00
 Coeff-Com:  0.100D+01
 Coeff:      0.100D+01
 Gap=     0.390 Goal=   None    Shift=    0.000
 RMSDP=3.83D-07 MaxDP=9.13D-06              OVMax= 1.49D-05

 Cycle   2  Pass 1  IDiag  1:
 RMSU=  2.70D-07    CP:  1.00D+00
 FoFJK:  IHMeth= 1 ICntrl=     0 DoSepK=T KAlg= 1 I1Cent= 0 FoldK=F
 E= -151.556684116361     Delta-E=       -0.000000002745 Rises=F Damp=F
 DIIS: error= 6.94D-07 at cycle   2 NSaved=   2.
 NSaved= 2 IEnMin= 2 EnMin= -151.556684116361     IErMin= 2 ErrMin= 6.94D-07
 ErrMax= 6.94D-07 EMaxC= 1.00D-01 BMatC= 8.57D-11 BMatP= 2.68D-09
 IDIUse=1 WtCom= 1.00D+00 WtEn= 0.00D+00
 Coeff-Com: -0.947D-01 0.109D+01
 Coeff:     -0.947D-01 0.109D+01
 Gap=     0.390 Goal=   None    Shift=    0.000
 RMSDP=9.89D-08 MaxDP=2.93D-06 DE=-2.75D-09 OVMax= 4.08D-06

 Cycle   3  Pass 1  IDiag  1:
 RMSU=  3.46D-08    CP:  1.00D+00  1.22D+00
 FoFJK:  IHMeth= 1 ICntrl=     0 DoSepK=T KAlg= 1 I1Cent= 0 FoldK=F
 E= -151.556684116504     Delta-E=       -0.000000000144 Rises=F Damp=F
 DIIS: error= 1.97D-07 at cycle   3 NSaved=   3.
 NSaved= 3 IEnMin= 3 EnMin= -151.556684116504     IErMin= 3 ErrMin= 1.97D-07
 ErrMax= 1.97D-07 EMaxC= 1.00D-01 BMatC= 4.38D-12 BMatP= 8.57D-11
 IDIUse=1 WtCom= 1.00D+00 WtEn= 0.00D+00
 Coeff-Com: -0.212D-01 0.766D-01 0.945D+00
 Coeff:     -0.212D-01 0.766D-01 0.945D+00
 Gap=     0.390 Goal=   None    Shift=    0.000
 RMSDP=2.37D-08 MaxDP=6.41D-07 DE=-1.44D-10 OVMax= 1.19D-06

 Cycle   4  Pass 1  IDiag  1:
 RMSU=  6.53D-09    CP:  1.00D+00  1.27D+00  1.23D+00
 FoFJK:  IHMeth= 1 ICntrl=     0 DoSepK=T KAlg= 1 I1Cent= 0 FoldK=F
 E= -151.556684116514     Delta-E=       -0.000000000010 Rises=F Damp=F
 DIIS: error= 6.31D-08 at cycle   4 NSaved=   4.
 NSaved= 4 IEnMin= 4 EnMin= -151.556684116514     IErMin= 4 ErrMin= 6.31D-08
 ErrMax= 6.31D-08 EMaxC= 1.00D-01 BMatC= 6.65D-13 BMatP= 4.38D-12
 IDIUse=1 WtCom= 1.00D+00 WtEn= 0.00D+00
 Coeff-Com:  0.378D-02-0.683D-01 0.866D-01 0.978D+00
 Coeff:      0.378D-02-0.683D-01 0.866D-01 0.978D+00
 Gap=     0.390 Goal=   None    Shift=    0.000
 RMSDP=9.87D-09 MaxDP=2.28D-07 DE=-9.72D-12 OVMax= 5.58D-07

 SCF Done:  E(RwB97XD) =  -151.556684117     A.U. after    4 cycles
             Convg  =    0.9868D-08             -V/T =  2.0057
 KE= 1.506930217761D+02 PE=-4.317834478881D+02 EE= 9.287861239496D+01
 Leave Link  502 at Sat May  9 17:24:02 2020, MaxMem= 1073741824 cpu:      35.1
 (Enter /home/matheus/.gaussian/g09/l122.exe)
 Restoring MOs from calculation   5 to rwf.
 Counterpoise: doing MCBS calculation for fragment   2
 Leave Link  122 at Sat May  9 17:24:02 2020, MaxMem= 1073741824 cpu:       0.0
 (Enter /home/matheus/.gaussian/g09/l301.exe)
 Basis read from rwf:  (5D, 7F)
 No pseudopotential information found on rwf file.
 There are    59 symmetry adapted basis functions of A   symmetry.
 Integral buffers will be    131072 words long.
 Raffenetti 2 integral format.
 Two-electron integral symmetry is turned on.
    59 basis functions,   217 primitive gaussians,    69 cartesian basis functions
    18 alpha electrons       18 beta electrons
       nuclear repulsion energy         0.0000000000 Hartrees.
 IExCor= 4639 DFT=T Ex+Corr=wB97XD ExCW=0 ScaHFX=  1.000000
 ScaDFX=  1.000000  1.000000  1.000000  1.000000 ScalE2=  1.000000  1.000000
 IRadAn=      5 IRanWt=     -1 IRanGd=            0 ICorTp=0
  HFx wShort=  0.000000 wLong=  0.200000 cFull=  0.222036 cShort=  0.000000 cLong=  0.777964
  DFx wShort=  0.000000 wLong=  0.200000 cFull=  0.000000 cShort=  0.000000 cLong=  1.000000
 NAtoms=    5 NActive=    1 NUniq=    1 SFac= 1.00D+00 NAtFMM=   60 NAOKFM=F Big=F
 R6Disp: Dispersion energy =         0.0000000000 Hartrees.
 Nuclear repulsion after empirical dispersion term =        0.0000000000 Hartrees.
 No density basis found on file   718.
 Leave Link  301 at Sat May  9 17:24:02 2020, MaxMem= 1073741824 cpu:       0.2
 (Enter /home/matheus/.gaussian/g09/l302.exe)
 NPDir=0 NMtPBC=     1 NCelOv=     1 NCel=       1 NClECP=     1 NCelD=      1
         NCelK=      1 NCelE2=     1 NClLst=     1 CellRange=     0.0.
 One-electron integrals computed using PRISM.
 NBasis=    59 RedAO= T  NBF=    59
 NBsUse=    59 1.00D-06 NBFU=    59
 Precomputing XC quadrature grid using
 IXCGrd= 2 IRadAn=           5 IRanWt=          -1 IRanGd=           0 AccXCQ= 0.00D+00.
 NRdTot=      81 NPtTot=       30352 NUsed=       30981 NTot=       31013
 NSgBfM=    69    69    69    69    69 NAtAll=     1     1.
 Leave Link  302 at Sat May  9 17:24:02 2020, MaxMem= 1073741824 cpu:       0.6
 (Enter /home/matheus/.gaussian/g09/l303.exe)
 DipDrv:  MaxL=1.
 Leave Link  303 at Sat May  9 17:24:02 2020, MaxMem= 1073741824 cpu:       0.1
 (Enter /home/matheus/.gaussian/g09/l401.exe)
 Initial guess read from the read-write file.
 Guess basis will be translated and rotated to current coordinates.
 Initial guess orbital symmetries:
       Occupied  (A) (A) (A) (A) (A) (A) (A) (A) (A) (A) (A) (A)
                 (A) (A) (A) (A) (A) (A)
       Virtual   (A) (A) (A) (A) (A) (A) (A) (A) (A) (A) (A) (A)
                 (A) (A) (A) (A) (A) (A) (A) (A) (A) (A) (A) (A)
                 (A) (A) (A) (A) (A) (A) (A) (A) (A) (A) (A) (A)
                 (A) (A) (A) (A) (A)
 The electronic state of the initial guess is 1-A.
 Generating alternative initial guess.
 Harris functional with IExCor= 4639 diagonalized for initial guess.
 ExpMin= 4.00D-02 ExpMax= 1.17D+07 ExpMxC= 1.33D+04 IAcc=3 IRadAn=         5 AccDes= 0.00D+00
 HarFok:  IExCor= 4639 AccDes= 0.00D+00 IRadAn=         5 IDoV= 1
 ScaDFX=  1.000000  1.000000  1.000000  1.000000
 FoFCou: FMM=F IPFlag=           0 FMFlag=      100000 FMFlg1=           0
         NFxFlg=           0 DoJE=T BraDBF=F KetDBF=T FulRan=T
         Omega=  0.000000  0.000000  1.000000  0.000000  0.000000 ICntrl=     500 IOpCl=  0
         NMat0=    1 NMatS0=    1 NMatT0=    0 NMatD0=    1 NMtDS0=    0 NMtDT0=    0
         I1Cent=           4 NGrid=           0.
 Petite list used in FoFCou.
 Harris En= -2730.20235208354    
 Leave Link  401 at Sat May  9 17:24:02 2020, MaxMem= 1073741824 cpu:       1.0
 (Enter /home/matheus/.gaussian/g09/l502.exe)
 Closed shell SCF:
 Requested convergence on RMS density matrix=1.00D-08 within 128 cycles.
 Requested convergence on MAX density matrix=1.00D-06.
 Requested convergence on             energy=1.00D-06.
 No special actions if energy rises.
 Using DIIS extrapolation, IDIIS=  1040.
 Integral symmetry usage will be decided dynamically.
        30923 words used for storage of precomputed grid.
 IEnd=       64406 IEndB=       64406 NGot=  1073741824 MDV=  1073698889
 LenX=  1073698889 LenY=  1073693687
 Fock matrices will be formed incrementally for  20 cycles.

 Cycle   1  Pass 1  IDiag  1:
 FoFJK:  IHMeth= 1 ICntrl=     0 DoSepK=T KAlg= 1 I1Cent= 0 FoldK=F
 FoFCou: FMM=F IPFlag=           0 FMFlag=      100000 FMFlg1=           0
         NFxFlg=           0 DoJE=T BraDBF=F KetDBF=F FulRan=T
         Omega=  0.000000  0.000000  1.000000  0.000000  0.000000 ICntrl=     500 IOpCl=  0
         NMat0=    1 NMatS0=    1 NMatT0=    0 NMatD0=    1 NMtDS0=    0 NMtDT0=    0
         I1Cent=           0 NGrid=           0.
 Symmetry not used in FoFCou.
 E= -2753.87421986326    
 DIIS: error= 1.10D-13 at cycle   1 NSaved=   1.
 NSaved= 1 IEnMin= 1 EnMin= -2753.87421986326     IErMin= 1 ErrMin= 1.10D-13
 ErrMax= 1.10D-13 EMaxC= 1.00D-01 BMatC= 1.09D-24 BMatP= 1.09D-24
 IDIUse=1 WtCom= 1.00D+00 WtEn= 0.00D+00
 Coeff-Com:  0.100D+01
 Coeff:      0.100D+01
 Gap=     0.562 Goal=   None    Shift=    0.000
 DSYEVD returned Info=          89 IAlg= 4 N=    59 NDim=    59 NE2=    18198197 trying DSYEV.
 RMSDP=1.64D-14 MaxDP=3.39D-13              OVMax= 1.42D-13

 SCF Done:  E(RwB97XD) =  -2753.87421986     A.U. after    1 cycles
             Convg  =    0.1641D-13             -V/T =  2.0013
 KE= 2.750300381543D+03 PE=-6.580241205809D+03 EE= 1.076066604402D+03
 Leave Link  502 at Sat May  9 17:24:04 2020, MaxMem= 1073741824 cpu:      12.1
 (Enter /home/matheus/.gaussian/g09/l122.exe)
 Restoring MOs from calculation   1 to rwf.
 Counterpoise: corrected energy =   -2905.431305698904
 Counterpoise: BSSE energy =       0.000023112426
 Leave Link  122 at Sat May  9 17:24:04 2020, MaxMem= 1073741824 cpu:       0.0
 (Enter /home/matheus/.gaussian/g09/l108.exe)
 Scan completed.

 Summary of the potential surface scan:
   N      R1          SCF    
 ----  ---------  -----------
    1     3.0000  -2753.87422
    2     3.1000  -2753.87422
    3     3.2000  -2753.87422
    4     3.3000  -2753.87422
    5     3.4000  -2753.87422
    6     3.5000  -2753.87422
    7     3.6000  -2753.87422
    8     3.7000  -2753.87422
    9     3.8000  -2753.87422
   10     3.9000  -2753.87422
   11     4.0000  -2753.87422
   12     4.1000  -2753.87422
   13     4.2000  -2753.87422
   14     4.3000  -2753.87422
   15     4.4000  -2753.87422
   16     4.5000  -2753.87422
   17     4.6000  -2753.87422
   18     4.7000  -2753.87422
   19     4.8000  -2753.87422
   20     4.9000  -2753.87422
   21     5.0000  -2753.87422
 ----  ---------  -----------
  
 Leave Link  108 at Sat May  9 17:24:04 2020, MaxMem= 1073741824 cpu:       0.0
 (Enter /home/matheus/.gaussian/g09/l9999.exe)
 1\1\GINC-REDGIANT\Scan\RwB97XD\Aug-CC-pVTZ\H2Kr1O2\MATHEUS\09-May-2020
 \1\\#p wb97xd/aug-cc-PVTz int=ultrafine counterpoise=2 Scan\\TCC\\0,1\
 O,0,0.,0.,0.725\O,0,0.,0.,-0.725\H,0,0.5905422151,0.7037808064,1.02351
 04166\H,0,0.,0.9187205947,-1.0235104166\Kr,0,0.,R1,0.\\R1=3.,s,20,0.1\
 \Version=EM64L-G09RevC.01\State=1-A\HF=-2753.8742199,-2753.8742199,-27
 53.8742199,-2753.8742199,-2753.8742199,-2753.8742199,-2753.8742199,-27
 53.8742199,-2753.8742199,-2753.8742199,-2753.8742199,-2753.8742199,-27
 53.8742199,-2753.8742199,-2753.8742199,-2753.8742199,-2753.8742199,-27
 53.8742199,-2753.8742199,-2753.8742199,-2753.8742199\RMSD=9.120e-09,1.
 920e-10,6.364e-11,4.204e-11,2.497e-11,1.570e-11,9.722e-12,6.053e-12,3.
 763e-12,2.344e-12,1.453e-12,9.029e-13,5.645e-13,3.510e-13,2.140e-13,1.
 332e-13,8.201e-14,5.747e-14,4.365e-14,2.487e-14,1.641e-14\PG=C01 [X(H2
 Kr1O2)]\\@


 ALL THINGS ARE POSSIBLE EXCEPT SKIING THROUGH A REVOLVING DOOR.
 Job cpu time:  0 days  3 hours 39 minutes  0.8 seconds.
 File lengths (MBytes):  RWF=     33 Int=      0 D2E=      0 Chk=      8 Scr=      1
 Normal termination of Gaussian 09 at Sat May  9 17:24:04 2020.
