 Entering Gaussian System, Link 0=g09
 Input=/home/matheus/.tcc/Inputs/Inputs-wb97xd-default/H2O2-Kr_6.com
 Output=/home/matheus/.tcc/Logs/Logs-wb97xd-default/H2O2-Kr_6.log
 Initial command:
 /home/matheus/.gaussian/g09/l1.exe /home/matheus/.gaussian/g09/scratch/Gau-23952.inp -scrdir=/home/matheus/.gaussian/g09/scratch/
 Entering Link 1 = /home/matheus/.gaussian/g09/l1.exe PID=     23956.
  
 Copyright (c) 1988,1990,1992,1993,1995,1998,2003,2009,2011,
            Gaussian, Inc.  All Rights Reserved.
  
 This is part of the Gaussian(R) 09 program.  It is based on
 the Gaussian(R) 03 system (copyright 2003, Gaussian, Inc.),
 the Gaussian(R) 98 system (copyright 1998, Gaussian, Inc.),
 the Gaussian(R) 94 system (copyright 1995, Gaussian, Inc.),
 the Gaussian 92(TM) system (copyright 1992, Gaussian, Inc.),
 the Gaussian 90(TM) system (copyright 1990, Gaussian, Inc.),
 the Gaussian 88(TM) system (copyright 1988, Gaussian, Inc.),
 the Gaussian 86(TM) system (copyright 1986, Carnegie Mellon
 University), and the Gaussian 82(TM) system (copyright 1983,
 Carnegie Mellon University). Gaussian is a federally registered
 trademark of Gaussian, Inc.
  
 This software contains proprietary and confidential information,
 including trade secrets, belonging to Gaussian, Inc.
  
 This software is provided under written license and may be
 used, copied, transmitted, or stored only in accord with that
 written license.
  
 The following legend is applicable only to US Government
 contracts under FAR:
  
                    RESTRICTED RIGHTS LEGEND
  
 Use, reproduction and disclosure by the US Government is
 subject to restrictions as set forth in subparagraphs (a)
 and (c) of the Commercial Computer Software - Restricted
 Rights clause in FAR 52.227-19.
  
 Gaussian, Inc.
 340 Quinnipiac St., Bldg. 40, Wallingford CT 06492
  
  
 ---------------------------------------------------------------
 Warning -- This program may not be used in any manner that
 competes with the business of Gaussian, Inc. or will provide
 assistance to any competitor of Gaussian, Inc.  The licensee
 of this program is prohibited from giving any competitor of
 Gaussian, Inc. access to this program.  By using this program,
 the user acknowledges that Gaussian, Inc. is engaged in the
 business of creating and licensing software in the field of
 computational chemistry and represents and warrants to the
 licensee that it is not a competitor of Gaussian, Inc. and that
 it will not use this program in any manner prohibited above.
 ---------------------------------------------------------------
  

 Cite this work as:
 Gaussian 09, Revision C.01,
 M. J. Frisch, G. W. Trucks, H. B. Schlegel, G. E. Scuseria, 
 M. A. Robb, J. R. Cheeseman, G. Scalmani, V. Barone, B. Mennucci, 
 G. A. Petersson, H. Nakatsuji, M. Caricato, X. Li, H. P. Hratchian, 
 A. F. Izmaylov, J. Bloino, G. Zheng, J. L. Sonnenberg, M. Hada, 
 M. Ehara, K. Toyota, R. Fukuda, J. Hasegawa, M. Ishida, T. Nakajima, 
 Y. Honda, O. Kitao, H. Nakai, T. Vreven, J. A. Montgomery, Jr., 
 J. E. Peralta, F. Ogliaro, M. Bearpark, J. J. Heyd, E. Brothers, 
 K. N. Kudin, V. N. Staroverov, T. Keith, R. Kobayashi, J. Normand, 
 K. Raghavachari, A. Rendell, J. C. Burant, S. S. Iyengar, J. Tomasi, 
 M. Cossi, N. Rega, J. M. Millam, M. Klene, J. E. Knox, J. B. Cross, 
 V. Bakken, C. Adamo, J. Jaramillo, R. Gomperts, R. E. Stratmann, 
 O. Yazyev, A. J. Austin, R. Cammi, C. Pomelli, J. W. Ochterski, 
 R. L. Martin, K. Morokuma, V. G. Zakrzewski, G. A. Voth, 
 P. Salvador, J. J. Dannenberg, S. Dapprich, A. D. Daniels, 
 O. Farkas, J. B. Foresman, J. V. Ortiz, J. Cioslowski, 
 and D. J. Fox, Gaussian, Inc., Wallingford CT, 2010.
 
 ******************************************
 Gaussian 09:  EM64L-G09RevC.01 23-Sep-2011
                 9-May-2020 
 ******************************************
 %mem=8GB
 %nproc=8
 Will use up to    8 processors via shared memory.
 -------------------------------------------------------
 #p wb97xd/aug-cc-PVTz int=ultrafine counterpoise=2 Scan
 -------------------------------------------------------
 1/38=1,60=1,62=2/1,8;
 2/12=2,17=6,18=5,29=3,40=1/2;
 1/38=1,53=5172,62=2/22;
 3/5=16,6=1,7=10,11=2,16=1,25=1,30=1,74=-58,75=-5/1,2,3;
 4//1;
 5/5=2,38=5/2;
 6/7=2,8=2,9=2,10=2,18=1,28=1/1;
 1/53=4052,62=2,63=1/22;
 3/5=7,6=11,7=10,11=2,16=1,25=1,30=1,74=-58,75=-5,82=7/1,2,3;
 4//1;
 5/5=2,38=5/2;
 6/7=2,8=2,9=2,10=2,18=1,28=1/1;
 1/53=3042,62=2,63=2/22;
 3/5=7,6=11,7=10,11=2,16=1,25=1,30=1,74=-58,75=-5,82=7/1,2,3;
 4//1;
 5/5=2,38=5/2;
 6/7=2,8=2,9=2,10=2,18=1,28=1/1;
 1/53=2032,62=2,63=3/22;
 3/5=7,6=11,7=10,11=2,16=1,25=1,30=1,74=-58,75=-5,82=7/1,2,3;
 4//1;
 5/5=2,38=5/2;
 6/7=2,8=2,9=2,10=2,18=1,28=1/1;
 1/53=1022,62=2,63=4/22;
 3/5=7,6=11,7=10,11=2,16=1,25=1,30=1,74=-58,75=-5,82=7/1,2,3;
 4//1;
 5/5=2,38=5/2;
 6/7=2,8=2,9=2,10=2,18=1,28=1/1;
 1/53=5014,62=2,63=5/22;
 1/60=1,62=2/8(1);
 99/9=1/99;
 2/29=3/2;
 1/53=5173,62=2/22;
 3/5=7,6=11,7=10,11=2,16=1,25=1,30=1,74=-58,75=-5,82=7/1,2,3;
 4/5=5,16=3/1;
 5/5=2,38=5/2;
 1/53=4053,62=2,63=1/22;
 3/5=7,6=11,7=10,11=2,16=1,25=1,30=1,74=-58,75=-5,82=7/1,2,3;
 4/5=5,16=3/1;
 5/5=2,38=5/2;
 1/53=3043,62=2,63=2/22;
 3/5=7,6=11,7=10,11=2,16=1,25=1,30=1,74=-58,75=-5,82=7/1,2,3;
 4/5=5,16=3/1;
 5/5=2,38=5/2;
 1/53=2033,62=2,63=3/22;
 3/5=7,6=11,7=10,11=2,16=1,25=1,30=1,74=-58,75=-5,82=7/1,2,3;
 4/5=5,16=3/1;
 5/5=2,38=5/2;
 1/53=1024,62=2,63=4/22;
 3/5=7,6=11,7=10,11=2,16=1,25=1,30=1,74=-58,75=-5,82=7/1,2,3;
 4/5=5,16=3/1;
 5/5=2,38=5/2;
 1/53=5014,62=2,63=5/22;
 1/60=1,62=2/8(-22);
 99/9=1/99;
 Leave Link    1 at Sat May  9 17:50:06 2020, MaxMem= 1073741824 cpu:       0.2
 (Enter /home/matheus/.gaussian/g09/l101.exe)
 ---
 TCC
 ---
 Charge =  0 Multiplicity = 1 in supermolecule
 Charge =  0 Multiplicity = 1 in fragment  1.
 Charge =  0 Multiplicity = 1 in fragment  2.
 Symbolic Z-Matrix:
 O(Fragment=1)         0.        0.        0.725 
 O(Fragment=1)         0.        0.       -0.725 
 H(Fragment=1)         0.79564   0.45936   1.02351 
 H(Fragment=1)         0.        0.91872  -1.02351 
 Kr(Fragment=2)        0.       R1        0. 
       Variables:
  R1                    3.     Scan 20    0.1    
 
 NAtoms=      5 NQM=        0 NQMF=       0 NMMI=      5 NMMIF=      0
                NMic=       0 NMicF=      0.
                    Isotopes and Nuclear Properties:
 (Nuclear quadrupole moments (NQMom) in fm**2, nuclear magnetic moments (NMagM)
  in nuclear magnetons)

  Atom         1           2           3           4           5
 IAtWgt=          16          16           1           1          84
 AtmWgt=  15.9949146  15.9949146   1.0078250   1.0078250  83.9115064
 NucSpn=           0           0           1           1           0
 AtZEff=   0.0000000   0.0000000   0.0000000   0.0000000   0.0000000
 NQMom=    0.0000000   0.0000000   0.0000000   0.0000000   0.0000000
 NMagM=    0.0000000   0.0000000   2.7928460   2.7928460   0.0000000
 Leave Link  101 at Sat May  9 17:50:06 2020, MaxMem= 1073741824 cpu:       0.4
 (Enter /home/matheus/.gaussian/g09/l108.exe)
 Scan the potential surface.
 Variable   Value     No. Steps Step-Size
 -------- ----------- --------- ---------
     1       3.000000      20      0.1000
 A total of     21 points will be computed.
 Leave Link  108 at Sat May  9 17:50:06 2020, MaxMem= 1073741824 cpu:       0.0
 (Enter /home/matheus/.gaussian/g09/l202.exe)
 ---------------------------------------------------------------------------------------------------
                            Z-MATRIX (ANGSTROMS AND DEGREES)
   CD    Cent   Atom    N1       Length/X        N2       Alpha/Y        N3        Beta/Z          J
 ---------------------------------------------------------------------------------------------------
      1      1  O        0   0.000000          0.000000          0.725000
      2      2  O        0   0.000000          0.000000         -0.725000
      3      3  H        0   0.795635          0.459360          1.023510
      4      4  H        0   0.000000          0.918721         -1.023510
      5      5  Kr       0   0.000000          3.000000          0.000000
 ---------------------------------------------------------------------------------------------------
                         Z-Matrix orientation:                         
 ---------------------------------------------------------------------
 Center     Atomic      Atomic             Coordinates (Angstroms)
 Number     Number       Type             X           Y           Z
 ---------------------------------------------------------------------
      1          8           0        0.000000    0.000000    0.725000
      2          8           0        0.000000    0.000000   -0.725000
      3          1           0        0.795635    0.459360    1.023510
      4          1           0        0.000000    0.918721   -1.023510
      5         36           0        0.000000    3.000000    0.000000
 ---------------------------------------------------------------------
                    Distance matrix (angstroms):
                    1          2          3          4          5
     1  O    0.000000
     2  O    1.450000   0.000000
     3  H    0.966000   1.975180   0.000000
     4  H    1.975180   0.966000   2.243734   0.000000
     5  Kr   3.086361   3.086361   2.852273   2.319331   0.000000
 Stoichiometry    H2KrO2
 Framework group  C1[X(H2KrO2)]
 Deg. of freedom     9
 Full point group                 C1      NOp   1
 Largest Abelian subgroup         C1      NOp   1
 Largest concise Abelian subgroup C1      NOp   1
                         Standard orientation:                         
 ---------------------------------------------------------------------
 Center     Atomic      Atomic             Coordinates (Angstroms)
 Number     Number       Type             X           Y           Z
 ---------------------------------------------------------------------
      1          8           0        2.028906   -0.709015   -0.097019
      2          8           0        2.021423    0.736213    0.020285
      3          1           0        1.580792   -1.073669    0.677176
      4          1           0        1.101242    1.028113    0.055175
      5         36           0       -0.974574   -0.004779   -0.003291
 ---------------------------------------------------------------------
 Rotational constants (GHZ):     25.8520084      2.3670759      2.1795084
 Leave Link  202 at Sat May  9 17:50:06 2020, MaxMem= 1073741824 cpu:       0.0
 (Enter /home/matheus/.gaussian/g09/l122.exe)
 Leave Link  122 at Sat May  9 17:50:06 2020, MaxMem= 1073741824 cpu:       0.0
 (Enter /home/matheus/.gaussian/g09/l301.exe)
 Standard basis: Aug-CC-pVTZ (5D, 7F)
 Ernie: Thresh=  0.10000D-02 Tol=  0.10000D-05 Strict=F.
 Ernie:  38 primitive shells out of 205 were deleted.
 There are   197 symmetry adapted basis functions of A   symmetry.
 Integral buffers will be    131072 words long.
 Raffenetti 2 integral format.
 Two-electron integral symmetry is turned on.
   197 basis functions,   415 primitive gaussians,   229 cartesian basis functions
    27 alpha electrons       27 beta electrons
       nuclear repulsion energy       150.2958872335 Hartrees.
 IExCor= 4639 DFT=T Ex+Corr=wB97XD ExCW=0 ScaHFX=  1.000000
 ScaDFX=  1.000000  1.000000  1.000000  1.000000 ScalE2=  1.000000  1.000000
 IRadAn=      5 IRanWt=     -1 IRanGd=            0 ICorTp=0
  HFx wShort=  0.000000 wLong=  0.200000 cFull=  0.222036 cShort=  0.000000 cLong=  0.777964
  DFx wShort=  0.000000 wLong=  0.200000 cFull=  0.000000 cShort=  0.000000 cLong=  1.000000
 NAtoms=    5 NActive=    5 NUniq=    5 SFac= 1.00D+00 NAtFMM=   60 NAOKFM=F Big=F
 R6Disp: Dispersion energy =        -0.0009174342 Hartrees.
 Nuclear repulsion after empirical dispersion term =      150.2949697994 Hartrees.
 Leave Link  301 at Sat May  9 17:50:06 2020, MaxMem= 1073741824 cpu:       0.2
 (Enter /home/matheus/.gaussian/g09/l302.exe)
 NPDir=0 NMtPBC=     1 NCelOv=     1 NCel=       1 NClECP=     1 NCelD=      1
         NCelK=      1 NCelE2=     1 NClLst=     1 CellRange=     0.0.
 One-electron integrals computed using PRISM.
 NBasis=   197 RedAO= T  NBF=   197
 NBsUse=   197 1.00D-06 NBFU=   197
 Precomputing XC quadrature grid using
 IXCGrd= 2 IRadAn=           5 IRanWt=          -1 IRanGd=           0 AccXCQ= 0.00D+00.
 NRdTot=     427 NPtTot=      123512 NUsed=      126579 NTot=      126611
 NSgBfM=   229   229   229   229   229 NAtAll=     5     5.
 Leave Link  302 at Sat May  9 17:50:06 2020, MaxMem= 1073741824 cpu:       1.0
 (Enter /home/matheus/.gaussian/g09/l303.exe)
 DipDrv:  MaxL=1.
 Leave Link  303 at Sat May  9 17:50:06 2020, MaxMem= 1073741824 cpu:       0.2
 (Enter /home/matheus/.gaussian/g09/l401.exe)
 Harris functional with IExCor= 4639 diagonalized for initial guess.
 ExpMin= 2.53D-02 ExpMax= 1.17D+07 ExpMxC= 1.33D+04 IAcc=3 IRadAn=         5 AccDes= 0.00D+00
 HarFok:  IExCor= 4639 AccDes= 0.00D+00 IRadAn=         5 IDoV= 1
 ScaDFX=  1.000000  1.000000  1.000000  1.000000
 FoFCou: FMM=F IPFlag=           0 FMFlag=      100000 FMFlg1=           0
         NFxFlg=           0 DoJE=T BraDBF=F KetDBF=T FulRan=T
         Omega=  0.000000  0.000000  1.000000  0.000000  0.000000 ICntrl=     500 IOpCl=  0
         NMat0=    1 NMatS0=    1 NMatT0=    0 NMatD0=    1 NMtDS0=    0 NMtDT0=    0
         I1Cent=           4 NGrid=           0.
 Petite list used in FoFCou.
 Harris En= -2876.48785036580    
 Initial guess orbital symmetries:
       Occupied  (A) (A) (A) (A) (A) (A) (A) (A) (A) (A) (A) (A)
                 (A) (A) (A) (A) (A) (A) (A) (A) (A) (A) (A) (A)
                 (A) (A) (A)
       Virtual   (A) (A) (A) (A) (A) (A) (A) (A) (A) (A) (A) (A)
                 (A) (A) (A) (A) (A) (A) (A) (A) (A) (A) (A) (A)
                 (A) (A) (A) (A) (A) (A) (A) (A) (A) (A) (A) (A)
                 (A) (A) (A) (A) (A) (A) (A) (A) (A) (A) (A) (A)
                 (A) (A) (A) (A) (A) (A) (A) (A) (A) (A) (A) (A)
                 (A) (A) (A) (A) (A) (A) (A) (A) (A) (A) (A) (A)
                 (A) (A) (A) (A) (A) (A) (A) (A) (A) (A) (A) (A)
                 (A) (A) (A) (A) (A) (A) (A) (A) (A) (A) (A) (A)
                 (A) (A) (A) (A) (A) (A) (A) (A) (A) (A) (A) (A)
                 (A) (A) (A) (A) (A) (A) (A) (A) (A) (A) (A) (A)
                 (A) (A) (A) (A) (A) (A) (A) (A) (A) (A) (A) (A)
                 (A) (A) (A) (A) (A) (A) (A) (A) (A) (A) (A) (A)
                 (A) (A) (A) (A) (A) (A) (A) (A) (A) (A) (A) (A)
                 (A) (A) (A) (A) (A) (A) (A) (A) (A) (A) (A) (A)
                 (A) (A)
 The electronic state of the initial guess is 1-A.
 Leave Link  401 at Sat May  9 17:50:07 2020, MaxMem= 1073741824 cpu:       4.4
 (Enter /home/matheus/.gaussian/g09/l502.exe)
 Closed shell SCF:
 Requested convergence on RMS density matrix=1.00D-08 within 128 cycles.
 Requested convergence on MAX density matrix=1.00D-06.
 Requested convergence on             energy=1.00D-06.
 No special actions if energy rises.
 Using DIIS extrapolation, IDIIS=  1040.
 Integral symmetry usage will be decided dynamically.
       126521 words used for storage of precomputed grid.
 IEnd=      305468 IEndB=      305468 NGot=  1073741824 MDV=  1073505667
 LenX=  1073505667 LenY=  1073452785
 Fock matrices will be formed incrementally for  20 cycles.

 Cycle   1  Pass 1  IDiag  1:
 FoFJK:  IHMeth= 1 ICntrl=     0 DoSepK=T KAlg= 1 I1Cent= 0 FoldK=F
 FoFCou: FMM=F IPFlag=           0 FMFlag=      100000 FMFlg1=           0
         NFxFlg=           0 DoJE=T BraDBF=F KetDBF=F FulRan=T
         Omega=  0.000000  0.000000  1.000000  0.000000  0.000000 ICntrl=     500 IOpCl=  0
         NMat0=    1 NMatS0=    1 NMatT0=    0 NMatD0=    1 NMtDS0=    0 NMtDT0=    0
         I1Cent=           0 NGrid=           0.
 Symmetry not used in FoFCou.
 E= -2904.93263478977    
 DIIS: error= 7.32D-02 at cycle   1 NSaved=   1.
 NSaved= 1 IEnMin= 1 EnMin= -2904.93263478977     IErMin= 1 ErrMin= 7.32D-02
 ErrMax= 7.32D-02 EMaxC= 1.00D-01 BMatC= 2.18D+00 BMatP= 2.18D+00
 IDIUse=3 WtCom= 2.68D-01 WtEn= 7.32D-01
 Coeff-Com:  0.100D+01
 Coeff-En:   0.100D+01
 Coeff:      0.100D+01
 Gap=     0.511 Goal=   None    Shift=    0.000
 GapD=    0.511 DampG=2.000 DampE=0.500 DampFc=1.0000 IDamp=-1.
 RMSDP=6.16D-03 MaxDP=3.70D-01              OVMax= 1.77D-01

 Cycle   2  Pass 1  IDiag  1:
 RMSU=  4.33D-03    CP:  1.03D+00
 FoFJK:  IHMeth= 1 ICntrl=     0 DoSepK=T KAlg= 1 I1Cent= 0 FoldK=F
 E= -2905.22900354602     Delta-E=       -0.296368756257 Rises=F Damp=F
 DIIS: error= 3.11D-02 at cycle   2 NSaved=   2.
 NSaved= 2 IEnMin= 2 EnMin= -2905.22900354602     IErMin= 2 ErrMin= 3.11D-02
 ErrMax= 3.11D-02 EMaxC= 1.00D-01 BMatC= 5.62D-01 BMatP= 2.18D+00
 IDIUse=3 WtCom= 6.89D-01 WtEn= 3.11D-01
 Coeff-Com:  0.329D+00 0.671D+00
 Coeff-En:   0.213D+00 0.787D+00
 Coeff:      0.293D+00 0.707D+00
 Gap=     0.459 Goal=   None    Shift=    0.000
 RMSDP=2.71D-03 MaxDP=1.59D-01 DE=-2.96D-01 OVMax= 7.67D-02

 Cycle   3  Pass 1  IDiag  1:
 RMSU=  5.51D-04    CP:  1.02D+00  5.78D-01
 FoFJK:  IHMeth= 1 ICntrl=     0 DoSepK=T KAlg= 1 I1Cent= 0 FoldK=F
 E= -2905.41983129171     Delta-E=       -0.190827745689 Rises=F Damp=F
 DIIS: error= 5.27D-03 at cycle   3 NSaved=   3.
 NSaved= 3 IEnMin= 3 EnMin= -2905.41983129171     IErMin= 3 ErrMin= 5.27D-03
 ErrMax= 5.27D-03 EMaxC= 1.00D-01 BMatC= 1.83D-02 BMatP= 5.62D-01
 IDIUse=3 WtCom= 9.47D-01 WtEn= 5.27D-02
 Coeff-Com:  0.353D-01 0.190D+00 0.775D+00
 Coeff-En:   0.000D+00 0.000D+00 0.100D+01
 Coeff:      0.335D-01 0.180D+00 0.787D+00
 Gap=     0.420 Goal=   None    Shift=    0.000
 RMSDP=5.02D-04 MaxDP=2.07D-02 DE=-1.91D-01 OVMax= 2.58D-02

 Cycle   4  Pass 1  IDiag  1:
 RMSU=  2.42D-04    CP:  1.02D+00  6.37D-01  8.87D-01
 FoFJK:  IHMeth= 1 ICntrl=     0 DoSepK=T KAlg= 1 I1Cent= 0 FoldK=F
 E= -2905.42800505325     Delta-E=       -0.008173761533 Rises=F Damp=F
 DIIS: error= 2.37D-03 at cycle   4 NSaved=   4.
 NSaved= 4 IEnMin= 4 EnMin= -2905.42800505325     IErMin= 4 ErrMin= 2.37D-03
 ErrMax= 2.37D-03 EMaxC= 1.00D-01 BMatC= 2.02D-03 BMatP= 1.83D-02
 IDIUse=3 WtCom= 9.76D-01 WtEn= 2.37D-02
 Coeff-Com: -0.107D-02 0.532D-01 0.382D+00 0.566D+00
 Coeff-En:   0.000D+00 0.000D+00 0.000D+00 0.100D+01
 Coeff:     -0.105D-02 0.520D-01 0.373D+00 0.576D+00
 Gap=     0.405 Goal=   None    Shift=    0.000
 RMSDP=1.36D-04 MaxDP=7.63D-03 DE=-8.17D-03 OVMax= 7.24D-03

 Cycle   5  Pass 1  IDiag  1:
 RMSU=  3.82D-05    CP:  1.02D+00  6.34D-01  9.25D-01  6.54D-01
 FoFJK:  IHMeth= 1 ICntrl=     0 DoSepK=T KAlg= 1 I1Cent= 0 FoldK=F
 E= -2905.42924465174     Delta-E=       -0.001239598498 Rises=F Damp=F
 DIIS: error= 2.24D-04 at cycle   5 NSaved=   5.
 NSaved= 5 IEnMin= 5 EnMin= -2905.42924465174     IErMin= 5 ErrMin= 2.24D-04
 ErrMax= 2.24D-04 EMaxC= 1.00D-01 BMatC= 2.09D-05 BMatP= 2.02D-03
 IDIUse=3 WtCom= 9.98D-01 WtEn= 2.24D-03
 Coeff-Com: -0.996D-03 0.124D-01 0.105D+00 0.176D+00 0.707D+00
 Coeff-En:   0.000D+00 0.000D+00 0.000D+00 0.000D+00 0.100D+01
 Coeff:     -0.994D-03 0.124D-01 0.105D+00 0.175D+00 0.708D+00
 Gap=     0.404 Goal=   None    Shift=    0.000
 RMSDP=2.05D-05 MaxDP=9.38D-04 DE=-1.24D-03 OVMax= 1.49D-03

 Cycle   6  Pass 1  IDiag  1:
 RMSU=  1.36D-05    CP:  1.02D+00  6.33D-01  9.31D-01  6.65D-01  1.05D+00
 FoFJK:  IHMeth= 1 ICntrl=     0 DoSepK=T KAlg= 1 I1Cent= 0 FoldK=F
 E= -2905.42925379018     Delta-E=       -0.000009138439 Rises=F Damp=F
 DIIS: error= 1.57D-04 at cycle   6 NSaved=   6.
 NSaved= 6 IEnMin= 6 EnMin= -2905.42925379018     IErMin= 6 ErrMin= 1.57D-04
 ErrMax= 1.57D-04 EMaxC= 1.00D-01 BMatC= 9.85D-06 BMatP= 2.09D-05
 IDIUse=3 WtCom= 9.98D-01 WtEn= 1.57D-03
 Coeff-Com: -0.382D-03-0.481D-02-0.226D-01-0.261D-01 0.417D+00 0.637D+00
 Coeff-En:   0.000D+00 0.000D+00 0.000D+00 0.000D+00 0.263D+00 0.737D+00
 Coeff:     -0.381D-03-0.480D-02-0.226D-01-0.261D-01 0.417D+00 0.637D+00
 Gap=     0.404 Goal=   None    Shift=    0.000
 RMSDP=1.06D-05 MaxDP=4.36D-04 DE=-9.14D-06 OVMax= 7.32D-04

 Cycle   7  Pass 1  IDiag  1:
 RMSU=  3.89D-06    CP:  1.02D+00  6.33D-01  9.36D-01  6.68D-01  1.18D+00
                    CP:  7.89D-01
 FoFJK:  IHMeth= 1 ICntrl=     0 DoSepK=T KAlg= 1 I1Cent= 0 FoldK=F
 E= -2905.42926060982     Delta-E=       -0.000006819634 Rises=F Damp=F
 DIIS: error= 2.02D-05 at cycle   7 NSaved=   7.
 NSaved= 7 IEnMin= 7 EnMin= -2905.42926060982     IErMin= 7 ErrMin= 2.02D-05
 ErrMax= 2.02D-05 EMaxC= 1.00D-01 BMatC= 9.40D-08 BMatP= 9.85D-06
 IDIUse=1 WtCom= 1.00D+00 WtEn= 0.00D+00
 Coeff-Com: -0.417D-05-0.143D-02-0.941D-02-0.133D-01 0.173D-01 0.995D-01
 Coeff-Com:  0.907D+00
 Coeff:     -0.417D-05-0.143D-02-0.941D-02-0.133D-01 0.173D-01 0.995D-01
 Coeff:      0.907D+00
 Gap=     0.404 Goal=   None    Shift=    0.000
 RMSDP=2.18D-06 MaxDP=5.56D-05 DE=-6.82D-06 OVMax= 1.76D-04

 Cycle   8  Pass 1  IDiag  1:
 RMSU=  8.93D-07    CP:  1.02D+00  6.33D-01  9.37D-01  6.68D-01  1.20D+00
                    CP:  8.40D-01  1.14D+00
 FoFJK:  IHMeth= 1 ICntrl=     0 DoSepK=T KAlg= 1 I1Cent= 0 FoldK=F
 E= -2905.42926075703     Delta-E=       -0.000000147218 Rises=F Damp=F
 DIIS: error= 4.44D-06 at cycle   8 NSaved=   8.
 NSaved= 8 IEnMin= 8 EnMin= -2905.42926075703     IErMin= 8 ErrMin= 4.44D-06
 ErrMax= 4.44D-06 EMaxC= 1.00D-01 BMatC= 4.68D-09 BMatP= 9.40D-08
 IDIUse=1 WtCom= 1.00D+00 WtEn= 0.00D+00
 Coeff-Com:  0.203D-04 0.119D-03 0.330D-03 0.708D-04-0.229D-01-0.271D-01
 Coeff-Com:  0.578D-01 0.992D+00
 Coeff:      0.203D-04 0.119D-03 0.330D-03 0.708D-04-0.229D-01-0.271D-01
 Coeff:      0.578D-01 0.992D+00
 Gap=     0.404 Goal=   None    Shift=    0.000
 RMSDP=7.15D-07 MaxDP=1.55D-05 DE=-1.47D-07 OVMax= 6.95D-05

 Cycle   9  Pass 1  IDiag  1:
 RMSU=  2.40D-07    CP:  1.02D+00  6.33D-01  9.37D-01  6.68D-01  1.20D+00
                    CP:  8.48D-01  1.21D+00  1.31D+00
 FoFJK:  IHMeth= 1 ICntrl=     0 DoSepK=T KAlg= 1 I1Cent= 0 FoldK=F
 E= -2905.42926076880     Delta-E=       -0.000000011767 Rises=F Damp=F
 DIIS: error= 1.60D-06 at cycle   9 NSaved=   9.
 NSaved= 9 IEnMin= 9 EnMin= -2905.42926076880     IErMin= 9 ErrMin= 1.60D-06
 ErrMax= 1.60D-06 EMaxC= 1.00D-01 BMatC= 4.01D-10 BMatP= 4.68D-09
 IDIUse=1 WtCom= 1.00D+00 WtEn= 0.00D+00
 Coeff-Com: -0.142D-06 0.829D-04 0.563D-03 0.602D-03-0.172D-02-0.551D-02
 Coeff-Com: -0.486D-01-0.193D-01 0.107D+01
 Coeff:     -0.142D-06 0.829D-04 0.563D-03 0.602D-03-0.172D-02-0.551D-02
 Coeff:     -0.486D-01-0.193D-01 0.107D+01
 Gap=     0.404 Goal=   None    Shift=    0.000
 RMSDP=2.34D-07 MaxDP=6.67D-06 DE=-1.18D-08 OVMax= 2.79D-05

 Cycle  10  Pass 1  IDiag  1:
 RMSU=  8.08D-08    CP:  1.02D+00  6.33D-01  9.37D-01  6.68D-01  1.20D+00
                    CP:  8.50D-01  1.22D+00  1.41D+00  1.31D+00
 FoFJK:  IHMeth= 1 ICntrl=     0 DoSepK=T KAlg= 1 I1Cent= 0 FoldK=F
 E= -2905.42926076996     Delta-E=       -0.000000001161 Rises=F Damp=F
 DIIS: error= 3.76D-07 at cycle  10 NSaved=  10.
 NSaved=10 IEnMin=10 EnMin= -2905.42926076996     IErMin=10 ErrMin= 3.76D-07
 ErrMax= 3.76D-07 EMaxC= 1.00D-01 BMatC= 4.41D-11 BMatP= 4.01D-10
 IDIUse=1 WtCom= 1.00D+00 WtEn= 0.00D+00
 Coeff-Com: -0.134D-05-0.863D-06 0.242D-04 0.253D-04 0.199D-02 0.241D-02
 Coeff-Com: -0.641D-02-0.112D+00 0.154D+00 0.960D+00
 Coeff:     -0.134D-05-0.863D-06 0.242D-04 0.253D-04 0.199D-02 0.241D-02
 Coeff:     -0.641D-02-0.112D+00 0.154D+00 0.960D+00
 Gap=     0.404 Goal=   None    Shift=    0.000
 RMSDP=6.88D-08 MaxDP=1.43D-06 DE=-1.16D-09 OVMax= 8.91D-06

 Cycle  11  Pass 1  IDiag  1:
 RMSU=  1.98D-08    CP:  1.02D+00  6.33D-01  9.37D-01  6.68D-01  1.20D+00
                    CP:  8.50D-01  1.22D+00  1.42D+00  1.44D+00  1.27D+00
 FoFJK:  IHMeth= 1 ICntrl=     0 DoSepK=T KAlg= 1 I1Cent= 0 FoldK=F
 E= -2905.42926077007     Delta-E=       -0.000000000111 Rises=F Damp=F
 DIIS: error= 9.64D-08 at cycle  11 NSaved=  11.
 NSaved=11 IEnMin=11 EnMin= -2905.42926077007     IErMin=11 ErrMin= 9.64D-08
 ErrMax= 9.64D-08 EMaxC= 1.00D-01 BMatC= 2.99D-12 BMatP= 4.41D-11
 IDIUse=1 WtCom= 1.00D+00 WtEn= 0.00D+00
 Coeff-Com:  0.369D-06-0.465D-05-0.416D-04-0.275D-04-0.300D-04 0.236D-03
 Coeff-Com:  0.483D-02 0.279D-02-0.838D-01-0.683D-01 0.114D+01
 Coeff:      0.369D-06-0.465D-05-0.416D-04-0.275D-04-0.300D-04 0.236D-03
 Coeff:      0.483D-02 0.279D-02-0.838D-01-0.683D-01 0.114D+01
 Gap=     0.404 Goal=   None    Shift=    0.000
 RMSDP=2.19D-08 MaxDP=4.07D-07 DE=-1.11D-10 OVMax= 2.84D-06

 Cycle  12  Pass 1  IDiag  1:
 RMSU=  4.53D-09    CP:  1.02D+00  6.33D-01  9.37D-01  6.68D-01  1.20D+00
                    CP:  8.50D-01  1.22D+00  1.43D+00  1.47D+00  1.40D+00
                    CP:  1.27D+00
 FoFJK:  IHMeth= 1 ICntrl=     0 DoSepK=T KAlg= 1 I1Cent= 0 FoldK=F
 E= -2905.42926077009     Delta-E=       -0.000000000013 Rises=F Damp=F
 DIIS: error= 2.22D-08 at cycle  12 NSaved=  12.
 NSaved=12 IEnMin=12 EnMin= -2905.42926077009     IErMin=12 ErrMin= 2.22D-08
 ErrMax= 2.22D-08 EMaxC= 1.00D-01 BMatC= 1.04D-13 BMatP= 2.99D-12
 IDIUse=1 WtCom= 1.00D+00 WtEn= 0.00D+00
 Coeff-Com:  0.876D-09-0.382D-06-0.183D-05-0.425D-05-0.102D-03-0.122D-03
 Coeff-Com:  0.353D-03 0.454D-02-0.153D-02-0.342D-01-0.870D-01 0.112D+01
 Coeff:      0.876D-09-0.382D-06-0.183D-05-0.425D-05-0.102D-03-0.122D-03
 Coeff:      0.353D-03 0.454D-02-0.153D-02-0.342D-01-0.870D-01 0.112D+01
 Gap=     0.404 Goal=   None    Shift=    0.000
 RMSDP=4.29D-09 MaxDP=1.40D-07 DE=-1.27D-11 OVMax= 4.74D-07

 SCF Done:  E(RwB97XD) =  -2905.42926077     A.U. after   12 cycles
             Convg  =    0.4286D-08             -V/T =  2.0015
 KE= 2.900996146972D+03 PE=-7.238491278028D+03 EE= 1.281770900486D+03
 Leave Link  502 at Sat May  9 17:50:47 2020, MaxMem= 1073741824 cpu:     324.9
 (Enter /home/matheus/.gaussian/g09/l601.exe)
 Copying SCF densities to generalized density rwf, IOpCl= 0 IROHF=0.

 **********************************************************************

            Population analysis using the SCF density.

 **********************************************************************

 Orbital symmetries:
       Occupied  (A) (A) (A) (A) (A) (A) (A) (A) (A) (A) (A) (A)
                 (A) (A) (A) (A) (A) (A) (A) (A) (A) (A) (A) (A)
                 (A) (A) (A)
       Virtual   (A) (A) (A) (A) (A) (A) (A) (A) (A) (A) (A) (A)
                 (A) (A) (A) (A) (A) (A) (A) (A) (A) (A) (A) (A)
                 (A) (A) (A) (A) (A) (A) (A) (A) (A) (A) (A) (A)
                 (A) (A) (A) (A) (A) (A) (A) (A) (A) (A) (A) (A)
                 (A) (A) (A) (A) (A) (A) (A) (A) (A) (A) (A) (A)
                 (A) (A) (A) (A) (A) (A) (A) (A) (A) (A) (A) (A)
                 (A) (A) (A) (A) (A) (A) (A) (A) (A) (A) (A) (A)
                 (A) (A) (A) (A) (A) (A) (A) (A) (A) (A) (A) (A)
                 (A) (A) (A) (A) (A) (A) (A) (A) (A) (A) (A) (A)
                 (A) (A) (A) (A) (A) (A) (A) (A) (A) (A) (A) (A)
                 (A) (A) (A) (A) (A) (A) (A) (A) (A) (A) (A) (A)
                 (A) (A) (A) (A) (A) (A) (A) (A) (A) (A) (A) (A)
                 (A) (A) (A) (A) (A) (A) (A) (A) (A) (A) (A) (A)
                 (A) (A) (A) (A) (A) (A) (A) (A) (A) (A) (A) (A)
                 (A) (A)
 The electronic state is 1-A.
 Alpha  occ. eigenvalues -- -513.08304 -67.34986 -60.89869 -60.89859 -60.89851
 Alpha  occ. eigenvalues --  -19.31837 -19.31508  -9.80293  -7.49619  -7.49587
 Alpha  occ. eigenvalues --   -7.49559  -3.36360  -3.36354  -3.36332  -3.36306
 Alpha  occ. eigenvalues --   -3.36303  -1.22284  -1.01211  -1.00694  -0.66382
 Alpha  occ. eigenvalues --   -0.54993  -0.52481  -0.49319  -0.48936  -0.47948
 Alpha  occ. eigenvalues --   -0.42336  -0.37021
 Alpha virt. eigenvalues --    0.03376   0.04252   0.08169   0.09106   0.09982
 Alpha virt. eigenvalues --    0.11806   0.12706   0.14361   0.17109   0.17330
 Alpha virt. eigenvalues --    0.18004   0.18943   0.20160   0.22038   0.23043
 Alpha virt. eigenvalues --    0.23922   0.24764   0.27565   0.29759   0.32035
 Alpha virt. eigenvalues --    0.33626   0.34795   0.36455   0.38155   0.39413
 Alpha virt. eigenvalues --    0.40566   0.41690   0.46707   0.51500   0.53434
 Alpha virt. eigenvalues --    0.54578   0.58175   0.60547   0.62611   0.66548
 Alpha virt. eigenvalues --    0.68271   0.69551   0.72084   0.73677   0.74032
 Alpha virt. eigenvalues --    0.75212   0.75846   0.77444   0.78461   0.81964
 Alpha virt. eigenvalues --    0.82843   0.85056   0.87083   0.87743   0.89007
 Alpha virt. eigenvalues --    0.89965   0.93125   0.94486   0.96186   0.97439
 Alpha virt. eigenvalues --    0.98058   1.00955   1.02911   1.05733   1.08368
 Alpha virt. eigenvalues --    1.08540   1.12929   1.16270   1.20511   1.22609
 Alpha virt. eigenvalues --    1.25728   1.30931   1.35463   1.36561   1.38938
 Alpha virt. eigenvalues --    1.41740   1.45865   1.48424   1.52747   1.57647
 Alpha virt. eigenvalues --    1.65596   1.67236   1.81236   1.88979   1.90783
 Alpha virt. eigenvalues --    1.98361   2.02420   2.04748   2.07676   2.11946
 Alpha virt. eigenvalues --    2.13809   2.15570   2.17074   2.19733   2.23054
 Alpha virt. eigenvalues --    2.25098   2.26926   2.27655   2.28968   2.30490
 Alpha virt. eigenvalues --    2.34411   2.36042   2.41928   2.44955   2.45195
 Alpha virt. eigenvalues --    2.46718   2.48876   2.51091   2.53687   2.54497
 Alpha virt. eigenvalues --    2.56614   2.59393   2.62925   2.66604   2.69184
 Alpha virt. eigenvalues --    2.70156   2.72895   2.79169   2.83675   2.86601
 Alpha virt. eigenvalues --    2.92027   2.98732   3.07223   3.09648   3.57949
 Alpha virt. eigenvalues --    3.66548   3.92642   3.94248   3.97287   4.03173
 Alpha virt. eigenvalues --    4.07928   4.09679   4.21809   4.22562   4.25621
 Alpha virt. eigenvalues --    4.37388   4.45374   4.53563   4.58055   4.69389
 Alpha virt. eigenvalues --    4.93153   4.96299   4.97798   5.08346   5.14661
 Alpha virt. eigenvalues --    5.15367   5.41840   5.83128   5.99628   6.11668
 Alpha virt. eigenvalues --    6.14545   6.26060   6.33547   6.38851   6.49338
 Alpha virt. eigenvalues --    6.61913   6.73331   6.75829   6.80898   6.83303
 Alpha virt. eigenvalues --    6.87895   6.88487   6.91211   6.92476   7.01250
 Alpha virt. eigenvalues --    7.07045   7.13179   7.22520   7.46263   7.48193
 Alpha virt. eigenvalues --    7.81325   8.05366   8.12676  14.08906  14.65389
          Condensed to atoms (all electrons):
              1          2          3          4          5
     1  O    8.232051  -0.199377   0.183276   0.016850  -0.019308
     2  O   -0.199377   8.298601   0.021682   0.158620  -0.020666
     3  H    0.183276   0.021682   0.575198  -0.002560   0.001447
     4  H    0.016850   0.158620  -0.002560   0.588842  -0.007218
     5  Kr  -0.019308  -0.020666   0.001447  -0.007218  36.039815
 Mulliken atomic charges:
              1
     1  O   -0.213493
     2  O   -0.258860
     3  H    0.220958
     4  H    0.245466
     5  Kr   0.005929
 Sum of Mulliken atomic charges =   0.00000
 Mulliken charges with hydrogens summed into heavy atoms:
              1
     1  O    0.007465
     2  O   -0.013394
     5  Kr   0.005929
 Sum of Mulliken charges with hydrogens summed into heavy atoms =   0.00000
          Condensed to fragments (all electrons):
     1      -0.005929
     2       0.005929
 Electronic spatial extent (au):  <R**2>=            479.5148
 Charge=              0.0000 electrons
 Dipole moment (field-independent basis, Debye):
    X=             -2.6121    Y=             -0.2795    Z=              1.2030  Tot=              2.8894
 Quadrupole moment (field-independent basis, Debye-Ang):
   XX=            -37.1418   YY=            -27.8825   ZZ=            -29.3287
   XY=             -1.1404   XZ=              1.9459   YZ=             -1.5649
 Traceless Quadrupole moment (field-independent basis, Debye-Ang):
   XX=             -5.6908   YY=              3.5685   ZZ=              2.1223
   XY=             -1.1404   XZ=              1.9459   YZ=             -1.5649
 Octapole moment (field-independent basis, Debye-Ang**2):
  XXX=            -41.2959  YYY=             -0.7442  ZZZ=              0.6642  XYY=             -6.3002
  XXY=             -3.0135  XXZ=              2.2076  XZZ=             -6.6095  YZZ=             -1.4098
  YYZ=              1.8976  XYZ=             -2.5005
 Hexadecapole moment (field-independent basis, Debye-Ang**3):
 XXXX=           -459.3213 YYYY=            -62.8011 ZZZZ=            -29.6987 XXXY=             -4.6533
 XXXZ=              2.9101 YYYX=             -2.1604 YYYZ=             -2.2641 ZZZX=              1.4766
 ZZZY=             -1.4796 XXYY=            -83.4220 XXZZ=            -73.6476 YYZZ=            -16.1880
 XXYZ=             -4.0668 YYXZ=              2.9985 ZZXY=             -2.2485
 N-N= 1.502949697994D+02 E-N=-7.238491274694D+03  KE= 2.900996146972D+03
 No NMR shielding tensors so no spin-rotation constants.
 Leave Link  601 at Sat May  9 17:50:48 2020, MaxMem= 1073741824 cpu:       0.8
 (Enter /home/matheus/.gaussian/g09/l122.exe)
 Counterpoise: doing DCBS calculation for fragment   1 NewBq=T
 Leave Link  122 at Sat May  9 17:50:48 2020, MaxMem= 1073741824 cpu:       0.0
 (Enter /home/matheus/.gaussian/g09/l301.exe)
 Basis read from rwf:  (5D, 7F)
 No pseudopotential information found on rwf file.
 There are   197 symmetry adapted basis functions of A   symmetry.
 Integral buffers will be    131072 words long.
 Raffenetti 2 integral format.
 Two-electron integral symmetry is turned on.
   197 basis functions,   415 primitive gaussians,   229 cartesian basis functions
     9 alpha electrons        9 beta electrons
       nuclear repulsion energy        36.6440881780 Hartrees.
 IExCor= 4639 DFT=T Ex+Corr=wB97XD ExCW=0 ScaHFX=  1.000000
 ScaDFX=  1.000000  1.000000  1.000000  1.000000 ScalE2=  1.000000  1.000000
 IRadAn=      5 IRanWt=     -1 IRanGd=            0 ICorTp=0
  HFx wShort=  0.000000 wLong=  0.200000 cFull=  0.222036 cShort=  0.000000 cLong=  0.777964
  DFx wShort=  0.000000 wLong=  0.200000 cFull=  0.000000 cShort=  0.000000 cLong=  1.000000
 NAtoms=    5 NActive=    5 NUniq=    5 SFac= 1.00D+00 NAtFMM=   60 NAOKFM=F Big=F
 R6Disp: Dispersion energy =        -0.0002538791 Hartrees.
 Nuclear repulsion after empirical dispersion term =       36.6438342990 Hartrees.
 No density basis found on file   718.
 Leave Link  301 at Sat May  9 17:50:48 2020, MaxMem= 1073741824 cpu:       0.2
 (Enter /home/matheus/.gaussian/g09/l302.exe)
 NPDir=0 NMtPBC=     1 NCelOv=     1 NCel=       1 NClECP=     1 NCelD=      1
         NCelK=      1 NCelE2=     1 NClLst=     1 CellRange=     0.0.
 One-electron integrals computed using PRISM.
 NBasis=   197 RedAO= T  NBF=   197
 NBsUse=   197 1.00D-06 NBFU=   197
 Precomputing XC quadrature grid using
 IXCGrd= 2 IRadAn=           5 IRanWt=          -1 IRanGd=           0 AccXCQ= 0.00D+00.
 NRdTot=     427 NPtTot=      123512 NUsed=      126579 NTot=      126611
 NSgBfM=   229   229   229   229   229 NAtAll=     5     5.
 Leave Link  302 at Sat May  9 17:50:48 2020, MaxMem= 1073741824 cpu:       1.0
 (Enter /home/matheus/.gaussian/g09/l303.exe)
 DipDrv:  MaxL=1.
 Leave Link  303 at Sat May  9 17:50:48 2020, MaxMem= 1073741824 cpu:       0.2
 (Enter /home/matheus/.gaussian/g09/l401.exe)
 Harris functional with IExCor= 4639 diagonalized for initial guess.
 ExpMin= 2.53D-02 ExpMax= 1.17D+07 ExpMxC= 1.33D+04 IAcc=3 IRadAn=         5 AccDes= 0.00D+00
 HarFok:  IExCor= 4639 AccDes= 0.00D+00 IRadAn=         5 IDoV= 1
 ScaDFX=  1.000000  1.000000  1.000000  1.000000
 FoFCou: FMM=F IPFlag=           0 FMFlag=      100000 FMFlg1=           0
         NFxFlg=           0 DoJE=T BraDBF=F KetDBF=T FulRan=T
         Omega=  0.000000  0.000000  1.000000  0.000000  0.000000 ICntrl=     500 IOpCl=  0
         NMat0=    1 NMatS0=    1 NMatT0=    0 NMatD0=    1 NMtDS0=    0 NMtDT0=    0
         I1Cent=           4 NGrid=           0.
 Petite list used in FoFCou.
 Harris En= -146.294552929551    
 Initial guess orbital symmetries:
       Occupied  (A) (A) (A) (A) (A) (A) (A) (A) (A)
       Virtual   (A) (A) (A) (A) (A) (A) (A) (A) (A) (A) (A) (A)
                 (A) (A) (A) (A) (A) (A) (A) (A) (A) (A) (A) (A)
                 (A) (A) (A) (A) (A) (A) (A) (A) (A) (A) (A) (A)
                 (A) (A) (A) (A) (A) (A) (A) (A) (A) (A) (A) (A)
                 (A) (A) (A) (A) (A) (A) (A) (A) (A) (A) (A) (A)
                 (A) (A) (A) (A) (A) (A) (A) (A) (A) (A) (A) (A)
                 (A) (A) (A) (A) (A) (A) (A) (A) (A) (A) (A) (A)
                 (A) (A) (A) (A) (A) (A) (A) (A) (A) (A) (A) (A)
                 (A) (A) (A) (A) (A) (A) (A) (A) (A) (A) (A) (A)
                 (A) (A) (A) (A) (A) (A) (A) (A) (A) (A) (A) (A)
                 (A) (A) (A) (A) (A) (A) (A) (A) (A) (A) (A) (A)
                 (A) (A) (A) (A) (A) (A) (A) (A) (A) (A) (A) (A)
                 (A) (A) (A) (A) (A) (A) (A) (A) (A) (A) (A) (A)
                 (A) (A) (A) (A) (A) (A) (A) (A) (A) (A) (A) (A)
                 (A) (A) (A) (A) (A) (A) (A) (A) (A) (A) (A) (A)
                 (A) (A) (A) (A) (A) (A) (A) (A)
 The electronic state of the initial guess is 1-A.
 Leave Link  401 at Sat May  9 17:50:48 2020, MaxMem= 1073741824 cpu:       4.3
 (Enter /home/matheus/.gaussian/g09/l502.exe)
 Closed shell SCF:
 Requested convergence on RMS density matrix=1.00D-08 within 128 cycles.
 Requested convergence on MAX density matrix=1.00D-06.
 Requested convergence on             energy=1.00D-06.
 No special actions if energy rises.
 Using DIIS extrapolation, IDIIS=  1040.
 Integral symmetry usage will be decided dynamically.
       126521 words used for storage of precomputed grid.
 IEnd=      305468 IEndB=      305468 NGot=  1073741824 MDV=  1073505667
 LenX=  1073505667 LenY=  1073452785
 Fock matrices will be formed incrementally for  20 cycles.

 Cycle   1  Pass 1  IDiag  1:
 FoFJK:  IHMeth= 1 ICntrl=     0 DoSepK=T KAlg= 1 I1Cent= 0 FoldK=F
 FoFCou: FMM=F IPFlag=           0 FMFlag=      100000 FMFlg1=           0
         NFxFlg=           0 DoJE=T BraDBF=F KetDBF=F FulRan=T
         Omega=  0.000000  0.000000  1.000000  0.000000  0.000000 ICntrl=     500 IOpCl=  0
         NMat0=    1 NMatS0=    1 NMatT0=    0 NMatD0=    1 NMtDS0=    0 NMtDT0=    0
         I1Cent=           0 NGrid=           0.
 Symmetry not used in FoFCou.
 E= -151.475923377085    
 DIIS: error= 3.13D-02 at cycle   1 NSaved=   1.
 NSaved= 1 IEnMin= 1 EnMin= -151.475923377085     IErMin= 1 ErrMin= 3.13D-02
 ErrMax= 3.13D-02 EMaxC= 1.00D-01 BMatC= 3.01D-01 BMatP= 3.01D-01
 IDIUse=3 WtCom= 6.87D-01 WtEn= 3.13D-01
 Coeff-Com:  0.100D+01
 Coeff-En:   0.100D+01
 Coeff:      0.100D+01
 Gap=     0.510 Goal=   None    Shift=    0.000
 GapD=    0.510 DampG=2.000 DampE=0.500 DampFc=1.0000 IDamp=-1.
 RMSDP=2.48D-03 MaxDP=1.10D-01              OVMax= 1.08D-01

 Cycle   2  Pass 1  IDiag  1:
 RMSU=  1.71D-03    CP:  9.46D-01
 FoFJK:  IHMeth= 1 ICntrl=     0 DoSepK=T KAlg= 1 I1Cent= 0 FoldK=F
 E= -151.507742300957     Delta-E=       -0.031818923872 Rises=F Damp=F
 DIIS: error= 1.42D-02 at cycle   2 NSaved=   2.
 NSaved= 2 IEnMin= 2 EnMin= -151.507742300957     IErMin= 2 ErrMin= 1.42D-02
 ErrMax= 1.42D-02 EMaxC= 1.00D-01 BMatC= 8.85D-02 BMatP= 3.01D-01
 IDIUse=3 WtCom= 8.58D-01 WtEn= 1.42D-01
 Coeff-Com:  0.328D+00 0.672D+00
 Coeff-En:   0.353D+00 0.647D+00
 Coeff:      0.332D+00 0.668D+00
 Gap=     0.458 Goal=   None    Shift=    0.000
 RMSDP=1.04D-03 MaxDP=4.94D-02 DE=-3.18D-02 OVMax= 6.04D-02

 Cycle   3  Pass 1  IDiag  1:
 RMSU=  3.73D-04    CP:  9.69D-01  6.43D-01
 FoFJK:  IHMeth= 1 ICntrl=     0 DoSepK=T KAlg= 1 I1Cent= 0 FoldK=F
 E= -151.554605653557     Delta-E=       -0.046863352601 Rises=F Damp=F
 DIIS: error= 4.29D-03 at cycle   3 NSaved=   3.
 NSaved= 3 IEnMin= 3 EnMin= -151.554605653557     IErMin= 3 ErrMin= 4.29D-03
 ErrMax= 4.29D-03 EMaxC= 1.00D-01 BMatC= 7.31D-03 BMatP= 8.85D-02
 IDIUse=3 WtCom= 9.57D-01 WtEn= 4.29D-02
 Coeff-Com:  0.173D-01 0.233D+00 0.749D+00
 Coeff-En:   0.000D+00 0.000D+00 0.100D+01
 Coeff:      0.165D-01 0.223D+00 0.760D+00
 Gap=     0.402 Goal=   None    Shift=    0.000
 RMSDP=2.95D-04 MaxDP=1.14D-02 DE=-4.69D-02 OVMax= 1.73D-02

 Cycle   4  Pass 1  IDiag  1:
 RMSU=  6.82D-05    CP:  9.63D-01  7.47D-01  7.93D-01
 FoFJK:  IHMeth= 1 ICntrl=     0 DoSepK=T KAlg= 1 I1Cent= 0 FoldK=F
 E= -151.559342048793     Delta-E=       -0.004736395236 Rises=F Damp=F
 DIIS: error= 4.99D-04 at cycle   4 NSaved=   4.
 NSaved= 4 IEnMin= 4 EnMin= -151.559342048793     IErMin= 4 ErrMin= 4.99D-04
 ErrMax= 4.99D-04 EMaxC= 1.00D-01 BMatC= 8.32D-05 BMatP= 7.31D-03
 IDIUse=3 WtCom= 9.95D-01 WtEn= 4.99D-03
 Coeff-Com:  0.410D-03 0.304D-01 0.176D+00 0.793D+00
 Coeff-En:   0.000D+00 0.000D+00 0.000D+00 0.100D+01
 Coeff:      0.408D-03 0.303D-01 0.175D+00 0.794D+00
 Gap=     0.399 Goal=   None    Shift=    0.000
 RMSDP=3.99D-05 MaxDP=2.20D-03 DE=-4.74D-03 OVMax= 1.94D-03

 Cycle   5  Pass 1  IDiag  1:
 RMSU=  1.43D-05    CP:  9.64D-01  7.39D-01  8.41D-01  1.09D+00
 FoFJK:  IHMeth= 1 ICntrl=     0 DoSepK=T KAlg= 1 I1Cent= 0 FoldK=F
 E= -151.559400784437     Delta-E=       -0.000058735644 Rises=F Damp=F
 DIIS: error= 5.30D-05 at cycle   5 NSaved=   5.
 NSaved= 5 IEnMin= 5 EnMin= -151.559400784437     IErMin= 5 ErrMin= 5.30D-05
 ErrMax= 5.30D-05 EMaxC= 1.00D-01 BMatC= 8.20D-07 BMatP= 8.32D-05
 IDIUse=1 WtCom= 1.00D+00 WtEn= 0.00D+00
 Coeff-Com: -0.668D-03-0.114D-01-0.376D-01-0.759D-01 0.113D+01
 Coeff:     -0.668D-03-0.114D-01-0.376D-01-0.759D-01 0.113D+01
 Gap=     0.399 Goal=   None    Shift=    0.000
 RMSDP=1.21D-05 MaxDP=4.63D-04 DE=-5.87D-05 OVMax= 7.02D-04

 Cycle   6  Pass 1  IDiag  1:
 RMSU=  2.83D-06    CP:  9.64D-01  7.38D-01  8.53D-01  1.16D+00  1.27D+00
 FoFJK:  IHMeth= 1 ICntrl=     0 DoSepK=T KAlg= 1 I1Cent= 0 FoldK=F
 E= -151.559402669989     Delta-E=       -0.000001885552 Rises=F Damp=F
 DIIS: error= 1.07D-05 at cycle   6 NSaved=   6.
 NSaved= 6 IEnMin= 6 EnMin= -151.559402669989     IErMin= 6 ErrMin= 1.07D-05
 ErrMax= 1.07D-05 EMaxC= 1.00D-01 BMatC= 3.14D-08 BMatP= 8.20D-07
 IDIUse=1 WtCom= 1.00D+00 WtEn= 0.00D+00
 Coeff-Com:  0.264D-04-0.512D-03-0.472D-02-0.210D-01-0.131D-01 0.104D+01
 Coeff:      0.264D-04-0.512D-03-0.472D-02-0.210D-01-0.131D-01 0.104D+01
 Gap=     0.399 Goal=   None    Shift=    0.000
 RMSDP=2.03D-06 MaxDP=7.03D-05 DE=-1.89D-06 OVMax= 1.87D-04

 Cycle   7  Pass 1  IDiag  1:
 RMSU=  6.79D-07    CP:  9.64D-01  7.38D-01  8.54D-01  1.17D+00  1.32D+00
                    CP:  1.32D+00
 FoFJK:  IHMeth= 1 ICntrl=     0 DoSepK=T KAlg= 1 I1Cent= 0 FoldK=F
 E= -151.559402754960     Delta-E=       -0.000000084971 Rises=F Damp=F
 DIIS: error= 4.57D-06 at cycle   7 NSaved=   7.
 NSaved= 7 IEnMin= 7 EnMin= -151.559402754960     IErMin= 7 ErrMin= 4.57D-06
 ErrMax= 4.57D-06 EMaxC= 1.00D-01 BMatC= 1.02D-08 BMatP= 3.14D-08
 IDIUse=1 WtCom= 1.00D+00 WtEn= 0.00D+00
 Coeff-Com:  0.347D-04 0.228D-03-0.366D-03-0.599D-02-0.508D-01 0.391D+00
 Coeff-Com:  0.666D+00
 Coeff:      0.347D-04 0.228D-03-0.366D-03-0.599D-02-0.508D-01 0.391D+00
 Coeff:      0.666D+00
 Gap=     0.399 Goal=   None    Shift=    0.000
 RMSDP=4.83D-07 MaxDP=2.31D-05 DE=-8.50D-08 OVMax= 4.83D-05

 Cycle   8  Pass 1  IDiag  1:
 RMSU=  2.78D-07    CP:  9.64D-01  7.38D-01  8.54D-01  1.17D+00  1.33D+00
                    CP:  1.37D+00  1.06D+00
 FoFJK:  IHMeth= 1 ICntrl=     0 DoSepK=T KAlg= 1 I1Cent= 0 FoldK=F
 E= -151.559402764442     Delta-E=       -0.000000009482 Rises=F Damp=F
 DIIS: error= 2.91D-06 at cycle   8 NSaved=   8.
 NSaved= 8 IEnMin= 8 EnMin= -151.559402764442     IErMin= 8 ErrMin= 2.91D-06
 ErrMax= 2.91D-06 EMaxC= 1.00D-01 BMatC= 3.43D-09 BMatP= 1.02D-08
 IDIUse=1 WtCom= 1.00D+00 WtEn= 0.00D+00
 Coeff-Com:  0.339D-05 0.228D-03 0.135D-02 0.353D-02-0.151D-01-0.193D+00
 Coeff-Com:  0.366D+00 0.837D+00
 Coeff:      0.339D-05 0.228D-03 0.135D-02 0.353D-02-0.151D-01-0.193D+00
 Coeff:      0.366D+00 0.837D+00
 Gap=     0.399 Goal=   None    Shift=    0.000
 RMSDP=3.56D-07 MaxDP=1.30D-05 DE=-9.48D-09 OVMax= 4.30D-05

 Cycle   9  Pass 1  IDiag  1:
 RMSU=  1.04D-07    CP:  9.64D-01  7.38D-01  8.54D-01  1.17D+00  1.33D+00
                    CP:  1.41D+00  1.31D+00  1.03D+00
 FoFJK:  IHMeth= 1 ICntrl=     0 DoSepK=T KAlg= 1 I1Cent= 0 FoldK=F
 E= -151.559402768491     Delta-E=       -0.000000004049 Rises=F Damp=F
 DIIS: error= 4.10D-07 at cycle   9 NSaved=   9.
 NSaved= 9 IEnMin= 9 EnMin= -151.559402768491     IErMin= 9 ErrMin= 4.10D-07
 ErrMax= 4.10D-07 EMaxC= 1.00D-01 BMatC= 4.34D-11 BMatP= 3.43D-09
 IDIUse=1 WtCom= 1.00D+00 WtEn= 0.00D+00
 Coeff-Com: -0.214D-06 0.219D-05 0.380D-04 0.779D-04 0.369D-02-0.275D-01
 Coeff-Com: -0.160D-01 0.396D-01 0.100D+01
 Coeff:     -0.214D-06 0.219D-05 0.380D-04 0.779D-04 0.369D-02-0.275D-01
 Coeff:     -0.160D-01 0.396D-01 0.100D+01
 Gap=     0.399 Goal=   None    Shift=    0.000
 RMSDP=7.73D-08 MaxDP=1.72D-06 DE=-4.05D-09 OVMax= 9.08D-06

 Cycle  10  Pass 1  IDiag  1:
 RMSU=  1.64D-08    CP:  9.64D-01  7.38D-01  8.54D-01  1.17D+00  1.33D+00
                    CP:  1.41D+00  1.34D+00  1.13D+00  1.34D+00
 FoFJK:  IHMeth= 1 ICntrl=     0 DoSepK=T KAlg= 1 I1Cent= 0 FoldK=F
 E= -151.559402768614     Delta-E=       -0.000000000123 Rises=F Damp=F
 DIIS: error= 1.10D-07 at cycle  10 NSaved=  10.
 NSaved=10 IEnMin=10 EnMin= -151.559402768614     IErMin=10 ErrMin= 1.10D-07
 ErrMax= 1.10D-07 EMaxC= 1.00D-01 BMatC= 5.35D-12 BMatP= 4.34D-11
 IDIUse=1 WtCom= 1.00D+00 WtEn= 0.00D+00
 Coeff-Com:  0.154D-06-0.159D-04-0.127D-03-0.405D-03 0.161D-02 0.165D-01
 Coeff-Com: -0.373D-01-0.811D-01 0.316D-02 0.110D+01
 Coeff:      0.154D-06-0.159D-04-0.127D-03-0.405D-03 0.161D-02 0.165D-01
 Coeff:     -0.373D-01-0.811D-01 0.316D-02 0.110D+01
 Gap=     0.399 Goal=   None    Shift=    0.000
 RMSDP=3.01D-08 MaxDP=7.57D-07 DE=-1.23D-10 OVMax= 3.78D-06

 Cycle  11  Pass 1  IDiag  1:
 RMSU=  5.22D-09    CP:  9.64D-01  7.38D-01  8.54D-01  1.17D+00  1.33D+00
                    CP:  1.41D+00  1.35D+00  1.16D+00  1.47D+00  1.39D+00
 FoFJK:  IHMeth= 1 ICntrl=     0 DoSepK=T KAlg= 1 I1Cent= 0 FoldK=F
 E= -151.559402768628     Delta-E=       -0.000000000014 Rises=F Damp=F
 DIIS: error= 2.71D-08 at cycle  11 NSaved=  11.
 NSaved=11 IEnMin=11 EnMin= -151.559402768628     IErMin=11 ErrMin= 2.71D-08
 ErrMax= 2.71D-08 EMaxC= 1.00D-01 BMatC= 1.52D-13 BMatP= 5.35D-12
 IDIUse=1 WtCom= 1.00D+00 WtEn= 0.00D+00
 Coeff-Com: -0.955D-07-0.107D-05-0.396D-06-0.300D-05-0.123D-03 0.552D-03
 Coeff-Com:  0.307D-02 0.320D-02-0.437D-01-0.852D-01 0.112D+01
 Coeff:     -0.955D-07-0.107D-05-0.396D-06-0.300D-05-0.123D-03 0.552D-03
 Coeff:      0.307D-02 0.320D-02-0.437D-01-0.852D-01 0.112D+01
 Gap=     0.399 Goal=   None    Shift=    0.000
 RMSDP=5.67D-09 MaxDP=2.08D-07 DE=-1.40D-11 OVMax= 6.48D-07

 SCF Done:  E(RwB97XD) =  -151.559402769     A.U. after   11 cycles
             Convg  =    0.5666D-08             -V/T =  2.0058
 KE= 1.506872837477D+02 PE=-4.317667626768D+02 EE= 9.287624186149D+01
 Leave Link  502 at Sat May  9 17:51:26 2020, MaxMem= 1073741824 cpu:     304.4
 (Enter /home/matheus/.gaussian/g09/l601.exe)
 Copying SCF densities to generalized density rwf, IOpCl= 0 IROHF=0.

 **********************************************************************

            Population analysis using the SCF density.

 **********************************************************************

 Orbital symmetries:
       Occupied  (A) (A) (A) (A) (A) (A) (A) (A) (A)
       Virtual   (A) (A) (A) (A) (A) (A) (A) (A) (A) (A) (A) (A)
                 (A) (A) (A) (A) (A) (A) (A) (A) (A) (A) (A) (A)
                 (A) (A) (A) (A) (A) (A) (A) (A) (A) (A) (A) (A)
                 (A) (A) (A) (A) (A) (A) (A) (A) (A) (A) (A) (A)
                 (A) (A) (A) (A) (A) (A) (A) (A) (A) (A) (A) (A)
                 (A) (A) (A) (A) (A) (A) (A) (A) (A) (A) (A) (A)
                 (A) (A) (A) (A) (A) (A) (A) (A) (A) (A) (A) (A)
                 (A) (A) (A) (A) (A) (A) (A) (A) (A) (A) (A) (A)
                 (A) (A) (A) (A) (A) (A) (A) (A) (A) (A) (A) (A)
                 (A) (A) (A) (A) (A) (A) (A) (A) (A) (A) (A) (A)
                 (A) (A) (A) (A) (A) (A) (A) (A) (A) (A) (A) (A)
                 (A) (A) (A) (A) (A) (A) (A) (A) (A) (A) (A) (A)
                 (A) (A) (A) (A) (A) (A) (A) (A) (A) (A) (A) (A)
                 (A) (A) (A) (A) (A) (A) (A) (A) (A) (A) (A) (A)
                 (A) (A) (A) (A) (A) (A) (A) (A) (A) (A) (A) (A)
                 (A) (A) (A) (A) (A) (A) (A) (A)
 The electronic state is 1-A.
 Alpha  occ. eigenvalues --  -19.32137 -19.32132  -1.22602  -1.01198  -0.66488
 Alpha  occ. eigenvalues --   -0.54670  -0.52221  -0.42831  -0.37385
 Alpha virt. eigenvalues --    0.02481   0.03815   0.07200   0.08343   0.09004
 Alpha virt. eigenvalues --    0.10099   0.10720   0.14650   0.17441   0.17695
 Alpha virt. eigenvalues --    0.18382   0.19102   0.20673   0.22572   0.25207
 Alpha virt. eigenvalues --    0.27197   0.29787   0.30445   0.33366   0.34141
 Alpha virt. eigenvalues --    0.35043   0.36872   0.38037   0.39150   0.39794
 Alpha virt. eigenvalues --    0.43164   0.45220   0.45993   0.48000   0.50838
 Alpha virt. eigenvalues --    0.52579   0.57625   0.59173   0.61300   0.65460
 Alpha virt. eigenvalues --    0.68813   0.73049   0.75264   0.76194   0.77852
 Alpha virt. eigenvalues --    0.79750   0.80946   0.85798   0.89355   0.89437
 Alpha virt. eigenvalues --    0.90981   0.92677   0.95049   0.95354   0.98382
 Alpha virt. eigenvalues --    1.01031   1.02091   1.03085   1.07641   1.09831
 Alpha virt. eigenvalues --    1.13347   1.15998   1.19496   1.20109   1.22106
 Alpha virt. eigenvalues --    1.27295   1.29711   1.30538   1.31256   1.32638
 Alpha virt. eigenvalues --    1.33829   1.35259   1.37581   1.39447   1.39977
 Alpha virt. eigenvalues --    1.46151   1.47717   1.51287   1.52979   1.56100
 Alpha virt. eigenvalues --    1.58845   1.62377   1.66055   1.73356   1.76076
 Alpha virt. eigenvalues --    1.81021   1.84520   1.90107   1.96434   2.00613
 Alpha virt. eigenvalues --    2.03744   2.07799   2.12674   2.16582   2.20195
 Alpha virt. eigenvalues --    2.25879   2.27014   2.30183   2.34135   2.34754
 Alpha virt. eigenvalues --    2.47596   2.52925   2.54852   2.58940   2.59728
 Alpha virt. eigenvalues --    2.63548   2.73309   2.81127   2.83612   2.90870
 Alpha virt. eigenvalues --    2.96075   3.06175   3.07896   3.25995   3.30420
 Alpha virt. eigenvalues --    3.40234   3.55958   3.63183   3.65193   3.77739
 Alpha virt. eigenvalues --    3.78658   3.81198   3.82138   3.82408   3.84885
 Alpha virt. eigenvalues --    3.86766   3.88978   3.91593   3.94783   3.96297
 Alpha virt. eigenvalues --    3.97705   4.00309   4.05168   4.09876   4.10206
 Alpha virt. eigenvalues --    4.13452   4.22344   4.23963   4.27431   4.34233
 Alpha virt. eigenvalues --    4.39427   4.47925   4.58769   4.69590   4.92881
 Alpha virt. eigenvalues --    4.96466   4.97810   5.08497   5.14543   5.15587
 Alpha virt. eigenvalues --    5.41470   5.82873   5.98984   6.11481   6.14362
 Alpha virt. eigenvalues --    6.25937   6.33386   6.38656   6.49196   6.61634
 Alpha virt. eigenvalues --    6.72950   6.75581   6.80389   6.82993   6.87544
 Alpha virt. eigenvalues --    6.88153   6.90912   6.92209   7.00921   7.06735
 Alpha virt. eigenvalues --    7.12873   7.22237   7.45917   7.47928   7.80919
 Alpha virt. eigenvalues --    8.05033   8.11412  10.96438  14.08596  14.63631
 Alpha virt. eigenvalues --   14.83446  14.89440  15.11080  29.03041  29.03384
 Alpha virt. eigenvalues --   29.07869  29.14781  29.23154  49.15047 148.31676
 Alpha virt. eigenvalues --  148.40485 148.71850 752.64559
          Condensed to atoms (all electrons):
              1          2          3          4          5
     1  O    8.194272  -0.191087   0.194001   0.013781   0.002250
     2  O   -0.191087   8.230376   0.020185   0.178494  -0.002147
     3  H    0.194001   0.020185   0.570988   0.001064  -0.002068
     4  H    0.013781   0.178494   0.001064   0.583031  -0.004421
     5  Kr   0.002250  -0.002147  -0.002068  -0.004421   0.001229
 Mulliken atomic charges:
              1
     1  O   -0.213218
     2  O   -0.235821
     3  H    0.215830
     4  H    0.228051
     5  Kr   0.005158
 Sum of Mulliken atomic charges =   0.00000
 Mulliken charges with hydrogens summed into heavy atoms:
              1
     1  O    0.002612
     2  O   -0.007770
     5  Kr   0.005158
 Sum of Mulliken charges with hydrogens summed into heavy atoms =   0.00000
          Condensed to fragments (all electrons):
     1      -0.005158
     2       0.005158
 Electronic spatial extent (au):  <R**2>=            318.3054
 Charge=              0.0000 electrons
 Dipole moment (field-independent basis, Debye):
    X=             -2.3013    Y=             -0.1221    Z=              1.3599  Tot=              2.6759
 Quadrupole moment (field-independent basis, Debye-Ang):
   XX=            -19.7059   YY=            -10.2643   ZZ=            -11.7907
   XY=             -1.2131   XZ=              1.8334   YZ=             -1.5949
 Traceless Quadrupole moment (field-independent basis, Debye-Ang):
   XX=             -5.7856   YY=              3.6560   ZZ=              2.1296
   XY=             -1.2131   XZ=              1.8334   YZ=             -1.5949
 Octapole moment (field-independent basis, Debye-Ang**2):
  XXX=            -91.0736  YYY=             -0.8084  ZZZ=              0.7648  XYY=            -23.1887
  XXY=             -2.8562  XXZ=              2.3014  XZZ=            -23.5489  YZZ=             -1.4371
  YYZ=              1.9350  XYZ=             -2.5049
 Hexadecapole moment (field-independent basis, Debye-Ang**3):
 XXXX=           -340.4266 YYYY=            -44.5475 ZZZZ=            -11.6076 XXXY=             -4.3902
 XXXZ=              2.7419 YYYX=             -2.0956 YYYZ=             -2.3186 ZZZX=              1.4525
 ZZZY=             -1.5312 XXYY=            -60.6041 XXZZ=            -50.9896 YYZZ=            -10.1186
 XXYZ=             -4.0803 YYXZ=              2.9743 ZZXY=             -2.1947
 N-N= 3.664383429896D+01 E-N=-4.317667625828D+02  KE= 1.506872837477D+02
 No NMR shielding tensors so no spin-rotation constants.
 Leave Link  601 at Sat May  9 17:51:27 2020, MaxMem= 1073741824 cpu:       0.7
 (Enter /home/matheus/.gaussian/g09/l122.exe)
 Counterpoise: doing DCBS calculation for fragment   2 NewBq=T
 Leave Link  122 at Sat May  9 17:51:27 2020, MaxMem= 1073741824 cpu:       0.0
 (Enter /home/matheus/.gaussian/g09/l301.exe)
 Basis read from rwf:  (5D, 7F)
 No pseudopotential information found on rwf file.
 There are   197 symmetry adapted basis functions of A   symmetry.
 Integral buffers will be    131072 words long.
 Raffenetti 2 integral format.
 Two-electron integral symmetry is turned on.
   197 basis functions,   415 primitive gaussians,   229 cartesian basis functions
    18 alpha electrons       18 beta electrons
       nuclear repulsion energy         0.0000000000 Hartrees.
 IExCor= 4639 DFT=T Ex+Corr=wB97XD ExCW=0 ScaHFX=  1.000000
 ScaDFX=  1.000000  1.000000  1.000000  1.000000 ScalE2=  1.000000  1.000000
 IRadAn=      5 IRanWt=     -1 IRanGd=            0 ICorTp=0
  HFx wShort=  0.000000 wLong=  0.200000 cFull=  0.222036 cShort=  0.000000 cLong=  0.777964
  DFx wShort=  0.000000 wLong=  0.200000 cFull=  0.000000 cShort=  0.000000 cLong=  1.000000
 NAtoms=    5 NActive=    5 NUniq=    5 SFac= 1.00D+00 NAtFMM=   60 NAOKFM=F Big=F
 R6Disp: Dispersion energy =         0.0000000000 Hartrees.
 Nuclear repulsion after empirical dispersion term =        0.0000000000 Hartrees.
 No density basis found on file   718.
 Leave Link  301 at Sat May  9 17:51:27 2020, MaxMem= 1073741824 cpu:       0.2
 (Enter /home/matheus/.gaussian/g09/l302.exe)
 NPDir=0 NMtPBC=     1 NCelOv=     1 NCel=       1 NClECP=     1 NCelD=      1
         NCelK=      1 NCelE2=     1 NClLst=     1 CellRange=     0.0.
 One-electron integrals computed using PRISM.
 NBasis=   197 RedAO= T  NBF=   197
 NBsUse=   197 1.00D-06 NBFU=   197
 Precomputing XC quadrature grid using
 IXCGrd= 2 IRadAn=           5 IRanWt=          -1 IRanGd=           0 AccXCQ= 0.00D+00.
 NRdTot=     427 NPtTot=      123512 NUsed=      126579 NTot=      126611
 NSgBfM=   229   229   229   229   229 NAtAll=     5     5.
 Leave Link  302 at Sat May  9 17:51:27 2020, MaxMem= 1073741824 cpu:       1.0
 (Enter /home/matheus/.gaussian/g09/l303.exe)
 DipDrv:  MaxL=1.
 Leave Link  303 at Sat May  9 17:51:27 2020, MaxMem= 1073741824 cpu:       0.2
 (Enter /home/matheus/.gaussian/g09/l401.exe)
 Harris functional with IExCor= 4639 diagonalized for initial guess.
 ExpMin= 2.53D-02 ExpMax= 1.17D+07 ExpMxC= 1.33D+04 IAcc=3 IRadAn=         5 AccDes= 0.00D+00
 HarFok:  IExCor= 4639 AccDes= 0.00D+00 IRadAn=         5 IDoV= 1
 ScaDFX=  1.000000  1.000000  1.000000  1.000000
 FoFCou: FMM=F IPFlag=           0 FMFlag=      100000 FMFlg1=           0
         NFxFlg=           0 DoJE=T BraDBF=F KetDBF=T FulRan=T
         Omega=  0.000000  0.000000  1.000000  0.000000  0.000000 ICntrl=     500 IOpCl=  0
         NMat0=    1 NMatS0=    1 NMatT0=    0 NMatD0=    1 NMtDS0=    0 NMtDT0=    0
         I1Cent=           4 NGrid=           0.
 Petite list used in FoFCou.
 Harris En= -2730.20447759707    
 Initial guess orbital symmetries:
       Occupied  (A) (A) (A) (A) (A) (A) (A) (A) (A) (A) (A) (A)
                 (A) (A) (A) (A) (A) (A)
       Virtual   (A) (A) (A) (A) (A) (A) (A) (A) (A) (A) (A) (A)
                 (A) (A) (A) (A) (A) (A) (A) (A) (A) (A) (A) (A)
                 (A) (A) (A) (A) (A) (A) (A) (A) (A) (A) (A) (A)
                 (A) (A) (A) (A) (A) (A) (A) (A) (A) (A) (A) (A)
                 (A) (A) (A) (A) (A) (A) (A) (A) (A) (A) (A) (A)
                 (A) (A) (A) (A) (A) (A) (A) (A) (A) (A) (A) (A)
                 (A) (A) (A) (A) (A) (A) (A) (A) (A) (A) (A) (A)
                 (A) (A) (A) (A) (A) (A) (A) (A) (A) (A) (A) (A)
                 (A) (A) (A) (A) (A) (A) (A) (A) (A) (A) (A) (A)
                 (A) (A) (A) (A) (A) (A) (A) (A) (A) (A) (A) (A)
                 (A) (A) (A) (A) (A) (A) (A) (A) (A) (A) (A) (A)
                 (A) (A) (A) (A) (A) (A) (A) (A) (A) (A) (A) (A)
                 (A) (A) (A) (A) (A) (A) (A) (A) (A) (A) (A) (A)
                 (A) (A) (A) (A) (A) (A) (A) (A) (A) (A) (A) (A)
                 (A) (A) (A) (A) (A) (A) (A) (A) (A) (A) (A)
 The electronic state of the initial guess is 1-A.
 Leave Link  401 at Sat May  9 17:51:27 2020, MaxMem= 1073741824 cpu:       4.1
 (Enter /home/matheus/.gaussian/g09/l502.exe)
 Closed shell SCF:
 Requested convergence on RMS density matrix=1.00D-08 within 128 cycles.
 Requested convergence on MAX density matrix=1.00D-06.
 Requested convergence on             energy=1.00D-06.
 No special actions if energy rises.
 Using DIIS extrapolation, IDIIS=  1040.
 Integral symmetry usage will be decided dynamically.
       126521 words used for storage of precomputed grid.
 IEnd=      305468 IEndB=      305468 NGot=  1073741824 MDV=  1073505667
 LenX=  1073505667 LenY=  1073452785
 Fock matrices will be formed incrementally for  20 cycles.

 Cycle   1  Pass 1  IDiag  1:
 FoFJK:  IHMeth= 1 ICntrl=     0 DoSepK=T KAlg= 1 I1Cent= 0 FoldK=F
 FoFCou: FMM=F IPFlag=           0 FMFlag=      100000 FMFlg1=           0
         NFxFlg=           0 DoJE=T BraDBF=F KetDBF=F FulRan=T
         Omega=  0.000000  0.000000  1.000000  0.000000  0.000000 ICntrl=     500 IOpCl=  0
         NMat0=    1 NMatS0=    1 NMatT0=    0 NMatD0=    1 NMtDS0=    0 NMtDT0=    0
         I1Cent=           0 NGrid=           0.
 Symmetry not used in FoFCou.
 E= -2753.46443168942    
 DIIS: error= 7.39D-02 at cycle   1 NSaved=   1.
 NSaved= 1 IEnMin= 1 EnMin= -2753.46443168942     IErMin= 1 ErrMin= 7.39D-02
 ErrMax= 7.39D-02 EMaxC= 1.00D-01 BMatC= 1.87D+00 BMatP= 1.87D+00
 IDIUse=3 WtCom= 2.61D-01 WtEn= 7.39D-01
 Coeff-Com:  0.100D+01
 Coeff-En:   0.100D+01
 Coeff:      0.100D+01
 Gap=     0.634 Goal=   None    Shift=    0.000
 GapD=    0.634 DampG=2.000 DampE=0.500 DampFc=1.0000 IDamp=-1.
 RMSDP=5.61D-03 MaxDP=3.70D-01              OVMax= 1.78D-01

 Cycle   2  Pass 1  IDiag  1:
 RMSU=  3.90D-03    CP:  1.04D+00
 FoFJK:  IHMeth= 1 ICntrl=     0 DoSepK=T KAlg= 1 I1Cent= 0 FoldK=F
 E= -2753.72400067704     Delta-E=       -0.259568987613 Rises=F Damp=F
 DIIS: error= 3.11D-02 at cycle   2 NSaved=   2.
 NSaved= 2 IEnMin= 2 EnMin= -2753.72400067704     IErMin= 2 ErrMin= 3.11D-02
 ErrMax= 3.11D-02 EMaxC= 1.00D-01 BMatC= 4.76D-01 BMatP= 1.87D+00
 IDIUse=3 WtCom= 6.89D-01 WtEn= 3.11D-01
 Coeff-Com:  0.330D+00 0.670D+00
 Coeff-En:   0.183D+00 0.817D+00
 Coeff:      0.284D+00 0.716D+00
 Gap=     0.474 Goal=   None    Shift=    0.000
 RMSDP=2.52D-03 MaxDP=1.60D-01 DE=-2.60D-01 OVMax= 7.89D-02

 Cycle   3  Pass 1  IDiag  1:
 RMSU=  3.69D-04    CP:  1.03D+00  5.58D-01
 FoFJK:  IHMeth= 1 ICntrl=     0 DoSepK=T KAlg= 1 I1Cent= 0 FoldK=F
 E= -2753.87123401507     Delta-E=       -0.147233338029 Rises=F Damp=F
 DIIS: error= 4.01D-03 at cycle   3 NSaved=   3.
 NSaved= 3 IEnMin= 3 EnMin= -2753.87123401507     IErMin= 3 ErrMin= 4.01D-03
 ErrMax= 4.01D-03 EMaxC= 1.00D-01 BMatC= 9.74D-03 BMatP= 4.76D-01
 IDIUse=3 WtCom= 9.60D-01 WtEn= 4.01D-02
 Coeff-Com: -0.513D-02 0.117D+00 0.888D+00
 Coeff-En:   0.000D+00 0.000D+00 0.100D+01
 Coeff:     -0.492D-02 0.112D+00 0.893D+00
 Gap=     0.502 Goal=   None    Shift=    0.000
 RMSDP=2.90D-04 MaxDP=1.66D-02 DE=-1.47D-01 OVMax= 1.23D-02

 Cycle   4  Pass 1  IDiag  1:
 RMSU=  4.27D-05    CP:  1.03D+00  6.08D-01  9.42D-01
 FoFJK:  IHMeth= 1 ICntrl=     0 DoSepK=T KAlg= 1 I1Cent= 0 FoldK=F
 E= -2753.87435520352     Delta-E=       -0.003121188449 Rises=F Damp=F
 DIIS: error= 1.92D-04 at cycle   4 NSaved=   4.
 NSaved= 4 IEnMin= 4 EnMin= -2753.87435520352     IErMin= 4 ErrMin= 1.92D-04
 ErrMax= 1.92D-04 EMaxC= 1.00D-01 BMatC= 1.63D-05 BMatP= 9.74D-03
 IDIUse=3 WtCom= 9.98D-01 WtEn= 1.92D-03
 Coeff-Com: -0.850D-03-0.147D-01-0.505D-01 0.107D+01
 Coeff-En:   0.000D+00 0.000D+00 0.000D+00 0.100D+01
 Coeff:     -0.848D-03-0.146D-01-0.504D-01 0.107D+01
 Gap=     0.500 Goal=   None    Shift=    0.000
 RMSDP=2.22D-05 MaxDP=8.94D-04 DE=-3.12D-03 OVMax= 7.91D-04

 Cycle   5  Pass 1  IDiag  1:
 RMSU=  1.09D-05    CP:  1.03D+00  6.06D-01  9.61D-01  1.11D+00
 FoFJK:  IHMeth= 1 ICntrl=     0 DoSepK=T KAlg= 1 I1Cent= 0 FoldK=F
 E= -2753.87436368741     Delta-E=       -0.000008483891 Rises=F Damp=F
 DIIS: error= 1.74D-05 at cycle   5 NSaved=   5.
 NSaved= 5 IEnMin= 5 EnMin= -2753.87436368741     IErMin= 5 ErrMin= 1.74D-05
 ErrMax= 1.74D-05 EMaxC= 1.00D-01 BMatC= 3.82D-08 BMatP= 1.63D-05
 IDIUse=1 WtCom= 1.00D+00 WtEn= 0.00D+00
 Coeff-Com:  0.116D-03-0.965D-03-0.971D-02-0.194D-01 0.103D+01
 Coeff:      0.116D-03-0.965D-03-0.971D-02-0.194D-01 0.103D+01
 Gap=     0.500 Goal=   None    Shift=    0.000
 RMSDP=2.42D-06 MaxDP=1.10D-04 DE=-8.48D-06 OVMax= 1.83D-04

 Cycle   6  Pass 1  IDiag  1:
 RMSU=  8.78D-07    CP:  1.03D+00  6.06D-01  9.61D-01  1.13D+00  1.08D+00
 FoFJK:  IHMeth= 1 ICntrl=     0 DoSepK=T KAlg= 1 I1Cent= 0 FoldK=F
 E= -2753.87436380510     Delta-E=       -0.000000117698 Rises=F Damp=F
 DIIS: error= 4.36D-06 at cycle   6 NSaved=   6.
 NSaved= 6 IEnMin= 6 EnMin= -2753.87436380510     IErMin= 6 ErrMin= 4.36D-06
 ErrMax= 4.36D-06 EMaxC= 1.00D-01 BMatC= 3.93D-09 BMatP= 3.82D-08
 IDIUse=1 WtCom= 1.00D+00 WtEn= 0.00D+00
 Coeff-Com:  0.650D-05 0.203D-03 0.392D-03-0.356D-01 0.417D-01 0.993D+00
 Coeff:      0.650D-05 0.203D-03 0.392D-03-0.356D-01 0.417D-01 0.993D+00
 Gap=     0.500 Goal=   None    Shift=    0.000
 RMSDP=6.11D-07 MaxDP=2.65D-05 DE=-1.18D-07 OVMax= 2.80D-05

 Cycle   7  Pass 1  IDiag  1:
 RMSU=  9.51D-08    CP:  1.03D+00  6.06D-01  9.62D-01  1.14D+00  1.11D+00
                    CP:  1.20D+00
 FoFJK:  IHMeth= 1 ICntrl=     0 DoSepK=T KAlg= 1 I1Cent= 0 FoldK=F
 E= -2753.87436380936     Delta-E=       -0.000000004252 Rises=F Damp=F
 DIIS: error= 3.24D-07 at cycle   7 NSaved=   7.
 NSaved= 7 IEnMin= 7 EnMin= -2753.87436380936     IErMin= 7 ErrMin= 3.24D-07
 ErrMax= 3.24D-07 EMaxC= 1.00D-01 BMatC= 3.41D-11 BMatP= 3.93D-09
 IDIUse=1 WtCom= 1.00D+00 WtEn= 0.00D+00
 Coeff-Com:  0.504D-06 0.651D-04 0.220D-03-0.852D-02 0.118D-02 0.229D+00
 Coeff-Com:  0.778D+00
 Coeff:      0.504D-06 0.651D-04 0.220D-03-0.852D-02 0.118D-02 0.229D+00
 Coeff:      0.778D+00
 Gap=     0.500 Goal=   None    Shift=    0.000
 RMSDP=4.19D-08 MaxDP=1.23D-06 DE=-4.25D-09 OVMax= 2.51D-06

 Cycle   8  Pass 1  IDiag  1:
 RMSU=  1.77D-08    CP:  1.03D+00  6.06D-01  9.62D-01  1.14D+00  1.11D+00
                    CP:  1.23D+00  1.05D+00
 FoFJK:  IHMeth= 1 ICntrl=     0 DoSepK=T KAlg= 1 I1Cent= 0 FoldK=F
 E= -2753.87436380940     Delta-E=       -0.000000000047 Rises=F Damp=F
 DIIS: error= 6.47D-08 at cycle   8 NSaved=   8.
 NSaved= 8 IEnMin= 8 EnMin= -2753.87436380940     IErMin= 8 ErrMin= 6.47D-08
 ErrMax= 6.47D-08 EMaxC= 1.00D-01 BMatC= 1.49D-12 BMatP= 3.41D-11
 IDIUse=1 WtCom= 1.00D+00 WtEn= 0.00D+00
 Coeff-Com: -0.141D-06-0.371D-05 0.971D-05 0.157D-02-0.214D-02-0.452D-01
 Coeff-Com:  0.464D-01 0.999D+00
 Coeff:     -0.141D-06-0.371D-05 0.971D-05 0.157D-02-0.214D-02-0.452D-01
 Coeff:      0.464D-01 0.999D+00
 Gap=     0.500 Goal=   None    Shift=    0.000
 RMSDP=1.91D-08 MaxDP=7.07D-07 DE=-4.73D-11 OVMax= 5.34D-07

 Cycle   9  Pass 1  IDiag  1:
 RMSU=  3.26D-09    CP:  1.03D+00  6.06D-01  9.62D-01  1.14D+00  1.11D+00
                    CP:  1.24D+00  1.11D+00  1.13D+00
 FoFJK:  IHMeth= 1 ICntrl=     0 DoSepK=T KAlg= 1 I1Cent= 0 FoldK=F
 E= -2753.87436380941     Delta-E=       -0.000000000003 Rises=F Damp=F
 DIIS: error= 9.51D-09 at cycle   9 NSaved=   9.
 NSaved= 9 IEnMin= 9 EnMin= -2753.87436380941     IErMin= 9 ErrMin= 9.51D-09
 ErrMax= 9.51D-09 EMaxC= 1.00D-01 BMatC= 6.69D-15 BMatP= 1.49D-12
 IDIUse=1 WtCom= 1.00D+00 WtEn= 0.00D+00
 Coeff-Com:  0.108D-07 0.136D-06-0.125D-05-0.135D-03 0.281D-04 0.482D-02
 Coeff-Com: -0.116D-01-0.144D+00 0.115D+01
 Coeff:      0.108D-07 0.136D-06-0.125D-05-0.135D-03 0.281D-04 0.482D-02
 Coeff:     -0.116D-01-0.144D+00 0.115D+01
 Gap=     0.500 Goal=   None    Shift=    0.000
 RMSDP=1.73D-09 MaxDP=7.40D-08 DE=-3.18D-12 OVMax= 9.69D-08

 SCF Done:  E(RwB97XD) =  -2753.87436381     A.U. after    9 cycles
             Convg  =    0.1728D-08             -V/T =  2.0013
 KE= 2.750257416677D+03 PE=-6.580195735500D+03 EE= 1.076063955013D+03
 Leave Link  502 at Sat May  9 17:51:58 2020, MaxMem= 1073741824 cpu:     244.6
 (Enter /home/matheus/.gaussian/g09/l601.exe)
 Copying SCF densities to generalized density rwf, IOpCl= 0 IROHF=0.

 **********************************************************************

            Population analysis using the SCF density.

 **********************************************************************

 Orbital symmetries:
       Occupied  (A) (A) (A) (A) (A) (A) (A) (A) (A) (A) (A) (A)
                 (A) (A) (A) (A) (A) (A)
       Virtual   (A) (A) (A) (A) (A) (A) (A) (A) (A) (A) (A) (A)
                 (A) (A) (A) (A) (A) (A) (A) (A) (A) (A) (A) (A)
                 (A) (A) (A) (A) (A) (A) (A) (A) (A) (A) (A) (A)
                 (A) (A) (A) (A) (A) (A) (A) (A) (A) (A) (A) (A)
                 (A) (A) (A) (A) (A) (A) (A) (A) (A) (A) (A) (A)
                 (A) (A) (A) (A) (A) (A) (A) (A) (A) (A) (A) (A)
                 (A) (A) (A) (A) (A) (A) (A) (A) (A) (A) (A) (A)
                 (A) (A) (A) (A) (A) (A) (A) (A) (A) (A) (A) (A)
                 (A) (A) (A) (A) (A) (A) (A) (A) (A) (A) (A) (A)
                 (A) (A) (A) (A) (A) (A) (A) (A) (A) (A) (A) (A)
                 (A) (A) (A) (A) (A) (A) (A) (A) (A) (A) (A) (A)
                 (A) (A) (A) (A) (A) (A) (A) (A) (A) (A) (A) (A)
                 (A) (A) (A) (A) (A) (A) (A) (A) (A) (A) (A) (A)
                 (A) (A) (A) (A) (A) (A) (A) (A) (A) (A) (A) (A)
                 (A) (A) (A) (A) (A) (A) (A) (A) (A) (A) (A)
 The electronic state is 1-A.
 Alpha  occ. eigenvalues -- -513.05927 -67.32598 -60.87474 -60.87472 -60.87472
 Alpha  occ. eigenvalues --   -9.77891  -7.47187  -7.47185  -7.47185  -3.33928
 Alpha  occ. eigenvalues --   -3.33928  -3.33928  -3.33927  -3.33927  -0.98488
 Alpha  occ. eigenvalues --   -0.46647  -0.46643  -0.46641
 Alpha virt. eigenvalues --    0.03326   0.05265   0.08787   0.09670   0.12477
 Alpha virt. eigenvalues --    0.12834   0.13692   0.13877   0.16317   0.17398
 Alpha virt. eigenvalues --    0.18063   0.19504   0.20849   0.25336   0.26206
 Alpha virt. eigenvalues --    0.26597   0.28912   0.30756   0.32459   0.34775
 Alpha virt. eigenvalues --    0.35905   0.37569   0.38358   0.39646   0.41328
 Alpha virt. eigenvalues --    0.42083   0.44081   0.52012   0.54776   0.57136
 Alpha virt. eigenvalues --    0.59282   0.66114   0.67988   0.69046   0.71318
 Alpha virt. eigenvalues --    0.72607   0.73568   0.75183   0.76348   0.77536
 Alpha virt. eigenvalues --    0.78739   0.80625   0.83966   0.84818   0.87388
 Alpha virt. eigenvalues --    0.87939   0.89612   0.90516   0.91761   0.95144
 Alpha virt. eigenvalues --    0.96542   0.97507   0.98917   0.99310   1.02074
 Alpha virt. eigenvalues --    1.03798   1.06464   1.06878   1.11810   1.14824
 Alpha virt. eigenvalues --    1.15957   1.21656   1.23176   1.28083   1.31851
 Alpha virt. eigenvalues --    1.32231   1.39995   1.43334   1.47078   1.48443
 Alpha virt. eigenvalues --    1.55803   1.56782   1.58170   1.70585   1.79197
 Alpha virt. eigenvalues --    1.81835   1.83054   1.85725   1.94929   2.14612
 Alpha virt. eigenvalues --    2.19056   2.24015   2.27410   2.27598   2.29053
 Alpha virt. eigenvalues --    2.31250   2.32856   2.34547   2.38202   2.40687
 Alpha virt. eigenvalues --    2.42107   2.44157   2.45489   2.47847   2.48999
 Alpha virt. eigenvalues --    2.50670   2.53107   2.55850   2.58096   2.59358
 Alpha virt. eigenvalues --    2.61999   2.62495   2.65951   2.69446   2.71635
 Alpha virt. eigenvalues --    2.73910   2.77768   2.85664   2.86438   2.89675
 Alpha virt. eigenvalues --    2.95535   2.99773   3.06483   3.08499   3.18446
 Alpha virt. eigenvalues --    3.19988   3.28720   3.32151   3.40465   3.45008
 Alpha virt. eigenvalues --    3.61567   3.67015   3.82369   3.87275   4.03635
 Alpha virt. eigenvalues --    4.37784   4.50080   4.51571   4.59031   4.67575
 Alpha virt. eigenvalues --    4.72184   4.85793   4.86596   4.98155   5.09309
 Alpha virt. eigenvalues --    5.10264   5.27592   5.55811   5.70025   5.85289
 Alpha virt. eigenvalues --    5.88748   5.95986   6.16693   6.80537   6.82569
 Alpha virt. eigenvalues --    7.38449   7.45366   7.57453   7.67694   7.72934
 Alpha virt. eigenvalues --    7.81527   7.98128   8.16818   8.17840   8.24496
 Alpha virt. eigenvalues --    8.35064   8.50584   8.60000   8.90411   9.60750
 Alpha virt. eigenvalues --    9.75350   9.84435   9.87001   9.95265   9.98728
 Alpha virt. eigenvalues --   10.17491  10.25008  10.51174  10.95273  11.57064
 Alpha virt. eigenvalues --   11.60938  11.80413  12.01557  12.08183  13.20305
 Alpha virt. eigenvalues --   13.71608  14.52411  62.77984  64.68245
          Condensed to atoms (all electrons):
              1          2          3          4          5
     1  O    0.000985  -0.001247  -0.000384   0.000923  -0.007254
     2  O   -0.001247   0.005555   0.000425  -0.004163  -0.003672
     3  H   -0.000384   0.000425   0.000459  -0.000221  -0.005085
     4  H    0.000923  -0.004163  -0.000221   0.004340  -0.020034
     5  Kr  -0.007254  -0.003672  -0.005085  -0.020034  36.070083
 Mulliken atomic charges:
              1
     1  O    0.006977
     2  O    0.003102
     3  H    0.004805
     4  H    0.019155
     5  Kr  -0.034038
 Sum of Mulliken atomic charges =   0.00000
 Mulliken charges with hydrogens summed into heavy atoms:
              1
     1  O    0.011782
     2  O    0.022256
     5  Kr  -0.034038
 Sum of Mulliken charges with hydrogens summed into heavy atoms =   0.00000
          Condensed to fragments (all electrons):
     1       0.034038
     2      -0.034038
 Electronic spatial extent (au):  <R**2>=            161.4493
 Charge=              0.0000 electrons
 Dipole moment (field-independent basis, Debye):
    X=              0.0004    Y=              0.0003    Z=              0.0001  Tot=              0.0005
 Quadrupole moment (field-independent basis, Debye-Ang):
   XX=            -17.6243   YY=            -17.6412   ZZ=            -17.6495
   XY=              0.0023   XZ=              0.0027   YZ=             -0.0013
 Traceless Quadrupole moment (field-independent basis, Debye-Ang):
   XX=              0.0140   YY=             -0.0029   ZZ=             -0.0112
   XY=              0.0023   XZ=              0.0027   YZ=             -0.0013
 Octapole moment (field-independent basis, Debye-Ang**2):
  XXX=             51.5243  YYY=              0.2534  ZZZ=              0.1730  XYY=             17.1924
  XXY=              0.0787  XXZ=              0.0537  XZZ=             17.1973  YZZ=              0.0845
  YYZ=              0.0585  XYZ=              0.0002
 Hexadecapole moment (field-independent basis, Debye-Ang**3):
 XXXX=           -118.8222 YYYY=            -18.4449 ZZZZ=            -18.4655 XXXY=             -0.2376
 XXXZ=             -0.1607 YYYX=             -0.2385 YYYZ=             -0.0012 ZZZX=             -0.1642
 ZZZY=             -0.0012 XXYY=            -22.8917 XXZZ=            -22.8977 YYZZ=             -6.1504
 XXYZ=             -0.0020 YYXZ=             -0.0545 ZZXY=             -0.0785
 N-N= 0.000000000000D+00 E-N=-6.580195736269D+03  KE= 2.750257416677D+03
 No NMR shielding tensors so no spin-rotation constants.
 Leave Link  601 at Sat May  9 17:51:58 2020, MaxMem= 1073741824 cpu:       0.8
 (Enter /home/matheus/.gaussian/g09/l122.exe)
 Counterpoise: doing MCBS calculation for fragment   1
 Leave Link  122 at Sat May  9 17:51:58 2020, MaxMem= 1073741824 cpu:       0.0
 (Enter /home/matheus/.gaussian/g09/l301.exe)
 Basis read from rwf:  (5D, 7F)
 No pseudopotential information found on rwf file.
 There are   138 symmetry adapted basis functions of A   symmetry.
 Integral buffers will be    131072 words long.
 Raffenetti 2 integral format.
 Two-electron integral symmetry is turned on.
   138 basis functions,   198 primitive gaussians,   160 cartesian basis functions
     9 alpha electrons        9 beta electrons
       nuclear repulsion energy        36.6440881780 Hartrees.
 IExCor= 4639 DFT=T Ex+Corr=wB97XD ExCW=0 ScaHFX=  1.000000
 ScaDFX=  1.000000  1.000000  1.000000  1.000000 ScalE2=  1.000000  1.000000
 IRadAn=      5 IRanWt=     -1 IRanGd=            0 ICorTp=0
  HFx wShort=  0.000000 wLong=  0.200000 cFull=  0.222036 cShort=  0.000000 cLong=  0.777964
  DFx wShort=  0.000000 wLong=  0.200000 cFull=  0.000000 cShort=  0.000000 cLong=  1.000000
 NAtoms=    5 NActive=    4 NUniq=    4 SFac= 1.00D+00 NAtFMM=   60 NAOKFM=F Big=F
 R6Disp: Dispersion energy =        -0.0002538791 Hartrees.
 Nuclear repulsion after empirical dispersion term =       36.6438342990 Hartrees.
 No density basis found on file   718.
 Leave Link  301 at Sat May  9 17:51:58 2020, MaxMem= 1073741824 cpu:       0.2
 (Enter /home/matheus/.gaussian/g09/l302.exe)
 NPDir=0 NMtPBC=     1 NCelOv=     1 NCel=       1 NClECP=     1 NCelD=      1
         NCelK=      1 NCelE2=     1 NClLst=     1 CellRange=     0.0.
 One-electron integrals computed using PRISM.
 NBasis=   138 RedAO= T  NBF=   138
 NBsUse=   138 1.00D-06 NBFU=   138
 Precomputing XC quadrature grid using
 IXCGrd= 2 IRadAn=           5 IRanWt=          -1 IRanGd=           0 AccXCQ= 0.00D+00.
 NRdTot=     344 NPtTot=       92556 NUsed=       95038 NTot=       95070
 NSgBfM=   160   160   160   160   160 NAtAll=     4     4.
 Leave Link  302 at Sat May  9 17:51:58 2020, MaxMem= 1073741824 cpu:       0.8
 (Enter /home/matheus/.gaussian/g09/l303.exe)
 DipDrv:  MaxL=1.
 Leave Link  303 at Sat May  9 17:51:58 2020, MaxMem= 1073741824 cpu:       0.2
 (Enter /home/matheus/.gaussian/g09/l401.exe)
 Harris functional with IExCor= 4639 diagonalized for initial guess.
 ExpMin= 2.53D-02 ExpMax= 1.53D+04 ExpMxC= 5.22D+02 IAcc=3 IRadAn=         5 AccDes= 0.00D+00
 HarFok:  IExCor= 4639 AccDes= 0.00D+00 IRadAn=         5 IDoV= 1
 ScaDFX=  1.000000  1.000000  1.000000  1.000000
 FoFCou: FMM=F IPFlag=           0 FMFlag=      100000 FMFlg1=           0
         NFxFlg=           0 DoJE=T BraDBF=F KetDBF=T FulRan=T
         Omega=  0.000000  0.000000  1.000000  0.000000  0.000000 ICntrl=     500 IOpCl=  0
         NMat0=    1 NMatS0=    1 NMatT0=    0 NMatD0=    1 NMtDS0=    0 NMtDT0=    0
         I1Cent=           4 NGrid=           0.
 Petite list used in FoFCou.
 Harris En= -146.294454109986    
 Initial guess orbital symmetries:
       Occupied  (A) (A) (A) (A) (A) (A) (A) (A) (A)
       Virtual   (A) (A) (A) (A) (A) (A) (A) (A) (A) (A) (A) (A)
                 (A) (A) (A) (A) (A) (A) (A) (A) (A) (A) (A) (A)
                 (A) (A) (A) (A) (A) (A) (A) (A) (A) (A) (A) (A)
                 (A) (A) (A) (A) (A) (A) (A) (A) (A) (A) (A) (A)
                 (A) (A) (A) (A) (A) (A) (A) (A) (A) (A) (A) (A)
                 (A) (A) (A) (A) (A) (A) (A) (A) (A) (A) (A) (A)
                 (A) (A) (A) (A) (A) (A) (A) (A) (A) (A) (A) (A)
                 (A) (A) (A) (A) (A) (A) (A) (A) (A) (A) (A) (A)
                 (A) (A) (A) (A) (A) (A) (A) (A) (A) (A) (A) (A)
                 (A) (A) (A) (A) (A) (A) (A) (A) (A) (A) (A) (A)
                 (A) (A) (A) (A) (A) (A) (A) (A) (A)
 The electronic state of the initial guess is 1-A.
 Leave Link  401 at Sat May  9 17:51:58 2020, MaxMem= 1073741824 cpu:       2.2
 (Enter /home/matheus/.gaussian/g09/l502.exe)
 Closed shell SCF:
 Requested convergence on RMS density matrix=1.00D-08 within 128 cycles.
 Requested convergence on MAX density matrix=1.00D-06.
 Requested convergence on             energy=1.00D-06.
 No special actions if energy rises.
 Using DIIS extrapolation, IDIIS=  1040.
 Integral symmetry usage will be decided dynamically.
        94980 words used for storage of precomputed grid.
 IEnd=      192360 IEndB=      192360 NGot=  1073741824 MDV=  1073591865
 LenX=  1073591865 LenY=  1073565824
 Fock matrices will be formed incrementally for  20 cycles.

 Cycle   1  Pass 1  IDiag  1:
 FoFJK:  IHMeth= 1 ICntrl=     0 DoSepK=T KAlg= 1 I1Cent= 0 FoldK=F
 FoFCou: FMM=F IPFlag=           0 FMFlag=      100000 FMFlg1=           0
         NFxFlg=           0 DoJE=T BraDBF=F KetDBF=F FulRan=T
         Omega=  0.000000  0.000000  1.000000  0.000000  0.000000 ICntrl=     500 IOpCl=  0
         NMat0=    1 NMatS0=    1 NMatT0=    0 NMatD0=    1 NMtDS0=    0 NMtDT0=    0
         I1Cent=           0 NGrid=           0.
 Symmetry not used in FoFCou.
 E= -151.475973429707    
 DIIS: error= 4.74D-02 at cycle   1 NSaved=   1.
 NSaved= 1 IEnMin= 1 EnMin= -151.475973429707     IErMin= 1 ErrMin= 4.74D-02
 ErrMax= 4.74D-02 EMaxC= 1.00D-01 BMatC= 3.00D-01 BMatP= 3.00D-01
 IDIUse=3 WtCom= 5.26D-01 WtEn= 4.74D-01
 Coeff-Com:  0.100D+01
 Coeff-En:   0.100D+01
 Coeff:      0.100D+01
 Gap=     0.511 Goal=   None    Shift=    0.000
 GapD=    0.511 DampG=2.000 DampE=0.500 DampFc=1.0000 IDamp=-1.
 RMSDP=3.42D-03 MaxDP=1.07D-01              OVMax= 1.07D-01

 Cycle   2  Pass 1  IDiag  1:
 RMSU=  2.37D-03    CP:  9.51D-01
 FoFJK:  IHMeth= 1 ICntrl=     0 DoSepK=T KAlg= 1 I1Cent= 0 FoldK=F
 E= -151.507719088634     Delta-E=       -0.031745658927 Rises=F Damp=F
 DIIS: error= 2.49D-02 at cycle   2 NSaved=   2.
 NSaved= 2 IEnMin= 2 EnMin= -151.507719088634     IErMin= 2 ErrMin= 2.49D-02
 ErrMax= 2.49D-02 EMaxC= 1.00D-01 BMatC= 8.84D-02 BMatP= 3.00D-01
 IDIUse=3 WtCom= 7.51D-01 WtEn= 2.49D-01
 Coeff-Com:  0.329D+00 0.671D+00
 Coeff-En:   0.353D+00 0.647D+00
 Coeff:      0.335D+00 0.665D+00
 Gap=     0.458 Goal=   None    Shift=    0.000
 RMSDP=1.44D-03 MaxDP=4.85D-02 DE=-3.17D-02 OVMax= 6.01D-02

 Cycle   3  Pass 1  IDiag  1:
 RMSU=  5.18D-04    CP:  9.72D-01  6.41D-01
 FoFJK:  IHMeth= 1 ICntrl=     0 DoSepK=T KAlg= 1 I1Cent= 0 FoldK=F
 E= -151.554731994950     Delta-E=       -0.047012906316 Rises=F Damp=F
 DIIS: error= 7.46D-03 at cycle   3 NSaved=   3.
 NSaved= 3 IEnMin= 3 EnMin= -151.554731994950     IErMin= 3 ErrMin= 7.46D-03
 ErrMax= 7.46D-03 EMaxC= 1.00D-01 BMatC= 7.00D-03 BMatP= 8.84D-02
 IDIUse=3 WtCom= 9.25D-01 WtEn= 7.46D-02
 Coeff-Com:  0.172D-01 0.230D+00 0.753D+00
 Coeff-En:   0.000D+00 0.000D+00 0.100D+01
 Coeff:      0.159D-01 0.213D+00 0.771D+00
[...]
         I1Cent=           0 NGrid=           0.
 Symmetry not used in FoFCou.
 E= -2753.87423867063    
 DIIS: error= 1.75D-04 at cycle   1 NSaved=   1.
 NSaved= 1 IEnMin= 1 EnMin= -2753.87423867063     IErMin= 1 ErrMin= 1.75D-04
 ErrMax= 1.75D-04 EMaxC= 1.00D-01 BMatC= 3.71D-06 BMatP= 3.71D-06
 IDIUse=3 WtCom= 9.98D-01 WtEn= 1.75D-03
 Coeff-Com:  0.100D+01
 Coeff-En:   0.100D+01
 Coeff:      0.100D+01
 Gap=     0.497 Goal=   None    Shift=    0.000
 RMSDP=1.60D-05 MaxDP=8.72D-04              OVMax= 3.64D-04

 Cycle   2  Pass 1  IDiag  1:
 RMSU=  1.13D-05    CP:  1.00D+00
 FoFJK:  IHMeth= 1 ICntrl=     0 DoSepK=T KAlg= 1 I1Cent= 0 FoldK=F
 E= -2753.87423928139     Delta-E=       -0.000000610758 Rises=F Damp=F
 DIIS: error= 4.01D-06 at cycle   2 NSaved=   2.
 NSaved= 2 IEnMin= 2 EnMin= -2753.87423928139     IErMin= 2 ErrMin= 4.01D-06
 ErrMax= 4.01D-06 EMaxC= 1.00D-01 BMatC= 4.37D-09 BMatP= 3.71D-06
 IDIUse=1 WtCom= 1.00D+00 WtEn= 0.00D+00
 Coeff-Com: -0.108D-01 0.101D+01
 Coeff:     -0.108D-01 0.101D+01
 Gap=     0.497 Goal=   None    Shift=    0.000
 RMSDP=1.64D-06 MaxDP=6.99D-05 DE=-6.11D-07 OVMax= 5.38D-05

 Cycle   3  Pass 1  IDiag  1:
 RMSU=  5.66D-07    CP:  1.00D+00  1.09D+00
 FoFJK:  IHMeth= 1 ICntrl=     0 DoSepK=T KAlg= 1 I1Cent= 0 FoldK=F
 E= -2753.87423928956     Delta-E=       -0.000000008170 Rises=F Damp=F
 DIIS: error= 7.99D-07 at cycle   3 NSaved=   3.
 NSaved= 3 IEnMin= 3 EnMin= -2753.87423928956     IErMin= 3 ErrMin= 7.99D-07
 ErrMax= 7.99D-07 EMaxC= 1.00D-01 BMatC= 1.16D-10 BMatP= 4.37D-09
 IDIUse=1 WtCom= 1.00D+00 WtEn= 0.00D+00
 Coeff-Com: -0.803D-05-0.972D-01 0.110D+01
 Coeff:     -0.803D-05-0.972D-01 0.110D+01
 Gap=     0.497 Goal=   None    Shift=    0.000
 RMSDP=2.29D-07 MaxDP=1.07D-05 DE=-8.17D-09 OVMax= 1.04D-05

 Cycle   4  Pass 1  IDiag  1:
 RMSU=  5.05D-08    CP:  1.00D+00  1.10D+00  1.23D+00
 FoFJK:  IHMeth= 1 ICntrl=     0 DoSepK=T KAlg= 1 I1Cent= 0 FoldK=F
 E= -2753.87423928976     Delta-E=       -0.000000000203 Rises=F Damp=F
 DIIS: error= 4.81D-07 at cycle   4 NSaved=   4.
 NSaved= 4 IEnMin= 4 EnMin= -2753.87423928976     IErMin= 4 ErrMin= 4.81D-07
 ErrMax= 4.81D-07 EMaxC= 1.00D-01 BMatC= 1.63D-11 BMatP= 1.16D-10
 IDIUse=1 WtCom= 1.00D+00 WtEn= 0.00D+00
 Coeff-Com:  0.222D-03-0.499D-01 0.320D+00 0.730D+00
 Coeff:      0.222D-03-0.499D-01 0.320D+00 0.730D+00
 Gap=     0.497 Goal=   None    Shift=    0.000
 RMSDP=2.45D-08 MaxDP=9.51D-07 DE=-2.03D-10 OVMax= 1.54D-06

 Cycle   5  Pass 1  IDiag  1:
 RMSU=  1.03D-08    CP:  1.00D+00  1.10D+00  1.25D+00  1.05D+00
 FoFJK:  IHMeth= 1 ICntrl=     0 DoSepK=T KAlg= 1 I1Cent= 0 FoldK=F
 E= -2753.87423928978     Delta-E=       -0.000000000021 Rises=F Damp=F
 DIIS: error= 2.97D-08 at cycle   5 NSaved=   5.
 NSaved= 5 IEnMin= 5 EnMin= -2753.87423928978     IErMin= 5 ErrMin= 2.97D-08
 ErrMax= 2.97D-08 EMaxC= 1.00D-01 BMatC= 1.15D-13 BMatP= 1.63D-11
 IDIUse=1 WtCom= 1.00D+00 WtEn= 0.00D+00
 Coeff-Com: -0.233D-04 0.798D-02-0.642D-01-0.732D-01 0.113D+01
 Coeff:     -0.233D-04 0.798D-02-0.642D-01-0.732D-01 0.113D+01
 Gap=     0.497 Goal=   None    Shift=    0.000
 RMSDP=9.51D-09 MaxDP=5.35D-07 DE=-2.14D-11 OVMax= 4.11D-07

 SCF Done:  E(RwB97XD) =  -2753.87423929     A.U. after    5 cycles
             Convg  =    0.9513D-08             -V/T =  2.0013
 KE= 2.750294974418D+03 PE=-6.580235638130D+03 EE= 1.076066424423D+03
 Leave Link  502 at Sat May  9 18:17:08 2020, MaxMem= 1073741824 cpu:     119.8
 (Enter /home/matheus/.gaussian/g09/l122.exe)
 Restoring MOs from calculation   4 to rwf.
 Counterpoise: doing MCBS calculation for fragment   1
 Leave Link  122 at Sat May  9 18:17:08 2020, MaxMem= 1073741824 cpu:       0.0
 (Enter /home/matheus/.gaussian/g09/l301.exe)
 Basis read from rwf:  (5D, 7F)
 No pseudopotential information found on rwf file.
 There are   138 symmetry adapted basis functions of A   symmetry.
 Integral buffers will be    131072 words long.
 Raffenetti 2 integral format.
 Two-electron integral symmetry is turned on.
   138 basis functions,   198 primitive gaussians,   160 cartesian basis functions
     9 alpha electrons        9 beta electrons
       nuclear repulsion energy        36.6440881780 Hartrees.
 IExCor= 4639 DFT=T Ex+Corr=wB97XD ExCW=0 ScaHFX=  1.000000
 ScaDFX=  1.000000  1.000000  1.000000  1.000000 ScalE2=  1.000000  1.000000
 IRadAn=      5 IRanWt=     -1 IRanGd=            0 ICorTp=0
  HFx wShort=  0.000000 wLong=  0.200000 cFull=  0.222036 cShort=  0.000000 cLong=  0.777964
  DFx wShort=  0.000000 wLong=  0.200000 cFull=  0.000000 cShort=  0.000000 cLong=  1.000000
 NAtoms=    5 NActive=    4 NUniq=    4 SFac= 1.00D+00 NAtFMM=   60 NAOKFM=F Big=F
 R6Disp: Dispersion energy =        -0.0002538791 Hartrees.
 Nuclear repulsion after empirical dispersion term =       36.6438342990 Hartrees.
 No density basis found on file   718.
 Leave Link  301 at Sat May  9 18:17:08 2020, MaxMem= 1073741824 cpu:       0.2
 (Enter /home/matheus/.gaussian/g09/l302.exe)
 NPDir=0 NMtPBC=     1 NCelOv=     1 NCel=       1 NClECP=     1 NCelD=      1
         NCelK=      1 NCelE2=     1 NClLst=     1 CellRange=     0.0.
 One-electron integrals computed using PRISM.
 NBasis=   138 RedAO= T  NBF=   138
 NBsUse=   138 1.00D-06 NBFU=   138
 Precomputing XC quadrature grid using
 IXCGrd= 2 IRadAn=           5 IRanWt=          -1 IRanGd=           0 AccXCQ= 0.00D+00.
 NRdTot=     344 NPtTot=       92556 NUsed=       95038 NTot=       95070
 NSgBfM=   160   160   160   160   160 NAtAll=     4     4.
 Leave Link  302 at Sat May  9 18:17:08 2020, MaxMem= 1073741824 cpu:       0.8
 (Enter /home/matheus/.gaussian/g09/l303.exe)
 DipDrv:  MaxL=1.
 Leave Link  303 at Sat May  9 18:17:08 2020, MaxMem= 1073741824 cpu:       0.2
 (Enter /home/matheus/.gaussian/g09/l401.exe)
 Initial guess read from the read-write file.
 Guess basis will be translated and rotated to current coordinates.
 Initial guess orbital symmetries:
       Occupied  (A) (A) (A) (A) (A) (A) (A) (A) (A)
       Virtual   (A) (A) (A) (A) (A) (A) (A) (A) (A) (A) (A) (A)
                 (A) (A) (A) (A) (A) (A) (A) (A) (A) (A) (A) (A)
                 (A) (A) (A) (A) (A) (A) (A) (A) (A) (A) (A) (A)
                 (A) (A) (A) (A) (A) (A) (A) (A) (A) (A) (A) (A)
                 (A) (A) (A) (A) (A) (A) (A) (A) (A) (A) (A) (A)
                 (A) (A) (A) (A) (A) (A) (A) (A) (A) (A) (A) (A)
                 (A) (A) (A) (A) (A) (A) (A) (A) (A) (A) (A) (A)
                 (A) (A) (A) (A) (A) (A) (A) (A) (A) (A) (A) (A)
                 (A) (A) (A) (A) (A) (A) (A) (A) (A) (A) (A) (A)
                 (A) (A) (A) (A) (A) (A) (A) (A) (A) (A) (A) (A)
                 (A) (A) (A) (A) (A) (A) (A) (A) (A)
 The electronic state of the initial guess is 1-A.
 Generating alternative initial guess.
 Harris functional with IExCor= 4639 diagonalized for initial guess.
 ExpMin= 2.53D-02 ExpMax= 1.53D+04 ExpMxC= 5.22D+02 IAcc=3 IRadAn=         5 AccDes= 0.00D+00
 HarFok:  IExCor= 4639 AccDes= 0.00D+00 IRadAn=         5 IDoV= 1
 ScaDFX=  1.000000  1.000000  1.000000  1.000000
 FoFCou: FMM=F IPFlag=           0 FMFlag=      100000 FMFlg1=           0
         NFxFlg=           0 DoJE=T BraDBF=F KetDBF=T FulRan=T
         Omega=  0.000000  0.000000  1.000000  0.000000  0.000000 ICntrl=     500 IOpCl=  0
         NMat0=    1 NMatS0=    1 NMatT0=    0 NMatD0=    1 NMtDS0=    0 NMtDT0=    0
         I1Cent=           4 NGrid=           0.
 Petite list used in FoFCou.
 Harris En= -146.294454095923    
 Leave Link  401 at Sat May  9 18:17:08 2020, MaxMem= 1073741824 cpu:       2.9
 (Enter /home/matheus/.gaussian/g09/l502.exe)
 Closed shell SCF:
 Requested convergence on RMS density matrix=1.00D-08 within 128 cycles.
 Requested convergence on MAX density matrix=1.00D-06.
 Requested convergence on             energy=1.00D-06.
 No special actions if energy rises.
 Using DIIS extrapolation, IDIIS=  1040.
 Integral symmetry usage will be decided dynamically.
        94980 words used for storage of precomputed grid.
 IEnd=      192360 IEndB=      192360 NGot=  1073741824 MDV=  1073591865
 LenX=  1073591865 LenY=  1073565824
 Fock matrices will be formed incrementally for  20 cycles.

 Cycle   1  Pass 1  IDiag  1:
 FoFJK:  IHMeth= 1 ICntrl=     0 DoSepK=T KAlg= 1 I1Cent= 0 FoldK=F
 FoFCou: FMM=F IPFlag=           0 FMFlag=      100000 FMFlg1=           0
         NFxFlg=           0 DoJE=T BraDBF=F KetDBF=F FulRan=T
         Omega=  0.000000  0.000000  1.000000  0.000000  0.000000 ICntrl=     500 IOpCl=  0
         NMat0=    1 NMatS0=    1 NMatT0=    0 NMatD0=    1 NMtDS0=    0 NMtDT0=    0
         I1Cent=           0 NGrid=           0.
 Symmetry not used in FoFCou.
 E= -151.559335840354    
 DIIS: error= 5.81D-06 at cycle   1 NSaved=   1.
 NSaved= 1 IEnMin= 1 EnMin= -151.559335840354     IErMin= 1 ErrMin= 5.81D-06
 ErrMax= 5.81D-06 EMaxC= 1.00D-01 BMatC= 8.59D-09 BMatP= 8.59D-09
 IDIUse=1 WtCom= 1.00D+00 WtEn= 0.00D+00
 Coeff-Com:  0.100D+01
 Coeff:      0.100D+01
 Gap=     0.402 Goal=   None    Shift=    0.000
 RMSDP=6.48D-07 MaxDP=1.48D-05              OVMax= 2.68D-05

 Cycle   2  Pass 1  IDiag  1:
 RMSU=  4.58D-07    CP:  1.00D+00
 FoFJK:  IHMeth= 1 ICntrl=     0 DoSepK=T KAlg= 1 I1Cent= 0 FoldK=F
 E= -151.559335849272     Delta-E=       -0.000000008918 Rises=F Damp=F
 DIIS: error= 1.14D-06 at cycle   2 NSaved=   2.
 NSaved= 2 IEnMin= 2 EnMin= -151.559335849272     IErMin= 2 ErrMin= 1.14D-06
 ErrMax= 1.14D-06 EMaxC= 1.00D-01 BMatC= 2.61D-10 BMatP= 8.59D-09
 IDIUse=1 WtCom= 1.00D+00 WtEn= 0.00D+00
 Coeff-Com: -0.100D+00 0.110D+01
 Coeff:     -0.100D+00 0.110D+01
 Gap=     0.402 Goal=   None    Shift=    0.000
 RMSDP=1.77D-07 MaxDP=4.94D-06 DE=-8.92D-09 OVMax= 8.08D-06

 Cycle   3  Pass 1  IDiag  1:
 RMSU=  6.67D-08    CP:  1.00D+00  1.23D+00
 FoFJK:  IHMeth= 1 ICntrl=     0 DoSepK=T KAlg= 1 I1Cent= 0 FoldK=F
 E= -151.559335849785     Delta-E=       -0.000000000513 Rises=F Damp=F
 DIIS: error= 3.12D-07 at cycle   3 NSaved=   3.
 NSaved= 3 IEnMin= 3 EnMin= -151.559335849785     IErMin= 3 ErrMin= 3.12D-07
 ErrMax= 3.12D-07 EMaxC= 1.00D-01 BMatC= 1.41D-11 BMatP= 2.61D-10
 IDIUse=1 WtCom= 1.00D+00 WtEn= 0.00D+00
 Coeff-Com: -0.175D-01 0.334D-01 0.984D+00
 Coeff:     -0.175D-01 0.334D-01 0.984D+00
 Gap=     0.402 Goal=   None    Shift=    0.000
 RMSDP=4.56D-08 MaxDP=1.09D-06 DE=-5.13D-10 OVMax= 2.59D-06

 Cycle   4  Pass 1  IDiag  1:
 RMSU=  1.22D-08    CP:  1.00D+00  1.28D+00  1.29D+00
 FoFJK:  IHMeth= 1 ICntrl=     0 DoSepK=T KAlg= 1 I1Cent= 0 FoldK=F
 E= -151.559335849819     Delta-E=       -0.000000000035 Rises=F Damp=F
 DIIS: error= 1.08D-07 at cycle   4 NSaved=   4.
 NSaved= 4 IEnMin= 4 EnMin= -151.559335849819     IErMin= 4 ErrMin= 1.08D-07
 ErrMax= 1.08D-07 EMaxC= 1.00D-01 BMatC= 2.48D-12 BMatP= 1.41D-11
 IDIUse=1 WtCom= 1.00D+00 WtEn= 0.00D+00
 Coeff-Com:  0.418D-02-0.758D-01 0.108D+00 0.964D+00
 Coeff:      0.418D-02-0.758D-01 0.108D+00 0.964D+00
 Gap=     0.402 Goal=   None    Shift=    0.000
 RMSDP=1.69D-08 MaxDP=2.96D-07 DE=-3.47D-11 OVMax= 1.09D-06

 Cycle   5  Pass 1  IDiag  1:
 RMSU=  6.88D-09    CP:  1.00D+00  1.29D+00  1.40D+00  1.11D+00
 FoFJK:  IHMeth= 1 ICntrl=     0 DoSepK=T KAlg= 1 I1Cent= 0 FoldK=F
 E= -151.559335849823     Delta-E=       -0.000000000004 Rises=F Damp=F
 DIIS: error= 1.30D-07 at cycle   5 NSaved=   5.
 NSaved= 5 IEnMin= 5 EnMin= -151.559335849823     IErMin= 4 ErrMin= 1.08D-07
 ErrMax= 1.30D-07 EMaxC= 1.00D-01 BMatC= 1.72D-12 BMatP= 2.48D-12
 IDIUse=1 WtCom= 1.00D+00 WtEn= 0.00D+00
 Coeff-Com:  0.425D-02-0.473D-01-0.461D-01 0.569D+00 0.520D+00
 Coeff:      0.425D-02-0.473D-01-0.461D-01 0.569D+00 0.520D+00
 Gap=     0.402 Goal=   None    Shift=    0.000
 RMSDP=5.86D-09 MaxDP=1.71D-07 DE=-3.52D-12 OVMax= 4.43D-07

 SCF Done:  E(RwB97XD) =  -151.559335850     A.U. after    5 cycles
             Convg  =    0.5856D-08             -V/T =  2.0058
 KE= 1.506862701680D+02 PE=-4.317644202535D+02 EE= 9.287497993678D+01
 Leave Link  502 at Sat May  9 18:17:14 2020, MaxMem= 1073741824 cpu:      44.0
 (Enter /home/matheus/.gaussian/g09/l122.exe)
 Restoring MOs from calculation   5 to rwf.
 Counterpoise: doing MCBS calculation for fragment   2
 Leave Link  122 at Sat May  9 18:17:14 2020, MaxMem= 1073741824 cpu:       0.0
 (Enter /home/matheus/.gaussian/g09/l301.exe)
 Basis read from rwf:  (5D, 7F)
 No pseudopotential information found on rwf file.
 There are    59 symmetry adapted basis functions of A   symmetry.
 Integral buffers will be    131072 words long.
 Raffenetti 2 integral format.
 Two-electron integral symmetry is turned on.
    59 basis functions,   217 primitive gaussians,    69 cartesian basis functions
    18 alpha electrons       18 beta electrons
       nuclear repulsion energy         0.0000000000 Hartrees.
 IExCor= 4639 DFT=T Ex+Corr=wB97XD ExCW=0 ScaHFX=  1.000000
 ScaDFX=  1.000000  1.000000  1.000000  1.000000 ScalE2=  1.000000  1.000000
 IRadAn=      5 IRanWt=     -1 IRanGd=            0 ICorTp=0
  HFx wShort=  0.000000 wLong=  0.200000 cFull=  0.222036 cShort=  0.000000 cLong=  0.777964
  DFx wShort=  0.000000 wLong=  0.200000 cFull=  0.000000 cShort=  0.000000 cLong=  1.000000
 NAtoms=    5 NActive=    1 NUniq=    1 SFac= 1.00D+00 NAtFMM=   60 NAOKFM=F Big=F
 R6Disp: Dispersion energy =         0.0000000000 Hartrees.
 Nuclear repulsion after empirical dispersion term =        0.0000000000 Hartrees.
 No density basis found on file   718.
 Leave Link  301 at Sat May  9 18:17:14 2020, MaxMem= 1073741824 cpu:       0.2
 (Enter /home/matheus/.gaussian/g09/l302.exe)
 NPDir=0 NMtPBC=     1 NCelOv=     1 NCel=       1 NClECP=     1 NCelD=      1
         NCelK=      1 NCelE2=     1 NClLst=     1 CellRange=     0.0.
 One-electron integrals computed using PRISM.
 NBasis=    59 RedAO= T  NBF=    59
 NBsUse=    59 1.00D-06 NBFU=    59
 Precomputing XC quadrature grid using
 IXCGrd= 2 IRadAn=           5 IRanWt=          -1 IRanGd=           0 AccXCQ= 0.00D+00.
 NRdTot=      81 NPtTot=       30352 NUsed=       30981 NTot=       31013
 NSgBfM=    69    69    69    69    69 NAtAll=     1     1.
 Leave Link  302 at Sat May  9 18:17:14 2020, MaxMem= 1073741824 cpu:       0.7
 (Enter /home/matheus/.gaussian/g09/l303.exe)
 DipDrv:  MaxL=1.
 Leave Link  303 at Sat May  9 18:17:14 2020, MaxMem= 1073741824 cpu:       0.2
 (Enter /home/matheus/.gaussian/g09/l401.exe)
 Initial guess read from the read-write file.
 Guess basis will be translated and rotated to current coordinates.
 Initial guess orbital symmetries:
       Occupied  (A) (A) (A) (A) (A) (A) (A) (A) (A) (A) (A) (A)
                 (A) (A) (A) (A) (A) (A)
       Virtual   (A) (A) (A) (A) (A) (A) (A) (A) (A) (A) (A) (A)
                 (A) (A) (A) (A) (A) (A) (A) (A) (A) (A) (A) (A)
                 (A) (A) (A) (A) (A) (A) (A) (A) (A) (A) (A) (A)
                 (A) (A) (A) (A) (A)
 The electronic state of the initial guess is 1-A.
 Generating alternative initial guess.
 Harris functional with IExCor= 4639 diagonalized for initial guess.
 ExpMin= 4.00D-02 ExpMax= 1.17D+07 ExpMxC= 1.33D+04 IAcc=3 IRadAn=         5 AccDes= 0.00D+00
 HarFok:  IExCor= 4639 AccDes= 0.00D+00 IRadAn=         5 IDoV= 1
 ScaDFX=  1.000000  1.000000  1.000000  1.000000
 FoFCou: FMM=F IPFlag=           0 FMFlag=      100000 FMFlg1=           0
         NFxFlg=           0 DoJE=T BraDBF=F KetDBF=T FulRan=T
         Omega=  0.000000  0.000000  1.000000  0.000000  0.000000 ICntrl=     500 IOpCl=  0
         NMat0=    1 NMatS0=    1 NMatT0=    0 NMatD0=    1 NMtDS0=    0 NMtDT0=    0
         I1Cent=           4 NGrid=           0.
 Petite list used in FoFCou.
 DSYEVD returned Info=         119 IAlg= 4 N=    59 NDim=    59 NE2=    18198841 trying DSYEV.
 Harris En= -2730.20235208354    
 Leave Link  401 at Sat May  9 18:17:14 2020, MaxMem= 1073741824 cpu:       1.4
 (Enter /home/matheus/.gaussian/g09/l502.exe)
 Closed shell SCF:
 Requested convergence on RMS density matrix=1.00D-08 within 128 cycles.
 Requested convergence on MAX density matrix=1.00D-06.
 Requested convergence on             energy=1.00D-06.
 No special actions if energy rises.
 Using DIIS extrapolation, IDIIS=  1040.
 Integral symmetry usage will be decided dynamically.
        30923 words used for storage of precomputed grid.
 IEnd=       64406 IEndB=       64406 NGot=  1073741824 MDV=  1073698889
 LenX=  1073698889 LenY=  1073693687
 Fock matrices will be formed incrementally for  20 cycles.

 Cycle   1  Pass 1  IDiag  1:
 FoFJK:  IHMeth= 1 ICntrl=     0 DoSepK=T KAlg= 1 I1Cent= 0 FoldK=F
 FoFCou: FMM=F IPFlag=           0 FMFlag=      100000 FMFlg1=           0
         NFxFlg=           0 DoJE=T BraDBF=F KetDBF=F FulRan=T
         Omega=  0.000000  0.000000  1.000000  0.000000  0.000000 ICntrl=     500 IOpCl=  0
         NMat0=    1 NMatS0=    1 NMatT0=    0 NMatD0=    1 NMtDS0=    0 NMtDT0=    0
         I1Cent=           0 NGrid=           0.
 Symmetry not used in FoFCou.
 E= -2753.87421986326    
 DIIS: error= 9.85D-14 at cycle   1 NSaved=   1.
 NSaved= 1 IEnMin= 1 EnMin= -2753.87421986326     IErMin= 1 ErrMin= 9.85D-14
 ErrMax= 9.85D-14 EMaxC= 1.00D-01 BMatC= 1.12D-24 BMatP= 1.12D-24
 IDIUse=1 WtCom= 1.00D+00 WtEn= 0.00D+00
 Coeff-Com:  0.100D+01
 Coeff:      0.100D+01
 Gap=     0.562 Goal=   None    Shift=    0.000
 RMSDP=1.64D-14 MaxDP=2.92D-13              OVMax= 1.51D-13

 SCF Done:  E(RwB97XD) =  -2753.87421986     A.U. after    1 cycles
             Convg  =    0.1637D-13             -V/T =  2.0013
 KE= 2.750300381543D+03 PE=-6.580241205809D+03 EE= 1.076066604402D+03
 Leave Link  502 at Sat May  9 18:17:16 2020, MaxMem= 1073741824 cpu:      14.8
 (Enter /home/matheus/.gaussian/g09/l122.exe)
 Restoring MOs from calculation   1 to rwf.
 Counterpoise: corrected energy =   -2905.433910766671
 Counterpoise: BSSE energy =       0.000022789068
 Leave Link  122 at Sat May  9 18:17:16 2020, MaxMem= 1073741824 cpu:       0.0
 (Enter /home/matheus/.gaussian/g09/l108.exe)
 Scan completed.

 Summary of the potential surface scan:
   N      R1          SCF    
 ----  ---------  -----------
    1     3.0000  -2753.87422
    2     3.1000  -2753.87422
    3     3.2000  -2753.87422
    4     3.3000  -2753.87422
    5     3.4000  -2753.87422
    6     3.5000  -2753.87422
    7     3.6000  -2753.87422
    8     3.7000  -2753.87422
    9     3.8000  -2753.87422
   10     3.9000  -2753.87422
   11     4.0000  -2753.87422
   12     4.1000  -2753.87422
   13     4.2000  -2753.87422
   14     4.3000  -2753.87422
   15     4.4000  -2753.87422
   16     4.5000  -2753.87422
   17     4.6000  -2753.87422
   18     4.7000  -2753.87422
   19     4.8000  -2753.87422
   20     4.9000  -2753.87422
   21     5.0000  -2753.87422
 ----  ---------  -----------
  
 Leave Link  108 at Sat May  9 18:17:16 2020, MaxMem= 1073741824 cpu:       0.0
 (Enter /home/matheus/.gaussian/g09/l9999.exe)
 1\1\GINC-REDGIANT\Scan\RwB97XD\Aug-CC-pVTZ\H2Kr1O2\MATHEUS\09-May-2020
 \1\\#p wb97xd/aug-cc-PVTz int=ultrafine counterpoise=2 Scan\\TCC\\0,1\
 O,0,0.,0.,0.725\O,0,0.,0.,-0.725\H,0,0.795635374,0.4593602974,1.023510
 4166\H,0,0.,0.9187205947,-1.0235104166\Kr,0,0.,R1,0.\\R1=3.,s,20,0.1\\
 Version=EM64L-G09RevC.01\State=1-A\HF=-2753.8742199,-2753.8742199,-275
 3.8742199,-2753.8742199,-2753.8742199,-2753.8742199,-2753.8742199,-275
 3.8742199,-2753.8742199,-2753.8742199,-2753.8742199,-2753.8742199,-275
 3.8742199,-2753.8742199,-2753.8742199,-2753.8742199,-2753.8742199,-275
 3.8742199,-2753.8742199,-2753.8742199,-2753.8742199\RMSD=9.120e-09,1.9
 20e-10,6.363e-11,4.203e-11,2.496e-11,1.570e-11,9.719e-12,6.060e-12,3.7
 67e-12,2.338e-12,1.450e-12,9.005e-13,5.626e-13,3.484e-13,2.111e-13,1.3
 38e-13,8.457e-14,5.642e-14,3.372e-14,1.945e-14,1.637e-14\PG=C01 [X(H2K
 r1O2)]\\@


 A HARD FALL SHOULD MEAN A HIGH BOUNCE 
 IF ONE IS MADE OF THE RIGHT MATERIAL.

                -- THE CHEMIST ANALYST, MARCH 1950
 Job cpu time:  0 days  3 hours 36 minutes  5.3 seconds.
 File lengths (MBytes):  RWF=     33 Int=      0 D2E=      0 Chk=      8 Scr=      1
 Normal termination of Gaussian 09 at Sat May  9 18:17:16 2020.
