 Entering Gaussian System, Link 0=g09
 Input=/home/matheus/.tcc/Inputs/Inputs-wb97xd-default/H2O2-Kr_5.com
 Output=/home/matheus/.tcc/Logs/Logs-wb97xd-default/H2O2-Kr_5.log
 Initial command:
 /home/matheus/.gaussian/g09/l1.exe /home/matheus/.gaussian/g09/scratch/Gau-18807.inp -scrdir=/home/matheus/.gaussian/g09/scratch/
 Entering Link 1 = /home/matheus/.gaussian/g09/l1.exe PID=     18811.
  
 Copyright (c) 1988,1990,1992,1993,1995,1998,2003,2009,2011,
            Gaussian, Inc.  All Rights Reserved.
  
 This is part of the Gaussian(R) 09 program.  It is based on
 the Gaussian(R) 03 system (copyright 2003, Gaussian, Inc.),
 the Gaussian(R) 98 system (copyright 1998, Gaussian, Inc.),
 the Gaussian(R) 94 system (copyright 1995, Gaussian, Inc.),
 the Gaussian 92(TM) system (copyright 1992, Gaussian, Inc.),
 the Gaussian 90(TM) system (copyright 1990, Gaussian, Inc.),
 the Gaussian 88(TM) system (copyright 1988, Gaussian, Inc.),
 the Gaussian 86(TM) system (copyright 1986, Carnegie Mellon
 University), and the Gaussian 82(TM) system (copyright 1983,
 Carnegie Mellon University). Gaussian is a federally registered
 trademark of Gaussian, Inc.
  
 This software contains proprietary and confidential information,
 including trade secrets, belonging to Gaussian, Inc.
  
 This software is provided under written license and may be
 used, copied, transmitted, or stored only in accord with that
 written license.
  
 The following legend is applicable only to US Government
 contracts under FAR:
  
                    RESTRICTED RIGHTS LEGEND
  
 Use, reproduction and disclosure by the US Government is
 subject to restrictions as set forth in subparagraphs (a)
 and (c) of the Commercial Computer Software - Restricted
 Rights clause in FAR 52.227-19.
  
 Gaussian, Inc.
 340 Quinnipiac St., Bldg. 40, Wallingford CT 06492
  
  
 ---------------------------------------------------------------
 Warning -- This program may not be used in any manner that
 competes with the business of Gaussian, Inc. or will provide
 assistance to any competitor of Gaussian, Inc.  The licensee
 of this program is prohibited from giving any competitor of
 Gaussian, Inc. access to this program.  By using this program,
 the user acknowledges that Gaussian, Inc. is engaged in the
 business of creating and licensing software in the field of
 computational chemistry and represents and warrants to the
 licensee that it is not a competitor of Gaussian, Inc. and that
 it will not use this program in any manner prohibited above.
 ---------------------------------------------------------------
  

 Cite this work as:
 Gaussian 09, Revision C.01,
 M. J. Frisch, G. W. Trucks, H. B. Schlegel, G. E. Scuseria, 
 M. A. Robb, J. R. Cheeseman, G. Scalmani, V. Barone, B. Mennucci, 
 G. A. Petersson, H. Nakatsuji, M. Caricato, X. Li, H. P. Hratchian, 
 A. F. Izmaylov, J. Bloino, G. Zheng, J. L. Sonnenberg, M. Hada, 
 M. Ehara, K. Toyota, R. Fukuda, J. Hasegawa, M. Ishida, T. Nakajima, 
 Y. Honda, O. Kitao, H. Nakai, T. Vreven, J. A. Montgomery, Jr., 
 J. E. Peralta, F. Ogliaro, M. Bearpark, J. J. Heyd, E. Brothers, 
 K. N. Kudin, V. N. Staroverov, T. Keith, R. Kobayashi, J. Normand, 
 K. Raghavachari, A. Rendell, J. C. Burant, S. S. Iyengar, J. Tomasi, 
 M. Cossi, N. Rega, J. M. Millam, M. Klene, J. E. Knox, J. B. Cross, 
 V. Bakken, C. Adamo, J. Jaramillo, R. Gomperts, R. E. Stratmann, 
 O. Yazyev, A. J. Austin, R. Cammi, C. Pomelli, J. W. Ochterski, 
 R. L. Martin, K. Morokuma, V. G. Zakrzewski, G. A. Voth, 
 P. Salvador, J. J. Dannenberg, S. Dapprich, A. D. Daniels, 
 O. Farkas, J. B. Foresman, J. V. Ortiz, J. Cioslowski, 
 and D. J. Fox, Gaussian, Inc., Wallingford CT, 2010.
 
 ******************************************
 Gaussian 09:  EM64L-G09RevC.01 23-Sep-2011
                 9-May-2020 
 ******************************************
 %mem=8GB
 %nproc=8
 Will use up to    8 processors via shared memory.
 -------------------------------------------------------
 #p wb97xd/aug-cc-PVTz int=ultrafine counterpoise=2 Scan
 -------------------------------------------------------
 1/38=1,60=1,62=2/1,8;
 2/12=2,17=6,18=5,29=3,40=1/2;
 1/38=1,53=5172,62=2/22;
 3/5=16,6=1,7=10,11=2,16=1,25=1,30=1,74=-58,75=-5/1,2,3;
 4//1;
 5/5=2,38=5/2;
 6/7=2,8=2,9=2,10=2,18=1,28=1/1;
 1/53=4052,62=2,63=1/22;
 3/5=7,6=11,7=10,11=2,16=1,25=1,30=1,74=-58,75=-5,82=7/1,2,3;
 4//1;
 5/5=2,38=5/2;
 6/7=2,8=2,9=2,10=2,18=1,28=1/1;
 1/53=3042,62=2,63=2/22;
 3/5=7,6=11,7=10,11=2,16=1,25=1,30=1,74=-58,75=-5,82=7/1,2,3;
 4//1;
 5/5=2,38=5/2;
 6/7=2,8=2,9=2,10=2,18=1,28=1/1;
 1/53=2032,62=2,63=3/22;
 3/5=7,6=11,7=10,11=2,16=1,25=1,30=1,74=-58,75=-5,82=7/1,2,3;
 4//1;
 5/5=2,38=5/2;
 6/7=2,8=2,9=2,10=2,18=1,28=1/1;
 1/53=1022,62=2,63=4/22;
 3/5=7,6=11,7=10,11=2,16=1,25=1,30=1,74=-58,75=-5,82=7/1,2,3;
 4//1;
 5/5=2,38=5/2;
 6/7=2,8=2,9=2,10=2,18=1,28=1/1;
 1/53=5014,62=2,63=5/22;
 1/60=1,62=2/8(1);
 99/9=1/99;
 2/29=3/2;
 1/53=5173,62=2/22;
 3/5=7,6=11,7=10,11=2,16=1,25=1,30=1,74=-58,75=-5,82=7/1,2,3;
 4/5=5,16=3/1;
 5/5=2,38=5/2;
 1/53=4053,62=2,63=1/22;
 3/5=7,6=11,7=10,11=2,16=1,25=1,30=1,74=-58,75=-5,82=7/1,2,3;
 4/5=5,16=3/1;
 5/5=2,38=5/2;
 1/53=3043,62=2,63=2/22;
 3/5=7,6=11,7=10,11=2,16=1,25=1,30=1,74=-58,75=-5,82=7/1,2,3;
 4/5=5,16=3/1;
 5/5=2,38=5/2;
 1/53=2033,62=2,63=3/22;
 3/5=7,6=11,7=10,11=2,16=1,25=1,30=1,74=-58,75=-5,82=7/1,2,3;
 4/5=5,16=3/1;
 5/5=2,38=5/2;
 1/53=1024,62=2,63=4/22;
 3/5=7,6=11,7=10,11=2,16=1,25=1,30=1,74=-58,75=-5,82=7/1,2,3;
 4/5=5,16=3/1;
 5/5=2,38=5/2;
 1/53=5014,62=2,63=5/22;
 1/60=1,62=2/8(-22);
 99/9=1/99;
 Leave Link    1 at Sat May  9 17:24:16 2020, MaxMem= 1073741824 cpu:       0.2
 (Enter /home/matheus/.gaussian/g09/l101.exe)
 ---
 TCC
 ---
 Charge =  0 Multiplicity = 1 in supermolecule
 Charge =  0 Multiplicity = 1 in fragment  1.
 Charge =  0 Multiplicity = 1 in fragment  2.
 Symbolic Z-Matrix:
 O(Fragment=1)         0.        0.        0.725 
 O(Fragment=1)         0.        0.       -0.725 
 H(Fragment=1)         0.70378   0.59054   1.02351 
 H(Fragment=1)         0.        0.91872  -1.02351 
 Kr(Fragment=2)        0.       R1        0. 
       Variables:
  R1                    3.     Scan 20    0.1    
 
 NAtoms=      5 NQM=        0 NQMF=       0 NMMI=      5 NMMIF=      0
                NMic=       0 NMicF=      0.
                    Isotopes and Nuclear Properties:
 (Nuclear quadrupole moments (NQMom) in fm**2, nuclear magnetic moments (NMagM)
  in nuclear magnetons)

  Atom         1           2           3           4           5
 IAtWgt=          16          16           1           1          84
 AtmWgt=  15.9949146  15.9949146   1.0078250   1.0078250  83.9115064
 NucSpn=           0           0           1           1           0
 AtZEff=   0.0000000   0.0000000   0.0000000   0.0000000   0.0000000
 NQMom=    0.0000000   0.0000000   0.0000000   0.0000000   0.0000000
 NMagM=    0.0000000   0.0000000   2.7928460   2.7928460   0.0000000
 Leave Link  101 at Sat May  9 17:24:16 2020, MaxMem= 1073741824 cpu:       0.4
 (Enter /home/matheus/.gaussian/g09/l108.exe)
 Scan the potential surface.
 Variable   Value     No. Steps Step-Size
 -------- ----------- --------- ---------
     1       3.000000      20      0.1000
 A total of     21 points will be computed.
 Leave Link  108 at Sat May  9 17:24:16 2020, MaxMem= 1073741824 cpu:       0.0
 (Enter /home/matheus/.gaussian/g09/l202.exe)
 ---------------------------------------------------------------------------------------------------
                            Z-MATRIX (ANGSTROMS AND DEGREES)
   CD    Cent   Atom    N1       Length/X        N2       Alpha/Y        N3        Beta/Z          J
 ---------------------------------------------------------------------------------------------------
      1      1  O        0   0.000000          0.000000          0.725000
      2      2  O        0   0.000000          0.000000         -0.725000
      3      3  H        0   0.703781          0.590542          1.023510
      4      4  H        0   0.000000          0.918721         -1.023510
      5      5  Kr       0   0.000000          3.000000          0.000000
 ---------------------------------------------------------------------------------------------------
                         Z-Matrix orientation:                         
 ---------------------------------------------------------------------
 Center     Atomic      Atomic             Coordinates (Angstroms)
 Number     Number       Type             X           Y           Z
 ---------------------------------------------------------------------
      1          8           0        0.000000    0.000000    0.725000
      2          8           0        0.000000    0.000000   -0.725000
      3          1           0        0.703781    0.590542    1.023510
      4          1           0        0.000000    0.918721   -1.023510
      5         36           0        0.000000    3.000000    0.000000
 ---------------------------------------------------------------------
                    Distance matrix (angstroms):
                    1          2          3          4          5
     1  O    0.000000
     2  O    1.450000   0.000000
     3  H    0.966000   1.975180   0.000000
     4  H    1.975180   0.966000   2.189361   0.000000
     5  Kr   3.086361   3.086361   2.710787   2.319331   0.000000
 Stoichiometry    H2KrO2
 Framework group  C1[X(H2KrO2)]
 Deg. of freedom     9
 Full point group                 C1      NOp   1
 Largest Abelian subgroup         C1      NOp   1
 Largest concise Abelian subgroup C1      NOp   1
                         Standard orientation:                         
 ---------------------------------------------------------------------
 Center     Atomic      Atomic             Coordinates (Angstroms)
 Number     Number       Type             X           Y           Z
 ---------------------------------------------------------------------
      1          8           0        2.030392   -0.713331   -0.083900
      2          8           0        2.025023    0.733004    0.018989
      3          1           0        1.447943   -1.063593    0.602558
      4          1           0        1.105248    1.026723    0.048985
      5         36           0       -0.972125   -0.003348   -0.003674
 ---------------------------------------------------------------------
 Rotational constants (GHZ):     26.0306695      2.3732907      2.1836508
 Leave Link  202 at Sat May  9 17:24:16 2020, MaxMem= 1073741824 cpu:       0.0
 (Enter /home/matheus/.gaussian/g09/l122.exe)
 Leave Link  122 at Sat May  9 17:24:16 2020, MaxMem= 1073741824 cpu:       0.0
 (Enter /home/matheus/.gaussian/g09/l301.exe)
 Standard basis: Aug-CC-pVTZ (5D, 7F)
 Ernie: Thresh=  0.10000D-02 Tol=  0.10000D-05 Strict=F.
 Ernie:  38 primitive shells out of 205 were deleted.
 There are   197 symmetry adapted basis functions of A   symmetry.
 Integral buffers will be    131072 words long.
 Raffenetti 2 integral format.
 Two-electron integral symmetry is turned on.
   197 basis functions,   415 primitive gaussians,   229 cartesian basis functions
    27 alpha electrons       27 beta electrons
       nuclear repulsion energy       150.6503454741 Hartrees.
 IExCor= 4639 DFT=T Ex+Corr=wB97XD ExCW=0 ScaHFX=  1.000000
 ScaDFX=  1.000000  1.000000  1.000000  1.000000 ScalE2=  1.000000  1.000000
 IRadAn=      5 IRanWt=     -1 IRanGd=            0 ICorTp=0
  HFx wShort=  0.000000 wLong=  0.200000 cFull=  0.222036 cShort=  0.000000 cLong=  0.777964
  DFx wShort=  0.000000 wLong=  0.200000 cFull=  0.000000 cShort=  0.000000 cLong=  1.000000
 NAtoms=    5 NActive=    5 NUniq=    5 SFac= 1.00D+00 NAtFMM=   60 NAOKFM=F Big=F
 R6Disp: Dispersion energy =        -0.0008742328 Hartrees.
 Nuclear repulsion after empirical dispersion term =      150.6494712413 Hartrees.
 Leave Link  301 at Sat May  9 17:24:16 2020, MaxMem= 1073741824 cpu:       0.2
 (Enter /home/matheus/.gaussian/g09/l302.exe)
 NPDir=0 NMtPBC=     1 NCelOv=     1 NCel=       1 NClECP=     1 NCelD=      1
         NCelK=      1 NCelE2=     1 NClLst=     1 CellRange=     0.0.
 One-electron integrals computed using PRISM.
 NBasis=   197 RedAO= T  NBF=   197
 NBsUse=   197 1.00D-06 NBFU=   197
 Precomputing XC quadrature grid using
 IXCGrd= 2 IRadAn=           5 IRanWt=          -1 IRanGd=           0 AccXCQ= 0.00D+00.
 NRdTot=     427 NPtTot=      123512 NUsed=      126579 NTot=      126611
 NSgBfM=   229   229   229   229   229 NAtAll=     5     5.
 Leave Link  302 at Sat May  9 17:24:16 2020, MaxMem= 1073741824 cpu:       1.0
 (Enter /home/matheus/.gaussian/g09/l303.exe)
 DipDrv:  MaxL=1.
 Leave Link  303 at Sat May  9 17:24:16 2020, MaxMem= 1073741824 cpu:       0.2
 (Enter /home/matheus/.gaussian/g09/l401.exe)
 Harris functional with IExCor= 4639 diagonalized for initial guess.
 ExpMin= 2.53D-02 ExpMax= 1.17D+07 ExpMxC= 1.33D+04 IAcc=3 IRadAn=         5 AccDes= 0.00D+00
 HarFok:  IExCor= 4639 AccDes= 0.00D+00 IRadAn=         5 IDoV= 1
 ScaDFX=  1.000000  1.000000  1.000000  1.000000
 FoFCou: FMM=F IPFlag=           0 FMFlag=      100000 FMFlg1=           0
         NFxFlg=           0 DoJE=T BraDBF=F KetDBF=T FulRan=T
         Omega=  0.000000  0.000000  1.000000  0.000000  0.000000 ICntrl=     500 IOpCl=  0
         NMat0=    1 NMatS0=    1 NMatT0=    0 NMatD0=    1 NMtDS0=    0 NMtDT0=    0
         I1Cent=           4 NGrid=           0.
 Petite list used in FoFCou.
 Harris En= -2876.48606719514    
 Initial guess orbital symmetries:
       Occupied  (A) (A) (A) (A) (A) (A) (A) (A) (A) (A) (A) (A)
                 (A) (A) (A) (A) (A) (A) (A) (A) (A) (A) (A) (A)
                 (A) (A) (A)
       Virtual   (A) (A) (A) (A) (A) (A) (A) (A) (A) (A) (A) (A)
                 (A) (A) (A) (A) (A) (A) (A) (A) (A) (A) (A) (A)
                 (A) (A) (A) (A) (A) (A) (A) (A) (A) (A) (A) (A)
                 (A) (A) (A) (A) (A) (A) (A) (A) (A) (A) (A) (A)
                 (A) (A) (A) (A) (A) (A) (A) (A) (A) (A) (A) (A)
                 (A) (A) (A) (A) (A) (A) (A) (A) (A) (A) (A) (A)
                 (A) (A) (A) (A) (A) (A) (A) (A) (A) (A) (A) (A)
                 (A) (A) (A) (A) (A) (A) (A) (A) (A) (A) (A) (A)
                 (A) (A) (A) (A) (A) (A) (A) (A) (A) (A) (A) (A)
                 (A) (A) (A) (A) (A) (A) (A) (A) (A) (A) (A) (A)
                 (A) (A) (A) (A) (A) (A) (A) (A) (A) (A) (A) (A)
                 (A) (A) (A) (A) (A) (A) (A) (A) (A) (A) (A) (A)
                 (A) (A) (A) (A) (A) (A) (A) (A) (A) (A) (A) (A)
                 (A) (A) (A) (A) (A) (A) (A) (A) (A) (A) (A) (A)
                 (A) (A)
 The electronic state of the initial guess is 1-A.
 Leave Link  401 at Sat May  9 17:24:17 2020, MaxMem= 1073741824 cpu:       4.1
 (Enter /home/matheus/.gaussian/g09/l502.exe)
 Closed shell SCF:
 Requested convergence on RMS density matrix=1.00D-08 within 128 cycles.
 Requested convergence on MAX density matrix=1.00D-06.
 Requested convergence on             energy=1.00D-06.
 No special actions if energy rises.
 Using DIIS extrapolation, IDIIS=  1040.
 Integral symmetry usage will be decided dynamically.
       126521 words used for storage of precomputed grid.
 IEnd=      305468 IEndB=      305468 NGot=  1073741824 MDV=  1073505667
 LenX=  1073505667 LenY=  1073452785
 Fock matrices will be formed incrementally for  20 cycles.

 Cycle   1  Pass 1  IDiag  1:
 FoFJK:  IHMeth= 1 ICntrl=     0 DoSepK=T KAlg= 1 I1Cent= 0 FoldK=F
 FoFCou: FMM=F IPFlag=           0 FMFlag=      100000 FMFlg1=           0
         NFxFlg=           0 DoJE=T BraDBF=F KetDBF=F FulRan=T
         Omega=  0.000000  0.000000  1.000000  0.000000  0.000000 ICntrl=     500 IOpCl=  0
         NMat0=    1 NMatS0=    1 NMatT0=    0 NMatD0=    1 NMtDS0=    0 NMtDT0=    0
         I1Cent=           0 NGrid=           0.
 Symmetry not used in FoFCou.
 E= -2904.93039264205    
 DIIS: error= 7.60D-02 at cycle   1 NSaved=   1.
 NSaved= 1 IEnMin= 1 EnMin= -2904.93039264205     IErMin= 1 ErrMin= 7.60D-02
 ErrMax= 7.60D-02 EMaxC= 1.00D-01 BMatC= 2.18D+00 BMatP= 2.18D+00
 IDIUse=3 WtCom= 2.40D-01 WtEn= 7.60D-01
 Coeff-Com:  0.100D+01
 Coeff-En:   0.100D+01
 Coeff:      0.100D+01
 Gap=     0.504 Goal=   None    Shift=    0.000
 GapD=    0.504 DampG=2.000 DampE=0.500 DampFc=1.0000 IDamp=-1.
 RMSDP=6.20D-03 MaxDP=3.72D-01              OVMax= 1.81D-01

 Cycle   2  Pass 1  IDiag  1:
 RMSU=  4.36D-03    CP:  1.03D+00
 FoFJK:  IHMeth= 1 ICntrl=     0 DoSepK=T KAlg= 1 I1Cent= 0 FoldK=F
 E= -2905.22807830131     Delta-E=       -0.297685659261 Rises=F Damp=F
 DIIS: error= 3.15D-02 at cycle   2 NSaved=   2.
 NSaved= 2 IEnMin= 2 EnMin= -2905.22807830131     IErMin= 2 ErrMin= 3.15D-02
 ErrMax= 3.15D-02 EMaxC= 1.00D-01 BMatC= 5.63D-01 BMatP= 2.18D+00
 IDIUse=3 WtCom= 6.85D-01 WtEn= 3.15D-01
 Coeff-Com:  0.329D+00 0.671D+00
 Coeff-En:   0.211D+00 0.789D+00
 Coeff:      0.292D+00 0.708D+00
 Gap=     0.452 Goal=   None    Shift=    0.000
 RMSDP=2.72D-03 MaxDP=1.60D-01 DE=-2.98D-01 OVMax= 7.63D-02

 Cycle   3  Pass 1  IDiag  1:
 RMSU=  5.54D-04    CP:  1.02D+00  5.79D-01
 FoFJK:  IHMeth= 1 ICntrl=     0 DoSepK=T KAlg= 1 I1Cent= 0 FoldK=F
 E= -2905.41835039369     Delta-E=       -0.190272092375 Rises=F Damp=F
 DIIS: error= 5.23D-03 at cycle   3 NSaved=   3.
 NSaved= 3 IEnMin= 3 EnMin= -2905.41835039369     IErMin= 3 ErrMin= 5.23D-03
 ErrMax= 5.23D-03 EMaxC= 1.00D-01 BMatC= 1.84D-02 BMatP= 5.63D-01
 IDIUse=3 WtCom= 9.48D-01 WtEn= 5.23D-02
 Coeff-Com:  0.343D-01 0.189D+00 0.776D+00
 Coeff-En:   0.000D+00 0.000D+00 0.100D+01
 Coeff:      0.325D-01 0.179D+00 0.788D+00
 Gap=     0.414 Goal=   None    Shift=    0.000
 RMSDP=5.05D-04 MaxDP=2.02D-02 DE=-1.90D-01 OVMax= 2.57D-02

 Cycle   4  Pass 1  IDiag  1:
 RMSU=  2.42D-04    CP:  1.02D+00  6.38D-01  8.95D-01
 FoFJK:  IHMeth= 1 ICntrl=     0 DoSepK=T KAlg= 1 I1Cent= 0 FoldK=F
 E= -2905.42650699945     Delta-E=       -0.008156605758 Rises=F Damp=F
 DIIS: error= 2.31D-03 at cycle   4 NSaved=   4.
 NSaved= 4 IEnMin= 4 EnMin= -2905.42650699945     IErMin= 4 ErrMin= 2.31D-03
 ErrMax= 2.31D-03 EMaxC= 1.00D-01 BMatC= 1.99D-03 BMatP= 1.84D-02
 IDIUse=3 WtCom= 9.77D-01 WtEn= 2.31D-02
 Coeff-Com: -0.117D-02 0.536D-01 0.383D+00 0.565D+00
 Coeff-En:   0.000D+00 0.000D+00 0.000D+00 0.100D+01
 Coeff:     -0.114D-02 0.524D-01 0.374D+00 0.575D+00
 Gap=     0.398 Goal=   None    Shift=    0.000
 RMSDP=1.36D-04 MaxDP=7.41D-03 DE=-8.16D-03 OVMax= 7.31D-03

 Cycle   5  Pass 1  IDiag  1:
 RMSU=  3.79D-05    CP:  1.02D+00  6.34D-01  9.29D-01  6.50D-01
 FoFJK:  IHMeth= 1 ICntrl=     0 DoSepK=T KAlg= 1 I1Cent= 0 FoldK=F
 E= -2905.42773489116     Delta-E=       -0.001227891713 Rises=F Damp=F
 DIIS: error= 1.92D-04 at cycle   5 NSaved=   5.
 NSaved= 5 IEnMin= 5 EnMin= -2905.42773489116     IErMin= 5 ErrMin= 1.92D-04
 ErrMax= 1.92D-04 EMaxC= 1.00D-01 BMatC= 1.61D-05 BMatP= 1.99D-03
 IDIUse=3 WtCom= 9.98D-01 WtEn= 1.92D-03
 Coeff-Com: -0.958D-03 0.971D-02 0.858D-01 0.146D+00 0.760D+00
 Coeff-En:   0.000D+00 0.000D+00 0.000D+00 0.000D+00 0.100D+01
 Coeff:     -0.956D-03 0.969D-02 0.856D-01 0.145D+00 0.760D+00
 Gap=     0.398 Goal=   None    Shift=    0.000
 RMSDP=1.99D-05 MaxDP=8.82D-04 DE=-1.23D-03 OVMax= 1.33D-03

 Cycle   6  Pass 1  IDiag  1:
 RMSU=  1.28D-05    CP:  1.02D+00  6.34D-01  9.36D-01  6.61D-01  1.08D+00
 FoFJK:  IHMeth= 1 ICntrl=     0 DoSepK=T KAlg= 1 I1Cent= 0 FoldK=F
 E= -2905.42774123433     Delta-E=       -0.000006343167 Rises=F Damp=F
 DIIS: error= 1.58D-04 at cycle   6 NSaved=   6.
 NSaved= 6 IEnMin= 6 EnMin= -2905.42774123433     IErMin= 6 ErrMin= 1.58D-04
 ErrMax= 1.58D-04 EMaxC= 1.00D-01 BMatC= 9.76D-06 BMatP= 1.61D-05
 IDIUse=3 WtCom= 9.98D-01 WtEn= 1.58D-03
 Coeff-Com: -0.376D-03-0.473D-02-0.221D-01-0.248D-01 0.456D+00 0.596D+00
 Coeff-En:   0.000D+00 0.000D+00 0.000D+00 0.000D+00 0.302D+00 0.698D+00
 Coeff:     -0.375D-03-0.472D-02-0.221D-01-0.247D-01 0.455D+00 0.597D+00
 Gap=     0.398 Goal=   None    Shift=    0.000
 RMSDP=1.01D-05 MaxDP=4.17D-04 DE=-6.34D-06 OVMax= 7.31D-04

 Cycle   7  Pass 1  IDiag  1:
 RMSU=  3.87D-06    CP:  1.02D+00  6.34D-01  9.40D-01  6.63D-01  1.20D+00
                    CP:  7.52D-01
 FoFJK:  IHMeth= 1 ICntrl=     0 DoSepK=T KAlg= 1 I1Cent= 0 FoldK=F
 E= -2905.42774787468     Delta-E=       -0.000006640349 Rises=F Damp=F
 DIIS: error= 2.09D-05 at cycle   7 NSaved=   7.
 NSaved= 7 IEnMin= 7 EnMin= -2905.42774787468     IErMin= 7 ErrMin= 2.09D-05
 ErrMax= 2.09D-05 EMaxC= 1.00D-01 BMatC= 1.07D-07 BMatP= 9.76D-06
 IDIUse=1 WtCom= 1.00D+00 WtEn= 0.00D+00
 Coeff-Com: -0.576D-05-0.147D-02-0.950D-02-0.133D-01 0.228D-01 0.107D+00
 Coeff-Com:  0.895D+00
 Coeff:     -0.576D-05-0.147D-02-0.950D-02-0.133D-01 0.228D-01 0.107D+00
 Coeff:      0.895D+00
 Gap=     0.398 Goal=   None    Shift=    0.000
 RMSDP=2.26D-06 MaxDP=5.71D-05 DE=-6.64D-06 OVMax= 1.71D-04

 Cycle   8  Pass 1  IDiag  1:
 RMSU=  9.06D-07    CP:  1.02D+00  6.34D-01  9.41D-01  6.64D-01  1.22D+00
                    CP:  8.10D-01  1.14D+00
 FoFJK:  IHMeth= 1 ICntrl=     0 DoSepK=T KAlg= 1 I1Cent= 0 FoldK=F
 E= -2905.42774802945     Delta-E=       -0.000000154776 Rises=F Damp=F
 DIIS: error= 4.76D-06 at cycle   8 NSaved=   8.
 NSaved= 8 IEnMin= 8 EnMin= -2905.42774802945     IErMin= 8 ErrMin= 4.76D-06
 ErrMax= 4.76D-06 EMaxC= 1.00D-01 BMatC= 4.80D-09 BMatP= 1.07D-07
 IDIUse=1 WtCom= 1.00D+00 WtEn= 0.00D+00
 Coeff-Com:  0.206D-04 0.113D-03 0.285D-03-0.490D-04-0.251D-01-0.249D-01
 Coeff-Com:  0.614D-01 0.988D+00
 Coeff:      0.206D-04 0.113D-03 0.285D-03-0.490D-04-0.251D-01-0.249D-01
 Coeff:      0.614D-01 0.988D+00
 Gap=     0.398 Goal=   None    Shift=    0.000
 RMSDP=7.50D-07 MaxDP=1.60D-05 DE=-1.55D-07 OVMax= 6.77D-05

 Cycle   9  Pass 1  IDiag  1:
 RMSU=  2.45D-07    CP:  1.02D+00  6.34D-01  9.41D-01  6.63D-01  1.23D+00
                    CP:  8.20D-01  1.21D+00  1.30D+00
 FoFJK:  IHMeth= 1 ICntrl=     0 DoSepK=T KAlg= 1 I1Cent= 0 FoldK=F
 E= -2905.42774804124     Delta-E=       -0.000000011791 Rises=F Damp=F
 DIIS: error= 1.65D-06 at cycle   9 NSaved=   9.
 NSaved= 9 IEnMin= 9 EnMin= -2905.42774804124     IErMin= 9 ErrMin= 1.65D-06
 ErrMax= 1.65D-06 EMaxC= 1.00D-01 BMatC= 4.09D-10 BMatP= 4.80D-09
 IDIUse=1 WtCom= 1.00D+00 WtEn= 0.00D+00
 Coeff-Com:  0.212D-06 0.858D-04 0.567D-03 0.585D-03-0.229D-02-0.613D-02
 Coeff-Com: -0.470D-01-0.506D-02 0.106D+01
 Coeff:      0.212D-06 0.858D-04 0.567D-03 0.585D-03-0.229D-02-0.613D-02
 Coeff:     -0.470D-01-0.506D-02 0.106D+01
 Gap=     0.398 Goal=   None    Shift=    0.000
 RMSDP=2.34D-07 MaxDP=6.53D-06 DE=-1.18D-08 OVMax= 2.63D-05

 Cycle  10  Pass 1  IDiag  1:
 RMSU=  7.90D-08    CP:  1.02D+00  6.34D-01  9.41D-01  6.63D-01  1.23D+00
                    CP:  8.21D-01  1.23D+00  1.40D+00  1.28D+00
 FoFJK:  IHMeth= 1 ICntrl=     0 DoSepK=T KAlg= 1 I1Cent= 0 FoldK=F
 E= -2905.42774804238     Delta-E=       -0.000000001140 Rises=F Damp=F
 DIIS: error= 4.03D-07 at cycle  10 NSaved=  10.
 NSaved=10 IEnMin=10 EnMin= -2905.42774804238     IErMin=10 ErrMin= 4.03D-07
 ErrMax= 4.03D-07 EMaxC= 1.00D-01 BMatC= 4.23D-11 BMatP= 4.09D-10
 IDIUse=1 WtCom= 1.00D+00 WtEn= 0.00D+00
 Coeff-Com: -0.136D-05-0.194D-07 0.298D-04 0.327D-04 0.217D-02 0.216D-02
 Coeff-Com: -0.687D-02-0.109D+00 0.151D+00 0.960D+00
 Coeff:     -0.136D-05-0.194D-07 0.298D-04 0.327D-04 0.217D-02 0.216D-02
 Coeff:     -0.687D-02-0.109D+00 0.151D+00 0.960D+00
 Gap=     0.398 Goal=   None    Shift=    0.000
 RMSDP=6.70D-08 MaxDP=1.54D-06 DE=-1.14D-09 OVMax= 8.34D-06

 Cycle  11  Pass 1  IDiag  1:
 RMSU=  1.96D-08    CP:  1.02D+00  6.34D-01  9.41D-01  6.63D-01  1.23D+00
                    CP:  8.21D-01  1.23D+00  1.42D+00  1.41D+00  1.26D+00
 FoFJK:  IHMeth= 1 ICntrl=     0 DoSepK=T KAlg= 1 I1Cent= 0 FoldK=F
 E= -2905.42774804246     Delta-E=       -0.000000000076 Rises=F Damp=F
 DIIS: error= 8.68D-08 at cycle  11 NSaved=  11.
 NSaved=11 IEnMin=11 EnMin= -2905.42774804246     IErMin=11 ErrMin= 8.68D-08
 ErrMax= 8.68D-08 EMaxC= 1.00D-01 BMatC= 2.60D-12 BMatP= 4.23D-11
 IDIUse=1 WtCom= 1.00D+00 WtEn= 0.00D+00
 Coeff-Com:  0.355D-06-0.429D-05-0.381D-04-0.224D-04-0.403D-04 0.238D-03
 Coeff-Com:  0.435D-02 0.321D-02-0.767D-01-0.756D-01 0.114D+01
 Coeff:      0.355D-06-0.429D-05-0.381D-04-0.224D-04-0.403D-04 0.238D-03
 Coeff:      0.435D-02 0.321D-02-0.767D-01-0.756D-01 0.114D+01
 Gap=     0.398 Goal=   None    Shift=    0.000
 RMSDP=2.02D-08 MaxDP=3.62D-07 DE=-7.64D-11 OVMax= 2.49D-06

 Cycle  12  Pass 1  IDiag  1:
 RMSU=  4.24D-09    CP:  1.02D+00  6.34D-01  9.41D-01  6.63D-01  1.23D+00
                    CP:  8.21D-01  1.23D+00  1.42D+00  1.44D+00  1.38D+00
                    CP:  1.27D+00
 FoFJK:  IHMeth= 1 ICntrl=     0 DoSepK=T KAlg= 1 I1Cent= 0 FoldK=F
 E= -2905.42774804247     Delta-E=       -0.000000000010 Rises=F Damp=F
 DIIS: error= 2.27D-08 at cycle  12 NSaved=  12.
 NSaved=12 IEnMin=12 EnMin= -2905.42774804247     IErMin=12 ErrMin= 2.27D-08
 ErrMax= 2.27D-08 EMaxC= 1.00D-01 BMatC= 8.47D-14 BMatP= 2.60D-12
 IDIUse=1 WtCom= 1.00D+00 WtEn= 0.00D+00
 Coeff-Com: -0.350D-08-0.362D-06-0.160D-05-0.418D-05-0.984D-04-0.977D-04
 Coeff-Com:  0.300D-03 0.391D-02-0.778D-03-0.286D-01-0.958D-01 0.112D+01
 Coeff:     -0.350D-08-0.362D-06-0.160D-05-0.418D-05-0.984D-04-0.977D-04
 Coeff:      0.300D-03 0.391D-02-0.778D-03-0.286D-01-0.958D-01 0.112D+01
 Gap=     0.398 Goal=   None    Shift=    0.000
 RMSDP=3.86D-09 MaxDP=1.31D-07 DE=-9.55D-12 OVMax= 4.09D-07

 SCF Done:  E(RwB97XD) =  -2905.42774804     A.U. after   12 cycles
             Convg  =    0.3859D-08             -V/T =  2.0015
 KE= 2.900998766632D+03 PE=-7.239074442308D+03 EE= 1.281998456392D+03
 Leave Link  502 at Sat May  9 17:24:57 2020, MaxMem= 1073741824 cpu:     322.1
 (Enter /home/matheus/.gaussian/g09/l601.exe)
 Copying SCF densities to generalized density rwf, IOpCl= 0 IROHF=0.

 **********************************************************************

            Population analysis using the SCF density.

 **********************************************************************

 Orbital symmetries:
       Occupied  (A) (A) (A) (A) (A) (A) (A) (A) (A) (A) (A) (A)
                 (A) (A) (A) (A) (A) (A) (A) (A) (A) (A) (A) (A)
                 (A) (A) (A)
       Virtual   (A) (A) (A) (A) (A) (A) (A) (A) (A) (A) (A) (A)
                 (A) (A) (A) (A) (A) (A) (A) (A) (A) (A) (A) (A)
                 (A) (A) (A) (A) (A) (A) (A) (A) (A) (A) (A) (A)
                 (A) (A) (A) (A) (A) (A) (A) (A) (A) (A) (A) (A)
                 (A) (A) (A) (A) (A) (A) (A) (A) (A) (A) (A) (A)
                 (A) (A) (A) (A) (A) (A) (A) (A) (A) (A) (A) (A)
                 (A) (A) (A) (A) (A) (A) (A) (A) (A) (A) (A) (A)
                 (A) (A) (A) (A) (A) (A) (A) (A) (A) (A) (A) (A)
                 (A) (A) (A) (A) (A) (A) (A) (A) (A) (A) (A) (A)
                 (A) (A) (A) (A) (A) (A) (A) (A) (A) (A) (A) (A)
                 (A) (A) (A) (A) (A) (A) (A) (A) (A) (A) (A) (A)
                 (A) (A) (A) (A) (A) (A) (A) (A) (A) (A) (A) (A)
                 (A) (A) (A) (A) (A) (A) (A) (A) (A) (A) (A) (A)
                 (A) (A) (A) (A) (A) (A) (A) (A) (A) (A) (A) (A)
                 (A) (A)
 The electronic state is 1-A.
 Alpha  occ. eigenvalues -- -513.08678 -67.35357 -60.90240 -60.90231 -60.90222
 Alpha  occ. eigenvalues --  -19.31753 -19.31466  -9.80663  -7.49987  -7.49958
 Alpha  occ. eigenvalues --   -7.49928  -3.36728  -3.36723  -3.36700  -3.36677
 Alpha  occ. eigenvalues --   -3.36673  -1.22274  -1.01475  -1.00744  -0.66676
 Alpha  occ. eigenvalues --   -0.54221  -0.52574  -0.49696  -0.49262  -0.48238
 Alpha  occ. eigenvalues --   -0.43243  -0.36392
 Alpha virt. eigenvalues --    0.03398   0.04272   0.08263   0.09009   0.09893
 Alpha virt. eigenvalues --    0.11811   0.12603   0.14568   0.17030   0.17288
 Alpha virt. eigenvalues --    0.18039   0.18970   0.20133   0.21893   0.23019
 Alpha virt. eigenvalues --    0.23803   0.24507   0.27509   0.29716   0.32258
 Alpha virt. eigenvalues --    0.33769   0.34814   0.36579   0.38044   0.39585
 Alpha virt. eigenvalues --    0.41177   0.41871   0.46764   0.51480   0.53193
 Alpha virt. eigenvalues --    0.55741   0.57936   0.60204   0.62797   0.66397
 Alpha virt. eigenvalues --    0.67239   0.69062   0.71966   0.73535   0.74174
 Alpha virt. eigenvalues --    0.74805   0.75772   0.77180   0.79141   0.82304
 Alpha virt. eigenvalues --    0.83649   0.85033   0.86873   0.87408   0.88794
 Alpha virt. eigenvalues --    0.89901   0.93581   0.95197   0.95962   0.98486
 Alpha virt. eigenvalues --    0.99361   1.00482   1.03042   1.05353   1.08335
 Alpha virt. eigenvalues --    1.09786   1.13998   1.17060   1.20190   1.22437
 Alpha virt. eigenvalues --    1.27170   1.31778   1.34911   1.38261   1.40790
 Alpha virt. eigenvalues --    1.42411   1.46304   1.49001   1.52833   1.57688
 Alpha virt. eigenvalues --    1.63711   1.66966   1.81275   1.87899   1.90897
 Alpha virt. eigenvalues --    1.98002   2.03546   2.06455   2.08049   2.11698
 Alpha virt. eigenvalues --    2.12660   2.16451   2.17124   2.19247   2.23185
 Alpha virt. eigenvalues --    2.26640   2.26910   2.27718   2.29475   2.30305
 Alpha virt. eigenvalues --    2.35694   2.35982   2.41932   2.44814   2.44916
 Alpha virt. eigenvalues --    2.47262   2.48871   2.52238   2.52862   2.54550
 Alpha virt. eigenvalues --    2.55749   2.60376   2.63336   2.66436   2.69030
 Alpha virt. eigenvalues --    2.70505   2.73743   2.79786   2.85615   2.86641
 Alpha virt. eigenvalues --    2.91789   2.98462   3.07196   3.09397   3.58779
 Alpha virt. eigenvalues --    3.64627   3.92213   3.95843   3.97564   4.01873
 Alpha virt. eigenvalues --    4.08766   4.10539   4.20935   4.22146   4.23948
 Alpha virt. eigenvalues --    4.40789   4.44900   4.57569   4.60336   4.66634
 Alpha virt. eigenvalues --    4.94354   4.97987   4.99216   5.04883   5.12628
 Alpha virt. eigenvalues --    5.14878   5.42554   5.82732   5.99567   6.10317
 Alpha virt. eigenvalues --    6.11408   6.28731   6.36805   6.38189   6.51006
 Alpha virt. eigenvalues --    6.63273   6.72514   6.76297   6.81426   6.83473
 Alpha virt. eigenvalues --    6.87564   6.88419   6.90029   6.90357   7.02661
 Alpha virt. eigenvalues --    7.08915   7.14525   7.22141   7.43625   7.48219
 Alpha virt. eigenvalues --    7.85421   8.02915   8.13310  14.03340  14.65788
          Condensed to atoms (all electrons):
              1          2          3          4          5
     1  O    8.245339  -0.205848   0.173185   0.022006  -0.021071
     2  O   -0.205848   8.298064   0.025695   0.157649  -0.019639
     3  H    0.173185   0.025695   0.584883  -0.005085   0.002253
     4  H    0.022006   0.157649  -0.005085   0.590661  -0.009296
     5  Kr  -0.021071  -0.019639   0.002253  -0.009296  36.041357
 Mulliken atomic charges:
              1
     1  O   -0.213611
     2  O   -0.255920
     3  H    0.219070
     4  H    0.244065
     5  Kr   0.006396
 Sum of Mulliken atomic charges =   0.00000
 Mulliken charges with hydrogens summed into heavy atoms:
              1
     1  O    0.005459
     2  O   -0.011855
     5  Kr   0.006396
 Sum of Mulliken charges with hydrogens summed into heavy atoms =   0.00000
          Condensed to fragments (all electrons):
     1      -0.006396
     2       0.006396
 Electronic spatial extent (au):  <R**2>=            478.2315
 Charge=              0.0000 electrons
 Dipole moment (field-independent basis, Debye):
    X=             -2.8882    Y=             -0.2194    Z=              1.0414  Tot=              3.0781
 Quadrupole moment (field-independent basis, Debye-Ang):
   XX=            -37.6535   YY=            -27.9318   ZZ=            -29.5836
   XY=             -0.8101   XZ=              1.5167   YZ=             -1.3687
 Traceless Quadrupole moment (field-independent basis, Debye-Ang):
   XX=             -5.9305   YY=              3.7912   ZZ=              2.1394
   XY=             -0.8101   XZ=              1.5167   YZ=             -1.3687
 Octapole moment (field-independent basis, Debye-Ang**2):
  XXX=            -42.4789  YYY=             -0.5691  ZZZ=              0.4241  XYY=             -6.7553
  XXY=             -2.0376  XXZ=              1.2228  XZZ=             -7.2122  YZZ=             -1.0992
  YYZ=              1.6343  XYZ=             -1.9742
 Hexadecapole moment (field-independent basis, Debye-Ang**3):
 XXXX=           -458.5256 YYYY=            -62.8877 ZZZZ=            -29.6772 XXXY=             -2.7561
 XXXZ=              0.7587 YYYX=             -1.5275 YYYZ=             -1.9477 ZZZX=              0.9915
 ZZZY=             -1.1619 XXYY=            -84.2428 XXZZ=            -74.4232 YYZZ=            -16.4608
 XXYZ=             -2.8662 YYXZ=              2.3530 ZZXY=             -1.6485
 N-N= 1.506494712413D+02 E-N=-7.239074439106D+03  KE= 2.900998766632D+03
 No NMR shielding tensors so no spin-rotation constants.
 Leave Link  601 at Sat May  9 17:24:57 2020, MaxMem= 1073741824 cpu:       0.7
 (Enter /home/matheus/.gaussian/g09/l122.exe)
 Counterpoise: doing DCBS calculation for fragment   1 NewBq=T
 Leave Link  122 at Sat May  9 17:24:57 2020, MaxMem= 1073741824 cpu:       0.0
 (Enter /home/matheus/.gaussian/g09/l301.exe)
 Basis read from rwf:  (5D, 7F)
 No pseudopotential information found on rwf file.
 There are   197 symmetry adapted basis functions of A   symmetry.
 Integral buffers will be    131072 words long.
 Raffenetti 2 integral format.
 Two-electron integral symmetry is turned on.
   197 basis functions,   415 primitive gaussians,   229 cartesian basis functions
     9 alpha electrons        9 beta electrons
       nuclear repulsion energy        36.6499454140 Hartrees.
 IExCor= 4639 DFT=T Ex+Corr=wB97XD ExCW=0 ScaHFX=  1.000000
 ScaDFX=  1.000000  1.000000  1.000000  1.000000 ScalE2=  1.000000  1.000000
 IRadAn=      5 IRanWt=     -1 IRanGd=            0 ICorTp=0
  HFx wShort=  0.000000 wLong=  0.200000 cFull=  0.222036 cShort=  0.000000 cLong=  0.777964
  DFx wShort=  0.000000 wLong=  0.200000 cFull=  0.000000 cShort=  0.000000 cLong=  1.000000
 NAtoms=    5 NActive=    5 NUniq=    5 SFac= 1.00D+00 NAtFMM=   60 NAOKFM=F Big=F
 R6Disp: Dispersion energy =        -0.0002472616 Hartrees.
 Nuclear repulsion after empirical dispersion term =       36.6496981524 Hartrees.
 No density basis found on file   718.
 Leave Link  301 at Sat May  9 17:24:57 2020, MaxMem= 1073741824 cpu:       0.2
 (Enter /home/matheus/.gaussian/g09/l302.exe)
 NPDir=0 NMtPBC=     1 NCelOv=     1 NCel=       1 NClECP=     1 NCelD=      1
         NCelK=      1 NCelE2=     1 NClLst=     1 CellRange=     0.0.
 One-electron integrals computed using PRISM.
 NBasis=   197 RedAO= T  NBF=   197
 NBsUse=   197 1.00D-06 NBFU=   197
 Precomputing XC quadrature grid using
 IXCGrd= 2 IRadAn=           5 IRanWt=          -1 IRanGd=           0 AccXCQ= 0.00D+00.
 NRdTot=     427 NPtTot=      123512 NUsed=      126579 NTot=      126611
 NSgBfM=   229   229   229   229   229 NAtAll=     5     5.
 Leave Link  302 at Sat May  9 17:24:57 2020, MaxMem= 1073741824 cpu:       1.1
 (Enter /home/matheus/.gaussian/g09/l303.exe)
 DipDrv:  MaxL=1.
 Leave Link  303 at Sat May  9 17:24:57 2020, MaxMem= 1073741824 cpu:       0.2
 (Enter /home/matheus/.gaussian/g09/l401.exe)
 Harris functional with IExCor= 4639 diagonalized for initial guess.
 ExpMin= 2.53D-02 ExpMax= 1.17D+07 ExpMxC= 1.33D+04 IAcc=3 IRadAn=         5 AccDes= 0.00D+00
 HarFok:  IExCor= 4639 AccDes= 0.00D+00 IRadAn=         5 IDoV= 1
 ScaDFX=  1.000000  1.000000  1.000000  1.000000
 FoFCou: FMM=F IPFlag=           0 FMFlag=      100000 FMFlg1=           0
         NFxFlg=           0 DoJE=T BraDBF=F KetDBF=T FulRan=T
         Omega=  0.000000  0.000000  1.000000  0.000000  0.000000 ICntrl=     500 IOpCl=  0
         NMat0=    1 NMatS0=    1 NMatT0=    0 NMatD0=    1 NMtDS0=    0 NMtDT0=    0
         I1Cent=           4 NGrid=           0.
 Petite list used in FoFCou.
 Harris En= -146.293664786411    
 Initial guess orbital symmetries:
       Occupied  (A) (A) (A) (A) (A) (A) (A) (A) (A)
       Virtual   (A) (A) (A) (A) (A) (A) (A) (A) (A) (A) (A) (A)
                 (A) (A) (A) (A) (A) (A) (A) (A) (A) (A) (A) (A)
                 (A) (A) (A) (A) (A) (A) (A) (A) (A) (A) (A) (A)
                 (A) (A) (A) (A) (A) (A) (A) (A) (A) (A) (A) (A)
                 (A) (A) (A) (A) (A) (A) (A) (A) (A) (A) (A) (A)
                 (A) (A) (A) (A) (A) (A) (A) (A) (A) (A) (A) (A)
                 (A) (A) (A) (A) (A) (A) (A) (A) (A) (A) (A) (A)
                 (A) (A) (A) (A) (A) (A) (A) (A) (A) (A) (A) (A)
                 (A) (A) (A) (A) (A) (A) (A) (A) (A) (A) (A) (A)
                 (A) (A) (A) (A) (A) (A) (A) (A) (A) (A) (A) (A)
                 (A) (A) (A) (A) (A) (A) (A) (A) (A) (A) (A) (A)
                 (A) (A) (A) (A) (A) (A) (A) (A) (A) (A) (A) (A)
                 (A) (A) (A) (A) (A) (A) (A) (A) (A) (A) (A) (A)
                 (A) (A) (A) (A) (A) (A) (A) (A) (A) (A) (A) (A)
                 (A) (A) (A) (A) (A) (A) (A) (A) (A) (A) (A) (A)
                 (A) (A) (A) (A) (A) (A) (A) (A)
 The electronic state of the initial guess is 1-A.
 Leave Link  401 at Sat May  9 17:24:58 2020, MaxMem= 1073741824 cpu:       4.0
 (Enter /home/matheus/.gaussian/g09/l502.exe)
 Closed shell SCF:
 Requested convergence on RMS density matrix=1.00D-08 within 128 cycles.
 Requested convergence on MAX density matrix=1.00D-06.
 Requested convergence on             energy=1.00D-06.
 No special actions if energy rises.
 Using DIIS extrapolation, IDIIS=  1040.
 Integral symmetry usage will be decided dynamically.
       126521 words used for storage of precomputed grid.
 IEnd=      305468 IEndB=      305468 NGot=  1073741824 MDV=  1073505667
 LenX=  1073505667 LenY=  1073452785
 Fock matrices will be formed incrementally for  20 cycles.

 Cycle   1  Pass 1  IDiag  1:
 FoFJK:  IHMeth= 1 ICntrl=     0 DoSepK=T KAlg= 1 I1Cent= 0 FoldK=F
 FoFCou: FMM=F IPFlag=           0 FMFlag=      100000 FMFlg1=           0
         NFxFlg=           0 DoJE=T BraDBF=F KetDBF=F FulRan=T
         Omega=  0.000000  0.000000  1.000000  0.000000  0.000000 ICntrl=     500 IOpCl=  0
         NMat0=    1 NMatS0=    1 NMatT0=    0 NMatD0=    1 NMtDS0=    0 NMtDT0=    0
         I1Cent=           0 NGrid=           0.
 Symmetry not used in FoFCou.
 E= -151.474871629410    
 DIIS: error= 3.07D-02 at cycle   1 NSaved=   1.
 NSaved= 1 IEnMin= 1 EnMin= -151.474871629410     IErMin= 1 ErrMin= 3.07D-02
 ErrMax= 3.07D-02 EMaxC= 1.00D-01 BMatC= 3.01D-01 BMatP= 3.01D-01
 IDIUse=3 WtCom= 6.93D-01 WtEn= 3.07D-01
 Coeff-Com:  0.100D+01
 Coeff-En:   0.100D+01
 Coeff:      0.100D+01
 Gap=     0.502 Goal=   None    Shift=    0.000
 GapD=    0.502 DampG=2.000 DampE=0.500 DampFc=1.0000 IDamp=-1.
 RMSDP=2.49D-03 MaxDP=1.09D-01              OVMax= 1.08D-01

 Cycle   2  Pass 1  IDiag  1:
 RMSU=  1.72D-03    CP:  9.44D-01
 FoFJK:  IHMeth= 1 ICntrl=     0 DoSepK=T KAlg= 1 I1Cent= 0 FoldK=F
 E= -151.507102360420     Delta-E=       -0.032230731010 Rises=F Damp=F
 DIIS: error= 1.43D-02 at cycle   2 NSaved=   2.
 NSaved= 2 IEnMin= 2 EnMin= -151.507102360420     IErMin= 2 ErrMin= 1.43D-02
 ErrMax= 1.43D-02 EMaxC= 1.00D-01 BMatC= 8.74D-02 BMatP= 3.01D-01
 IDIUse=3 WtCom= 8.57D-01 WtEn= 1.43D-01
 Coeff-Com:  0.327D+00 0.673D+00
 Coeff-En:   0.349D+00 0.651D+00
 Coeff:      0.330D+00 0.670D+00
 Gap=     0.452 Goal=   None    Shift=    0.000
 RMSDP=1.04D-03 MaxDP=4.91D-02 DE=-3.22D-02 OVMax= 6.04D-02

 Cycle   3  Pass 1  IDiag  1:
 RMSU=  3.77D-04    CP:  9.68D-01  6.46D-01
 FoFJK:  IHMeth= 1 ICntrl=     0 DoSepK=T KAlg= 1 I1Cent= 0 FoldK=F
 E= -151.553235293011     Delta-E=       -0.046132932591 Rises=F Damp=F
 DIIS: error= 4.38D-03 at cycle   3 NSaved=   3.
 NSaved= 3 IEnMin= 3 EnMin= -151.553235293011     IErMin= 3 ErrMin= 4.38D-03
 ErrMax= 4.38D-03 EMaxC= 1.00D-01 BMatC= 7.41D-03 BMatP= 8.74D-02
 IDIUse=3 WtCom= 9.56D-01 WtEn= 4.38D-02
 Coeff-Com:  0.179D-01 0.236D+00 0.746D+00
 Coeff-En:   0.000D+00 0.000D+00 0.100D+01
 Coeff:      0.171D-01 0.226D+00 0.757D+00
 Gap=     0.395 Goal=   None    Shift=    0.000
 RMSDP=2.99D-04 MaxDP=1.13D-02 DE=-4.61D-02 OVMax= 1.75D-02

 Cycle   4  Pass 1  IDiag  1:
 RMSU=  6.94D-05    CP:  9.62D-01  7.50D-01  7.92D-01
 FoFJK:  IHMeth= 1 ICntrl=     0 DoSepK=T KAlg= 1 I1Cent= 0 FoldK=F
 E= -151.558044227492     Delta-E=       -0.004808934481 Rises=F Damp=F
 DIIS: error= 4.84D-04 at cycle   4 NSaved=   4.
 NSaved= 4 IEnMin= 4 EnMin= -151.558044227492     IErMin= 4 ErrMin= 4.84D-04
 ErrMax= 4.84D-04 EMaxC= 1.00D-01 BMatC= 8.87D-05 BMatP= 7.41D-03
 IDIUse=3 WtCom= 9.95D-01 WtEn= 4.84D-03
 Coeff-Com:  0.471D-03 0.317D-01 0.180D+00 0.788D+00
 Coeff-En:   0.000D+00 0.000D+00 0.000D+00 0.100D+01
 Coeff:      0.469D-03 0.316D-01 0.179D+00 0.789D+00
 Gap=     0.392 Goal=   None    Shift=    0.000
 RMSDP=4.14D-05 MaxDP=2.26D-03 DE=-4.81D-03 OVMax= 2.02D-03

 Cycle   5  Pass 1  IDiag  1:
 RMSU=  1.49D-05    CP:  9.63D-01  7.42D-01  8.42D-01  1.09D+00
 FoFJK:  IHMeth= 1 ICntrl=     0 DoSepK=T KAlg= 1 I1Cent= 0 FoldK=F
 E= -151.558106773929     Delta-E=       -0.000062546437 Rises=F Damp=F
 DIIS: error= 5.54D-05 at cycle   5 NSaved=   5.
 NSaved= 5 IEnMin= 5 EnMin= -151.558106773929     IErMin= 5 ErrMin= 5.54D-05
 ErrMax= 5.54D-05 EMaxC= 1.00D-01 BMatC= 8.53D-07 BMatP= 8.87D-05
 IDIUse=1 WtCom= 1.00D+00 WtEn= 0.00D+00
 Coeff-Com: -0.681D-03-0.116D-01-0.377D-01-0.788D-01 0.113D+01
 Coeff:     -0.681D-03-0.116D-01-0.377D-01-0.788D-01 0.113D+01
 Gap=     0.392 Goal=   None    Shift=    0.000
 RMSDP=1.28D-05 MaxDP=4.87D-04 DE=-6.25D-05 OVMax= 6.94D-04

 Cycle   6  Pass 1  IDiag  1:
 RMSU=  2.97D-06    CP:  9.63D-01  7.41D-01  8.54D-01  1.17D+00  1.28D+00
 FoFJK:  IHMeth= 1 ICntrl=     0 DoSepK=T KAlg= 1 I1Cent= 0 FoldK=F
 E= -151.558108721911     Delta-E=       -0.000001947982 Rises=F Damp=F
 DIIS: error= 1.14D-05 at cycle   6 NSaved=   6.
 NSaved= 6 IEnMin= 6 EnMin= -151.558108721911     IErMin= 6 ErrMin= 1.14D-05
 ErrMax= 1.14D-05 EMaxC= 1.00D-01 BMatC= 3.41D-08 BMatP= 8.53D-07
 IDIUse=1 WtCom= 1.00D+00 WtEn= 0.00D+00
 Coeff-Com:  0.186D-04-0.659D-03-0.517D-02-0.211D-01-0.293D-02 0.103D+01
 Coeff:      0.186D-04-0.659D-03-0.517D-02-0.211D-01-0.293D-02 0.103D+01
 Gap=     0.392 Goal=   None    Shift=    0.000
 RMSDP=2.16D-06 MaxDP=7.39D-05 DE=-1.95D-06 OVMax= 1.82D-04

 Cycle   7  Pass 1  IDiag  1:
 RMSU=  7.33D-07    CP:  9.63D-01  7.41D-01  8.55D-01  1.17D+00  1.33D+00
                    CP:  1.31D+00
 FoFJK:  IHMeth= 1 ICntrl=     0 DoSepK=T KAlg= 1 I1Cent= 0 FoldK=F
 E= -151.558108805064     Delta-E=       -0.000000083153 Rises=F Damp=F
 DIIS: error= 6.24D-06 at cycle   7 NSaved=   7.
 NSaved= 7 IEnMin= 7 EnMin= -151.558108805064     IErMin= 7 ErrMin= 6.24D-06
 ErrMax= 6.24D-06 EMaxC= 1.00D-01 BMatC= 1.60D-08 BMatP= 3.41D-08
 IDIUse=1 WtCom= 1.00D+00 WtEn= 0.00D+00
 Coeff-Com:  0.402D-04 0.224D-03-0.661D-03-0.692D-02-0.572D-01 0.481D+00
 Coeff-Com:  0.584D+00
 Coeff:      0.402D-04 0.224D-03-0.661D-03-0.692D-02-0.572D-01 0.481D+00
 Coeff:      0.584D+00
 Gap=     0.392 Goal=   None    Shift=    0.000
 RMSDP=5.02D-07 MaxDP=2.44D-05 DE=-8.32D-08 OVMax= 4.50D-05

 Cycle   8  Pass 1  IDiag  1:
 RMSU=  2.95D-07    CP:  9.63D-01  7.41D-01  8.55D-01  1.17D+00  1.33D+00
                    CP:  1.37D+00  9.91D-01
 FoFJK:  IHMeth= 1 ICntrl=     0 DoSepK=T KAlg= 1 I1Cent= 0 FoldK=F
 E= -151.558108818294     Delta-E=       -0.000000013230 Rises=F Damp=F
 DIIS: error= 2.40D-06 at cycle   8 NSaved=   8.
 NSaved= 8 IEnMin= 8 EnMin= -151.558108818294     IErMin= 8 ErrMin= 2.40D-06
 ErrMax= 2.40D-06 EMaxC= 1.00D-01 BMatC= 2.62D-09 BMatP= 1.60D-08
 IDIUse=1 WtCom= 1.00D+00 WtEn= 0.00D+00
 Coeff-Com:  0.265D-05 0.218D-03 0.131D-02 0.343D-02-0.137D-01-0.187D+00
 Coeff-Com:  0.235D+00 0.960D+00
 Coeff:      0.265D-05 0.218D-03 0.131D-02 0.343D-02-0.137D-01-0.187D+00
 Coeff:      0.235D+00 0.960D+00
 Gap=     0.392 Goal=   None    Shift=    0.000
 RMSDP=3.77D-07 MaxDP=1.25D-05 DE=-1.32D-08 OVMax= 4.45D-05

 Cycle   9  Pass 1  IDiag  1:
 RMSU=  1.01D-07    CP:  9.63D-01  7.41D-01  8.55D-01  1.17D+00  1.34D+00
                    CP:  1.41D+00  1.22D+00  1.12D+00
 FoFJK:  IHMeth= 1 ICntrl=     0 DoSepK=T KAlg= 1 I1Cent= 0 FoldK=F
 E= -151.558108821998     Delta-E=       -0.000000003704 Rises=F Damp=F
 DIIS: error= 3.84D-07 at cycle   9 NSaved=   9.
 NSaved= 9 IEnMin= 9 EnMin= -151.558108821998     IErMin= 9 ErrMin= 3.84D-07
 ErrMax= 3.84D-07 EMaxC= 1.00D-01 BMatC= 3.77D-11 BMatP= 2.62D-09
 IDIUse=1 WtCom= 1.00D+00 WtEn= 0.00D+00
 Coeff-Com: -0.119D-06 0.554D-05 0.554D-04 0.121D-03 0.327D-02-0.277D-01
 Coeff-Com: -0.122D-01 0.493D-01 0.987D+00
 Coeff:     -0.119D-06 0.554D-05 0.554D-04 0.121D-03 0.327D-02-0.277D-01
 Coeff:     -0.122D-01 0.493D-01 0.987D+00
 Gap=     0.392 Goal=   None    Shift=    0.000
 RMSDP=7.20D-08 MaxDP=1.77D-06 DE=-3.70D-09 OVMax= 7.99D-06

 Cycle  10  Pass 1  IDiag  1:
 RMSU=  1.58D-08    CP:  9.63D-01  7.41D-01  8.55D-01  1.17D+00  1.34D+00
                    CP:  1.40D+00  1.25D+00  1.21D+00  1.33D+00
 FoFJK:  IHMeth= 1 ICntrl=     0 DoSepK=T KAlg= 1 I1Cent= 0 FoldK=F
 E= -151.558108822099     Delta-E=       -0.000000000101 Rises=F Damp=F
 DIIS: error= 1.16D-07 at cycle  10 NSaved=  10.
 NSaved=10 IEnMin=10 EnMin= -151.558108822099     IErMin=10 ErrMin= 1.16D-07
 ErrMax= 1.16D-07 EMaxC= 1.00D-01 BMatC= 4.85D-12 BMatP= 3.77D-11
 IDIUse=1 WtCom= 1.00D+00 WtEn= 0.00D+00
 Coeff-Com:  0.245D-06-0.148D-04-0.123D-03-0.389D-03 0.143D-02 0.162D-01
 Coeff-Com: -0.248D-01-0.942D-01 0.138D-01 0.109D+01
 Coeff:      0.245D-06-0.148D-04-0.123D-03-0.389D-03 0.143D-02 0.162D-01
 Coeff:     -0.248D-01-0.942D-01 0.138D-01 0.109D+01
 Gap=     0.392 Goal=   None    Shift=    0.000
 RMSDP=2.82D-08 MaxDP=7.85D-07 DE=-1.01D-10 OVMax= 3.38D-06

 Cycle  11  Pass 1  IDiag  1:
 RMSU=  4.85D-09    CP:  9.63D-01  7.41D-01  8.55D-01  1.17D+00  1.34D+00
                    CP:  1.40D+00  1.26D+00  1.23D+00  1.46D+00  1.37D+00
 FoFJK:  IHMeth= 1 ICntrl=     0 DoSepK=T KAlg= 1 I1Cent= 0 FoldK=F
 E= -151.558108822112     Delta-E=       -0.000000000013 Rises=F Damp=F
 DIIS: error= 2.85D-08 at cycle  11 NSaved=  11.
 NSaved=11 IEnMin=11 EnMin= -151.558108822112     IErMin=11 ErrMin= 2.85D-08
 ErrMax= 2.85D-08 EMaxC= 1.00D-01 BMatC= 1.30D-13 BMatP= 4.85D-12
 IDIUse=1 WtCom= 1.00D+00 WtEn= 0.00D+00
 Coeff-Com: -0.108D-06-0.865D-06 0.181D-05 0.484D-05-0.129D-03 0.170D-03
 Coeff-Com:  0.249D-02 0.532D-02-0.378D-01-0.115D+00 0.115D+01
 Coeff:     -0.108D-06-0.865D-06 0.181D-05 0.484D-05-0.129D-03 0.170D-03
 Coeff:      0.249D-02 0.532D-02-0.378D-01-0.115D+00 0.115D+01
 Gap=     0.392 Goal=   None    Shift=    0.000
 RMSDP=5.23D-09 MaxDP=1.98D-07 DE=-1.34D-11 OVMax= 5.85D-07

 SCF Done:  E(RwB97XD) =  -151.558108822     A.U. after   11 cycles
             Convg  =    0.5231D-08             -V/T =  2.0058
 KE= 1.506907520760D+02 PE=-4.317764498215D+02 EE= 9.287789077101D+01
 Leave Link  502 at Sat May  9 17:25:35 2020, MaxMem= 1073741824 cpu:     291.7
 (Enter /home/matheus/.gaussian/g09/l601.exe)
 Copying SCF densities to generalized density rwf, IOpCl= 0 IROHF=0.

 **********************************************************************

            Population analysis using the SCF density.

 **********************************************************************

 Orbital symmetries:
       Occupied  (A) (A) (A) (A) (A) (A) (A) (A) (A)
       Virtual   (A) (A) (A) (A) (A) (A) (A) (A) (A) (A) (A) (A)
                 (A) (A) (A) (A) (A) (A) (A) (A) (A) (A) (A) (A)
                 (A) (A) (A) (A) (A) (A) (A) (A) (A) (A) (A) (A)
                 (A) (A) (A) (A) (A) (A) (A) (A) (A) (A) (A) (A)
                 (A) (A) (A) (A) (A) (A) (A) (A) (A) (A) (A) (A)
                 (A) (A) (A) (A) (A) (A) (A) (A) (A) (A) (A) (A)
                 (A) (A) (A) (A) (A) (A) (A) (A) (A) (A) (A) (A)
                 (A) (A) (A) (A) (A) (A) (A) (A) (A) (A) (A) (A)
                 (A) (A) (A) (A) (A) (A) (A) (A) (A) (A) (A) (A)
                 (A) (A) (A) (A) (A) (A) (A) (A) (A) (A) (A) (A)
                 (A) (A) (A) (A) (A) (A) (A) (A) (A) (A) (A) (A)
                 (A) (A) (A) (A) (A) (A) (A) (A) (A) (A) (A) (A)
                 (A) (A) (A) (A) (A) (A) (A) (A) (A) (A) (A) (A)
                 (A) (A) (A) (A) (A) (A) (A) (A) (A) (A) (A) (A)
                 (A) (A) (A) (A) (A) (A) (A) (A) (A) (A) (A) (A)
                 (A) (A) (A) (A) (A) (A) (A) (A)
 The electronic state is 1-A.
 Alpha  occ. eigenvalues --  -19.32142 -19.32137  -1.22653  -1.01197  -0.66800
 Alpha  occ. eigenvalues --   -0.53892  -0.52326  -0.43847  -0.36810
 Alpha virt. eigenvalues --    0.02370   0.03829   0.07251   0.08269   0.08925
 Alpha virt. eigenvalues --    0.09847   0.10701   0.14997   0.17531   0.17780
 Alpha virt. eigenvalues --    0.18370   0.19195   0.20697   0.22317   0.25258
 Alpha virt. eigenvalues --    0.27159   0.29459   0.29950   0.33442   0.34395
 Alpha virt. eigenvalues --    0.35335   0.36740   0.38096   0.39227   0.40182
 Alpha virt. eigenvalues --    0.43255   0.45316   0.45944   0.48205   0.51261
 Alpha virt. eigenvalues --    0.53007   0.57254   0.59031   0.61078   0.65895
 Alpha virt. eigenvalues --    0.68763   0.72150   0.75471   0.76389   0.78166
 Alpha virt. eigenvalues --    0.80152   0.81360   0.85586   0.88503   0.89336
 Alpha virt. eigenvalues --    0.91531   0.92605   0.95469   0.96187   0.98289
 Alpha virt. eigenvalues --    1.01869   1.03555   1.04560   1.07010   1.08494
 Alpha virt. eigenvalues --    1.13175   1.15932   1.19107   1.19655   1.22642
 Alpha virt. eigenvalues --    1.27783   1.29772   1.30489   1.31250   1.32089
 Alpha virt. eigenvalues --    1.34411   1.35007   1.37441   1.40621   1.42404
 Alpha virt. eigenvalues --    1.46761   1.48436   1.51411   1.53155   1.57998
 Alpha virt. eigenvalues --    1.59385   1.61770   1.66339   1.73833   1.75847
 Alpha virt. eigenvalues --    1.80697   1.84616   1.89571   1.96326   2.01307
 Alpha virt. eigenvalues --    2.05748   2.08381   2.12565   2.16515   2.20558
 Alpha virt. eigenvalues --    2.25960   2.27812   2.30577   2.33828   2.34934
 Alpha virt. eigenvalues --    2.47887   2.52233   2.56241   2.58518   2.60596
 Alpha virt. eigenvalues --    2.61722   2.73982   2.83066   2.84349   2.90888
 Alpha virt. eigenvalues --    2.95184   3.05925   3.07686   3.25671   3.30608
 Alpha virt. eigenvalues --    3.41277   3.56860   3.61581   3.64591   3.78036
 Alpha virt. eigenvalues --    3.78867   3.81327   3.82104   3.82490   3.85756
 Alpha virt. eigenvalues --    3.87231   3.89195   3.91658   3.94060   3.97040
 Alpha virt. eigenvalues --    3.98020   4.01491   4.05259   4.08254   4.12529
 Alpha virt. eigenvalues --    4.13628   4.19642   4.22051   4.28067   4.33324
 Alpha virt. eigenvalues --    4.43835   4.48410   4.60453   4.66916   4.94124
 Alpha virt. eigenvalues --    4.97797   4.99230   5.05072   5.12734   5.14725
 Alpha virt. eigenvalues --    5.42182   5.82455   5.98872   6.09921   6.11176
 Alpha virt. eigenvalues --    6.28507   6.36648   6.37921   6.50764   6.62928
 Alpha virt. eigenvalues --    6.72034   6.75965   6.80834   6.83078   6.87168
 Alpha virt. eigenvalues --    6.87955   6.89750   6.89978   7.02309   7.08557
 Alpha virt. eigenvalues --    7.14155   7.21752   7.43283   7.47850   7.84948
 Alpha virt. eigenvalues --    8.02503   8.12047  11.01213  14.03030  14.63377
 Alpha virt. eigenvalues --   14.83071  14.89883  15.11337  29.02692  29.03234
 Alpha virt. eigenvalues --   29.07616  29.16004  29.22730  49.18284 148.31280
 Alpha virt. eigenvalues --  148.41185 148.71697 752.75719
          Condensed to atoms (all electrons):
              1          2          3          4          5
     1  O    8.203537  -0.197774   0.187642   0.018468   0.003017
     2  O   -0.197774   8.230054   0.023627   0.177444  -0.001952
     3  H    0.187642   0.023627   0.574568  -0.000001  -0.002429
     4  H    0.018468   0.177444  -0.000001   0.584074  -0.004828
     5  Kr   0.003017  -0.001952  -0.002429  -0.004828   0.001337
 Mulliken atomic charges:
              1
     1  O   -0.214890
     2  O   -0.231399
     3  H    0.216592
     4  H    0.224843
     5  Kr   0.004854
 Sum of Mulliken atomic charges =   0.00000
 Mulliken charges with hydrogens summed into heavy atoms:
              1
     1  O    0.001702
     2  O   -0.006556
     5  Kr   0.004854
 Sum of Mulliken charges with hydrogens summed into heavy atoms =   0.00000
          Condensed to fragments (all electrons):
     1      -0.004854
     2       0.004854
 Electronic spatial extent (au):  <R**2>=            317.6881
 Charge=              0.0000 electrons
 Dipole moment (field-independent basis, Debye):
    X=             -2.5224    Y=             -0.0948    Z=              1.2024  Tot=              2.7960
 Quadrupole moment (field-independent basis, Debye-Ang):
   XX=            -20.2694   YY=            -10.3156   ZZ=            -12.0616
   XY=             -0.8634   XZ=              1.4018   YZ=             -1.4015
 Traceless Quadrupole moment (field-independent basis, Debye-Ang):
   XX=             -6.0538   YY=              3.8999   ZZ=              2.1539
   XY=             -0.8634   XZ=              1.4018   YZ=             -1.4015
 Octapole moment (field-independent basis, Debye-Ang**2):
  XXX=            -91.8540  YYY=             -0.6038  ZZZ=              0.5051  XYY=            -23.5502
  XXY=             -1.8930  XXZ=              1.3085  XZZ=            -24.0660  YZZ=             -1.1176
  YYZ=              1.6674  XYZ=             -1.9772
 Hexadecapole moment (field-independent basis, Debye-Ang**3):
 XXXX=           -340.2790 YYYY=            -44.6458 ZZZZ=            -11.6412 XXXY=             -2.5396
 XXXZ=              0.6009 YYYX=             -1.4960 YYYZ=             -2.0049 ZZZX=              0.9838
 ZZZY=             -1.2150 XXYY=            -61.5328 XXZZ=            -51.8956 YYZZ=            -10.4009
 XXYZ=             -2.8760 YYXZ=              2.3338 ZZXY=             -1.6087
 N-N= 3.664969815241D+01 E-N=-4.317764495826D+02  KE= 1.506907520760D+02
 No NMR shielding tensors so no spin-rotation constants.
 Leave Link  601 at Sat May  9 17:25:35 2020, MaxMem= 1073741824 cpu:       0.8
 (Enter /home/matheus/.gaussian/g09/l122.exe)
 Counterpoise: doing DCBS calculation for fragment   2 NewBq=T
 Leave Link  122 at Sat May  9 17:25:35 2020, MaxMem= 1073741824 cpu:       0.0
 (Enter /home/matheus/.gaussian/g09/l301.exe)
 Basis read from rwf:  (5D, 7F)
 No pseudopotential information found on rwf file.
 There are   197 symmetry adapted basis functions of A   symmetry.
 Integral buffers will be    131072 words long.
 Raffenetti 2 integral format.
 Two-electron integral symmetry is turned on.
   197 basis functions,   415 primitive gaussians,   229 cartesian basis functions
    18 alpha electrons       18 beta electrons
       nuclear repulsion energy         0.0000000000 Hartrees.
 IExCor= 4639 DFT=T Ex+Corr=wB97XD ExCW=0 ScaHFX=  1.000000
 ScaDFX=  1.000000  1.000000  1.000000  1.000000 ScalE2=  1.000000  1.000000
 IRadAn=      5 IRanWt=     -1 IRanGd=            0 ICorTp=0
  HFx wShort=  0.000000 wLong=  0.200000 cFull=  0.222036 cShort=  0.000000 cLong=  0.777964
  DFx wShort=  0.000000 wLong=  0.200000 cFull=  0.000000 cShort=  0.000000 cLong=  1.000000
 NAtoms=    5 NActive=    5 NUniq=    5 SFac= 1.00D+00 NAtFMM=   60 NAOKFM=F Big=F
 R6Disp: Dispersion energy =         0.0000000000 Hartrees.
 Nuclear repulsion after empirical dispersion term =        0.0000000000 Hartrees.
 No density basis found on file   718.
 Leave Link  301 at Sat May  9 17:25:35 2020, MaxMem= 1073741824 cpu:       0.2
 (Enter /home/matheus/.gaussian/g09/l302.exe)
 NPDir=0 NMtPBC=     1 NCelOv=     1 NCel=       1 NClECP=     1 NCelD=      1
         NCelK=      1 NCelE2=     1 NClLst=     1 CellRange=     0.0.
 One-electron integrals computed using PRISM.
 NBasis=   197 RedAO= T  NBF=   197
 NBsUse=   197 1.00D-06 NBFU=   197
 Precomputing XC quadrature grid using
 IXCGrd= 2 IRadAn=           5 IRanWt=          -1 IRanGd=           0 AccXCQ= 0.00D+00.
 NRdTot=     427 NPtTot=      123512 NUsed=      126579 NTot=      126611
 NSgBfM=   229   229   229   229   229 NAtAll=     5     5.
 Leave Link  302 at Sat May  9 17:25:35 2020, MaxMem= 1073741824 cpu:       1.0
 (Enter /home/matheus/.gaussian/g09/l303.exe)
 DipDrv:  MaxL=1.
 Leave Link  303 at Sat May  9 17:25:35 2020, MaxMem= 1073741824 cpu:       0.2
 (Enter /home/matheus/.gaussian/g09/l401.exe)
 Harris functional with IExCor= 4639 diagonalized for initial guess.
 ExpMin= 2.53D-02 ExpMax= 1.17D+07 ExpMxC= 1.33D+04 IAcc=3 IRadAn=         5 AccDes= 0.00D+00
 HarFok:  IExCor= 4639 AccDes= 0.00D+00 IRadAn=         5 IDoV= 1
 ScaDFX=  1.000000  1.000000  1.000000  1.000000
 FoFCou: FMM=F IPFlag=           0 FMFlag=      100000 FMFlg1=           0
         NFxFlg=           0 DoJE=T BraDBF=F KetDBF=T FulRan=T
         Omega=  0.000000  0.000000  1.000000  0.000000  0.000000 ICntrl=     500 IOpCl=  0
         NMat0=    1 NMatS0=    1 NMatT0=    0 NMatD0=    1 NMtDS0=    0 NMtDT0=    0
         I1Cent=           4 NGrid=           0.
 Petite list used in FoFCou.
 Harris En= -2730.20456600074    
 Initial guess orbital symmetries:
       Occupied  (A) (A) (A) (A) (A) (A) (A) (A) (A) (A) (A) (A)
                 (A) (A) (A) (A) (A) (A)
       Virtual   (A) (A) (A) (A) (A) (A) (A) (A) (A) (A) (A) (A)
                 (A) (A) (A) (A) (A) (A) (A) (A) (A) (A) (A) (A)
                 (A) (A) (A) (A) (A) (A) (A) (A) (A) (A) (A) (A)
                 (A) (A) (A) (A) (A) (A) (A) (A) (A) (A) (A) (A)
                 (A) (A) (A) (A) (A) (A) (A) (A) (A) (A) (A) (A)
                 (A) (A) (A) (A) (A) (A) (A) (A) (A) (A) (A) (A)
                 (A) (A) (A) (A) (A) (A) (A) (A) (A) (A) (A) (A)
                 (A) (A) (A) (A) (A) (A) (A) (A) (A) (A) (A) (A)
                 (A) (A) (A) (A) (A) (A) (A) (A) (A) (A) (A) (A)
                 (A) (A) (A) (A) (A) (A) (A) (A) (A) (A) (A) (A)
                 (A) (A) (A) (A) (A) (A) (A) (A) (A) (A) (A) (A)
                 (A) (A) (A) (A) (A) (A) (A) (A) (A) (A) (A) (A)
                 (A) (A) (A) (A) (A) (A) (A) (A) (A) (A) (A) (A)
                 (A) (A) (A) (A) (A) (A) (A) (A) (A) (A) (A) (A)
                 (A) (A) (A) (A) (A) (A) (A) (A) (A) (A) (A)
 The electronic state of the initial guess is 1-A.
 Leave Link  401 at Sat May  9 17:25:35 2020, MaxMem= 1073741824 cpu:       4.1
 (Enter /home/matheus/.gaussian/g09/l502.exe)
 Closed shell SCF:
 Requested convergence on RMS density matrix=1.00D-08 within 128 cycles.
 Requested convergence on MAX density matrix=1.00D-06.
 Requested convergence on             energy=1.00D-06.
 No special actions if energy rises.
 Using DIIS extrapolation, IDIIS=  1040.
 Integral symmetry usage will be decided dynamically.
       126521 words used for storage of precomputed grid.
 IEnd=      305468 IEndB=      305468 NGot=  1073741824 MDV=  1073505667
 LenX=  1073505667 LenY=  1073452785
 Fock matrices will be formed incrementally for  20 cycles.

 Cycle   1  Pass 1  IDiag  1:
 FoFJK:  IHMeth= 1 ICntrl=     0 DoSepK=T KAlg= 1 I1Cent= 0 FoldK=F
 FoFCou: FMM=F IPFlag=           0 FMFlag=      100000 FMFlg1=           0
         NFxFlg=           0 DoJE=T BraDBF=F KetDBF=F FulRan=T
         Omega=  0.000000  0.000000  1.000000  0.000000  0.000000 ICntrl=     500 IOpCl=  0
         NMat0=    1 NMatS0=    1 NMatT0=    0 NMatD0=    1 NMtDS0=    0 NMtDT0=    0
         I1Cent=           0 NGrid=           0.
 Symmetry not used in FoFCou.
 E= -2753.46431178065    
 DIIS: error= 7.65D-02 at cycle   1 NSaved=   1.
 NSaved= 1 IEnMin= 1 EnMin= -2753.46431178065     IErMin= 1 ErrMin= 7.65D-02
 ErrMax= 7.65D-02 EMaxC= 1.00D-01 BMatC= 1.88D+00 BMatP= 1.88D+00
 IDIUse=3 WtCom= 2.35D-01 WtEn= 7.65D-01
 Coeff-Com:  0.100D+01
 Coeff-En:   0.100D+01
 Coeff:      0.100D+01
 Gap=     0.634 Goal=   None    Shift=    0.000
 GapD=    0.634 DampG=2.000 DampE=0.500 DampFc=1.0000 IDamp=-1.
 RMSDP=5.63D-03 MaxDP=3.73D-01              OVMax= 1.78D-01

 Cycle   2  Pass 1  IDiag  1:
 RMSU=  3.92D-03    CP:  1.04D+00
 FoFJK:  IHMeth= 1 ICntrl=     0 DoSepK=T KAlg= 1 I1Cent= 0 FoldK=F
 E= -2753.72392524744     Delta-E=       -0.259613466792 Rises=F Damp=F
 DIIS: error= 3.14D-02 at cycle   2 NSaved=   2.
 NSaved= 2 IEnMin= 2 EnMin= -2753.72392524744     IErMin= 2 ErrMin= 3.14D-02
 ErrMax= 3.14D-02 EMaxC= 1.00D-01 BMatC= 4.77D-01 BMatP= 1.88D+00
 IDIUse=3 WtCom= 6.86D-01 WtEn= 3.14D-01
 Coeff-Com:  0.330D+00 0.670D+00
 Coeff-En:   0.183D+00 0.817D+00
 Coeff:      0.284D+00 0.716D+00
 Gap=     0.474 Goal=   None    Shift=    0.000
 RMSDP=2.54D-03 MaxDP=1.61D-01 DE=-2.60D-01 OVMax= 7.89D-02

 Cycle   3  Pass 1  IDiag  1:
 RMSU=  3.71D-04    CP:  1.03D+00  5.59D-01
 FoFJK:  IHMeth= 1 ICntrl=     0 DoSepK=T KAlg= 1 I1Cent= 0 FoldK=F
 E= -2753.87119776515     Delta-E=       -0.147272517713 Rises=F Damp=F
 DIIS: error= 4.08D-03 at cycle   3 NSaved=   3.
 NSaved= 3 IEnMin= 3 EnMin= -2753.87119776515     IErMin= 3 ErrMin= 4.08D-03
 ErrMax= 4.08D-03 EMaxC= 1.00D-01 BMatC= 9.88D-03 BMatP= 4.77D-01
 IDIUse=3 WtCom= 9.59D-01 WtEn= 4.08D-02
 Coeff-Com: -0.514D-02 0.118D+00 0.887D+00
 Coeff-En:   0.000D+00 0.000D+00 0.100D+01
 Coeff:     -0.493D-02 0.113D+00 0.892D+00
 Gap=     0.502 Goal=   None    Shift=    0.000
 RMSDP=2.93D-04 MaxDP=1.68D-02 DE=-1.47D-01 OVMax= 1.24D-02

 Cycle   4  Pass 1  IDiag  1:
 RMSU=  4.27D-05    CP:  1.03D+00  6.09D-01  9.40D-01
 FoFJK:  IHMeth= 1 ICntrl=     0 DoSepK=T KAlg= 1 I1Cent= 0 FoldK=F
 E= -2753.87436122999     Delta-E=       -0.003163464834 Rises=F Damp=F
 DIIS: error= 1.82D-04 at cycle   4 NSaved=   4.
 NSaved= 4 IEnMin= 4 EnMin= -2753.87436122999     IErMin= 4 ErrMin= 1.82D-04
 ErrMax= 1.82D-04 EMaxC= 1.00D-01 BMatC= 1.67D-05 BMatP= 9.88D-03
 IDIUse=3 WtCom= 9.98D-01 WtEn= 1.82D-03
 Coeff-Com: -0.845D-03-0.147D-01-0.499D-01 0.107D+01
 Coeff-En:   0.000D+00 0.000D+00 0.000D+00 0.100D+01
 Coeff:     -0.843D-03-0.147D-01-0.498D-01 0.107D+01
 Gap=     0.500 Goal=   None    Shift=    0.000
 RMSDP=2.23D-05 MaxDP=8.98D-04 DE=-3.16D-03 OVMax= 7.93D-04

 Cycle   5  Pass 1  IDiag  1:
 RMSU=  1.09D-05    CP:  1.03D+00  6.07D-01  9.59D-01  1.11D+00
 FoFJK:  IHMeth= 1 ICntrl=     0 DoSepK=T KAlg= 1 I1Cent= 0 FoldK=F
 E= -2753.87436986572     Delta-E=       -0.000008635728 Rises=F Damp=F
 DIIS: error= 1.80D-05 at cycle   5 NSaved=   5.
 NSaved= 5 IEnMin= 5 EnMin= -2753.87436986572     IErMin= 5 ErrMin= 1.80D-05
 ErrMax= 1.80D-05 EMaxC= 1.00D-01 BMatC= 3.83D-08 BMatP= 1.67D-05
 IDIUse=1 WtCom= 1.00D+00 WtEn= 0.00D+00
 Coeff-Com:  0.115D-03-0.954D-03-0.961D-02-0.205D-01 0.103D+01
 Coeff:      0.115D-03-0.954D-03-0.961D-02-0.205D-01 0.103D+01
 Gap=     0.500 Goal=   None    Shift=    0.000
 RMSDP=2.44D-06 MaxDP=1.10D-04 DE=-8.64D-06 OVMax= 1.84D-04

 Cycle   6  Pass 1  IDiag  1:
 RMSU=  8.78D-07    CP:  1.03D+00  6.07D-01  9.60D-01  1.13D+00  1.08D+00
 FoFJK:  IHMeth= 1 ICntrl=     0 DoSepK=T KAlg= 1 I1Cent= 0 FoldK=F
 E= -2753.87436998389     Delta-E=       -0.000000118170 Rises=F Damp=F
 DIIS: error= 3.98D-06 at cycle   6 NSaved=   6.
 NSaved= 6 IEnMin= 6 EnMin= -2753.87436998389     IErMin= 6 ErrMin= 3.98D-06
 ErrMax= 3.98D-06 EMaxC= 1.00D-01 BMatC= 3.99D-09 BMatP= 3.83D-08
 IDIUse=1 WtCom= 1.00D+00 WtEn= 0.00D+00
 Coeff-Com:  0.681D-05 0.203D-03 0.357D-03-0.358D-01 0.452D-01 0.990D+00
 Coeff:      0.681D-05 0.203D-03 0.357D-03-0.358D-01 0.452D-01 0.990D+00
 Gap=     0.500 Goal=   None    Shift=    0.000
 RMSDP=6.15D-07 MaxDP=2.66D-05 DE=-1.18D-07 OVMax= 2.81D-05

 Cycle   7  Pass 1  IDiag  1:
 RMSU=  9.72D-08    CP:  1.03D+00  6.07D-01  9.60D-01  1.13D+00  1.12D+00
                    CP:  1.20D+00
 FoFJK:  IHMeth= 1 ICntrl=     0 DoSepK=T KAlg= 1 I1Cent= 0 FoldK=F
 E= -2753.87436998819     Delta-E=       -0.000000004300 Rises=F Damp=F
 DIIS: error= 3.83D-07 at cycle   7 NSaved=   7.
 NSaved= 7 IEnMin= 7 EnMin= -2753.87436998819     IErMin= 7 ErrMin= 3.83D-07
 ErrMax= 3.83D-07 EMaxC= 1.00D-01 BMatC= 3.75D-11 BMatP= 3.99D-09
 IDIUse=1 WtCom= 1.00D+00 WtEn= 0.00D+00
 Coeff-Com:  0.503D-06 0.665D-04 0.218D-03-0.875D-02 0.154D-02 0.233D+00
 Coeff-Com:  0.774D+00
 Coeff:      0.503D-06 0.665D-04 0.218D-03-0.875D-02 0.154D-02 0.233D+00
 Coeff:      0.774D+00
 Gap=     0.500 Goal=   None    Shift=    0.000
 RMSDP=4.26D-08 MaxDP=1.25D-06 DE=-4.30D-09 OVMax= 2.61D-06

 Cycle   8  Pass 1  IDiag  1:
 RMSU=  1.81D-08    CP:  1.03D+00  6.07D-01  9.60D-01  1.13D+00  1.12D+00
                    CP:  1.22D+00  1.04D+00
 FoFJK:  IHMeth= 1 ICntrl=     0 DoSepK=T KAlg= 1 I1Cent= 0 FoldK=F
 E= -2753.87436998823     Delta-E=       -0.000000000040 Rises=F Damp=F
 DIIS: error= 6.52D-08 at cycle   8 NSaved=   8.
 NSaved= 8 IEnMin= 8 EnMin= -2753.87436998823     IErMin= 8 ErrMin= 6.52D-08
 ErrMax= 6.52D-08 EMaxC= 1.00D-01 BMatC= 1.51D-12 BMatP= 3.75D-11
 IDIUse=1 WtCom= 1.00D+00 WtEn= 0.00D+00
 Coeff-Com: -0.140D-06-0.370D-05 0.105D-04 0.156D-02-0.220D-02-0.447D-01
 Coeff-Com:  0.390D-01 0.101D+01
 Coeff:     -0.140D-06-0.370D-05 0.105D-04 0.156D-02-0.220D-02-0.447D-01
 Coeff:      0.390D-01 0.101D+01
 Gap=     0.500 Goal=   None    Shift=    0.000
 RMSDP=1.92D-08 MaxDP=7.23D-07 DE=-4.05D-11 OVMax= 5.43D-07

 Cycle   9  Pass 1  IDiag  1:
 RMSU=  3.29D-09    CP:  1.03D+00  6.07D-01  9.60D-01  1.13D+00  1.12D+00
                    CP:  1.24D+00  1.11D+00  1.13D+00
 FoFJK:  IHMeth= 1 ICntrl=     0 DoSepK=T KAlg= 1 I1Cent= 0 FoldK=F
 E= -2753.87436998822     Delta-E=        0.000000000008 Rises=F Damp=F
 DIIS: error= 9.93D-09 at cycle   9 NSaved=   9.
 NSaved= 9 IEnMin= 8 EnMin= -2753.87436998823     IErMin= 9 ErrMin= 9.93D-09
 ErrMax= 9.93D-09 EMaxC= 1.00D-01 BMatC= 6.92D-15 BMatP= 1.51D-12
 IDIUse=1 WtCom= 1.00D+00 WtEn= 0.00D+00
 Coeff-Com:  0.110D-07 0.145D-06-0.128D-05-0.137D-03 0.345D-04 0.482D-02
 Coeff-Com: -0.104D-01-0.147D+00 0.115D+01
 Coeff:      0.110D-07 0.145D-06-0.128D-05-0.137D-03 0.345D-04 0.482D-02
 Coeff:     -0.104D-01-0.147D+00 0.115D+01
 Gap=     0.500 Goal=   None    Shift=    0.000
 RMSDP=1.75D-09 MaxDP=7.65D-08 DE= 8.19D-12 OVMax= 9.82D-08

 SCF Done:  E(RwB97XD) =  -2753.87436999     A.U. after    9 cycles
             Convg  =    0.1749D-08             -V/T =  2.0013
 KE= 2.750255174945D+03 PE=-6.580193367021D+03 EE= 1.076063822088D+03
 Leave Link  502 at Sat May  9 17:26:06 2020, MaxMem= 1073741824 cpu:     247.1
 (Enter /home/matheus/.gaussian/g09/l601.exe)
 Copying SCF densities to generalized density rwf, IOpCl= 0 IROHF=0.

 **********************************************************************

            Population analysis using the SCF density.

 **********************************************************************

 Orbital symmetries:
       Occupied  (A) (A) (A) (A) (A) (A) (A) (A) (A) (A) (A) (A)
                 (A) (A) (A) (A) (A) (A)
       Virtual   (A) (A) (A) (A) (A) (A) (A) (A) (A) (A) (A) (A)
                 (A) (A) (A) (A) (A) (A) (A) (A) (A) (A) (A) (A)
                 (A) (A) (A) (A) (A) (A) (A) (A) (A) (A) (A) (A)
                 (A) (A) (A) (A) (A) (A) (A) (A) (A) (A) (A) (A)
                 (A) (A) (A) (A) (A) (A) (A) (A) (A) (A) (A) (A)
                 (A) (A) (A) (A) (A) (A) (A) (A) (A) (A) (A) (A)
                 (A) (A) (A) (A) (A) (A) (A) (A) (A) (A) (A) (A)
                 (A) (A) (A) (A) (A) (A) (A) (A) (A) (A) (A) (A)
                 (A) (A) (A) (A) (A) (A) (A) (A) (A) (A) (A) (A)
                 (A) (A) (A) (A) (A) (A) (A) (A) (A) (A) (A) (A)
                 (A) (A) (A) (A) (A) (A) (A) (A) (A) (A) (A) (A)
                 (A) (A) (A) (A) (A) (A) (A) (A) (A) (A) (A) (A)
                 (A) (A) (A) (A) (A) (A) (A) (A) (A) (A) (A) (A)
                 (A) (A) (A) (A) (A) (A) (A) (A) (A) (A) (A) (A)
                 (A) (A) (A) (A) (A) (A) (A) (A) (A) (A) (A)
 The electronic state is 1-A.
 Alpha  occ. eigenvalues -- -513.05931 -67.32599 -60.87475 -60.87474 -60.87474
 Alpha  occ. eigenvalues --   -9.77891  -7.47187  -7.47185  -7.47185  -3.33928
 Alpha  occ. eigenvalues --   -3.33928  -3.33928  -3.33927  -3.33927  -0.98488
 Alpha  occ. eigenvalues --   -0.46646  -0.46643  -0.46641
 Alpha virt. eigenvalues --    0.03340   0.05273   0.08785   0.09760   0.12490
 Alpha virt. eigenvalues --    0.12995   0.13754   0.13861   0.16301   0.17412
 Alpha virt. eigenvalues --    0.18034   0.19342   0.20925   0.25331   0.26187
 Alpha virt. eigenvalues --    0.26515   0.29054   0.30852   0.32641   0.35187
 Alpha virt. eigenvalues --    0.36250   0.37685   0.38554   0.39679   0.41496
 Alpha virt. eigenvalues --    0.42035   0.44534   0.52064   0.55690   0.57007
 Alpha virt. eigenvalues --    0.60029   0.65750   0.67569   0.69316   0.70882
 Alpha virt. eigenvalues --    0.72356   0.73529   0.75051   0.76184   0.77158
 Alpha virt. eigenvalues --    0.78615   0.80832   0.84264   0.84845   0.87547
 Alpha virt. eigenvalues --    0.88244   0.89818   0.90680   0.92169   0.95137
 Alpha virt. eigenvalues --    0.96846   0.97771   0.99356   0.99637   1.01800
 Alpha virt. eigenvalues --    1.04446   1.06486   1.06895   1.12791   1.15213
 Alpha virt. eigenvalues --    1.17311   1.22561   1.23409   1.30512   1.32280
 Alpha virt. eigenvalues --    1.33123   1.40225   1.43129   1.47564   1.52471
 Alpha virt. eigenvalues --    1.55475   1.57109   1.58094   1.70769   1.80278
 Alpha virt. eigenvalues --    1.82588   1.83744   1.85862   1.92232   2.14633
 Alpha virt. eigenvalues --    2.19679   2.23537   2.27579   2.27986   2.29126
 Alpha virt. eigenvalues --    2.30761   2.33293   2.35551   2.38210   2.40972
 Alpha virt. eigenvalues --    2.42437   2.44484   2.46179   2.48244   2.49421
 Alpha virt. eigenvalues --    2.50413   2.53175   2.56315   2.58198   2.59309
 Alpha virt. eigenvalues --    2.62308   2.63446   2.67309   2.69659   2.71187
 Alpha virt. eigenvalues --    2.73875   2.78371   2.84792   2.87576   2.89597
 Alpha virt. eigenvalues --    2.95004   3.00067   3.05800   3.09206   3.18562
 Alpha virt. eigenvalues --    3.21340   3.27257   3.32807   3.40910   3.45586
 Alpha virt. eigenvalues --    3.61508   3.66949   3.82991   3.87567   4.03246
 Alpha virt. eigenvalues --    4.42101   4.48561   4.52566   4.58598   4.68415
 Alpha virt. eigenvalues --    4.71637   4.86081   4.86442   4.98363   5.08591
 Alpha virt. eigenvalues --    5.14327   5.24787   5.55653   5.69008   5.82093
 Alpha virt. eigenvalues --    5.91044   5.99794   6.14137   6.80174   6.83898
 Alpha virt. eigenvalues --    7.37870   7.41434   7.60210   7.70887   7.71922
 Alpha virt. eigenvalues --    7.83094   7.99601   8.16609   8.17562   8.26531
 Alpha virt. eigenvalues --    8.32375   8.48177   8.62976   8.92684   9.58014
 Alpha virt. eigenvalues --    9.74273   9.83632   9.88305   9.95417   9.97601
 Alpha virt. eigenvalues --   10.18276  10.23582  10.55836  10.93819  11.57903
 Alpha virt. eigenvalues --   11.60034  11.77777  11.99977  12.05230  13.21205
 Alpha virt. eigenvalues --   13.69350  14.52911  62.68289  64.68507
          Condensed to atoms (all electrons):
              1          2          3          4          5
     1  O    0.001041  -0.000992  -0.000464   0.000816  -0.008477
     2  O   -0.000992   0.005146   0.000316  -0.003938  -0.003569
     3  H   -0.000464   0.000316   0.000673  -0.000213  -0.006785
     4  H    0.000816  -0.003938  -0.000213   0.004266  -0.019948
     5  Kr  -0.008477  -0.003569  -0.006785  -0.019948  36.075383
 Mulliken atomic charges:
              1
     1  O    0.008076
     2  O    0.003037
     3  H    0.006473
     4  H    0.019017
     5  Kr  -0.036604
 Sum of Mulliken atomic charges =   0.00000
 Mulliken charges with hydrogens summed into heavy atoms:
              1
     1  O    0.014549
     2  O    0.022054
     5  Kr  -0.036604
 Sum of Mulliken charges with hydrogens summed into heavy atoms =   0.00000
          Condensed to fragments (all electrons):
     1       0.036604
     2      -0.036604
 Electronic spatial extent (au):  <R**2>=            160.8351
 Charge=              0.0000 electrons
 Dipole moment (field-independent basis, Debye):
    X=              0.0005    Y=              0.0002    Z=              0.0000  Tot=              0.0005
 Quadrupole moment (field-independent basis, Debye-Ang):
   XX=            -17.6244   YY=            -17.6408   ZZ=            -17.6495
   XY=              0.0019   XZ=              0.0030   YZ=             -0.0015
 Traceless Quadrupole moment (field-independent basis, Debye-Ang):
   XX=              0.0138   YY=             -0.0026   ZZ=             -0.0112
   XY=              0.0019   XZ=              0.0030   YZ=             -0.0015
 Octapole moment (field-independent basis, Debye-Ang**2):
  XXX=             51.3947  YYY=              0.1772  ZZZ=              0.1925  XYY=             17.1495
  XXY=              0.0543  XXZ=              0.0600  XZZ=             17.1546  YZZ=              0.0593
  YYZ=              0.0651  XYZ=              0.0002
 Hexadecapole moment (field-independent basis, Debye-Ang**3):
 XXXX=           -118.3192 YYYY=            -18.4445 ZZZZ=            -18.4669 XXXY=             -0.1646
 XXXZ=             -0.1792 YYYX=             -0.1659 YYYZ=             -0.0008 ZZZX=             -0.1820
 ZZZY=             -0.0014 XXYY=            -22.8075 XXZZ=            -22.8144 YYZZ=             -6.1509
 XXYZ=             -0.0017 YYXZ=             -0.0605 ZZXY=             -0.0541
 N-N= 0.000000000000D+00 E-N=-6.580193367797D+03  KE= 2.750255174945D+03
 No NMR shielding tensors so no spin-rotation constants.
 Leave Link  601 at Sat May  9 17:26:06 2020, MaxMem= 1073741824 cpu:       0.9
 (Enter /home/matheus/.gaussian/g09/l122.exe)
 Counterpoise: doing MCBS calculation for fragment   1
 Leave Link  122 at Sat May  9 17:26:07 2020, MaxMem= 1073741824 cpu:       0.0
 (Enter /home/matheus/.gaussian/g09/l301.exe)
 Basis read from rwf:  (5D, 7F)
 No pseudopotential information found on rwf file.
 There are   138 symmetry adapted basis functions of A   symmetry.
 Integral buffers will be    131072 words long.
 Raffenetti 2 integral format.
 Two-electron integral symmetry is turned on.
   138 basis functions,   198 primitive gaussians,   160 cartesian basis functions
     9 alpha electrons        9 beta electrons
       nuclear repulsion energy        36.6499454140 Hartrees.
 IExCor= 4639 DFT=T Ex+Corr=wB97XD ExCW=0 ScaHFX=  1.000000
 ScaDFX=  1.000000  1.000000  1.000000  1.000000 ScalE2=  1.000000  1.000000
 IRadAn=      5 IRanWt=     -1 IRanGd=            0 ICorTp=0
  HFx wShort=  0.000000 wLong=  0.200000 cFull=  0.222036 cShort=  0.000000 cLong=  0.777964
  DFx wShort=  0.000000 wLong=  0.200000 cFull=  0.000000 cShort=  0.000000 cLong=  1.000000
 NAtoms=    5 NActive=    4 NUniq=    4 SFac= 1.00D+00 NAtFMM=   60 NAOKFM=F Big=F
 R6Disp: Dispersion energy =        -0.0002472616 Hartrees.
 Nuclear repulsion after empirical dispersion term =       36.6496981524 Hartrees.
 No density basis found on file   718.
 Leave Link  301 at Sat May  9 17:26:07 2020, MaxMem= 1073741824 cpu:       0.2
 (Enter /home/matheus/.gaussian/g09/l302.exe)
 NPDir=0 NMtPBC=     1 NCelOv=     1 NCel=       1 NClECP=     1 NCelD=      1
         NCelK=      1 NCelE2=     1 NClLst=     1 CellRange=     0.0.
 One-electron integrals computed using PRISM.
 NBasis=   138 RedAO= T  NBF=   138
 NBsUse=   138 1.00D-06 NBFU=   138
 Precomputing XC quadrature grid using
 IXCGrd= 2 IRadAn=           5 IRanWt=          -1 IRanGd=           0 AccXCQ= 0.00D+00.
 NRdTot=     344 NPtTot=       92556 NUsed=       95038 NTot=       95070
 NSgBfM=   160   160   160   160   160 NAtAll=     4     4.
 Leave Link  302 at Sat May  9 17:26:07 2020, MaxMem= 1073741824 cpu:       0.8
 (Enter /home/matheus/.gaussian/g09/l303.exe)
 DipDrv:  MaxL=1.
 Leave Link  303 at Sat May  9 17:26:07 2020, MaxMem= 1073741824 cpu:       0.1
 (Enter /home/matheus/.gaussian/g09/l401.exe)
 Harris functional with IExCor= 4639 diagonalized for initial guess.
 ExpMin= 2.53D-02 ExpMax= 1.53D+04 ExpMxC= 5.22D+02 IAcc=3 IRadAn=         5 AccDes= 0.00D+00
 HarFok:  IExCor= 4639 AccDes= 0.00D+00 IRadAn=         5 IDoV= 1
 ScaDFX=  1.000000  1.000000  1.000000  1.000000
 FoFCou: FMM=F IPFlag=           0 FMFlag=      100000 FMFlg1=           0
         NFxFlg=           0 DoJE=T BraDBF=F KetDBF=T FulRan=T
         Omega=  0.000000  0.000000  1.000000  0.000000  0.000000 ICntrl=     500 IOpCl=  0
         NMat0=    1 NMatS0=    1 NMatT0=    0 NMatD0=    1 NMtDS0=    0 NMtDT0=    0
         I1Cent=           4 NGrid=           0.
 Petite list used in FoFCou.
 Harris En= -146.293565712965    
 Initial guess orbital symmetries:
       Occupied  (A) (A) (A) (A) (A) (A) (A) (A) (A)
       Virtual   (A) (A) (A) (A) (A) (A) (A) (A) (A) (A) (A) (A)
                 (A) (A) (A) (A) (A) (A) (A) (A) (A) (A) (A) (A)
                 (A) (A) (A) (A) (A) (A) (A) (A) (A) (A) (A) (A)
                 (A) (A) (A) (A) (A) (A) (A) (A) (A) (A) (A) (A)
                 (A) (A) (A) (A) (A) (A) (A) (A) (A) (A) (A) (A)
                 (A) (A) (A) (A) (A) (A) (A) (A) (A) (A) (A) (A)
                 (A) (A) (A) (A) (A) (A) (A) (A) (A) (A) (A) (A)
                 (A) (A) (A) (A) (A) (A) (A) (A) (A) (A) (A) (A)
                 (A) (A) (A) (A) (A) (A) (A) (A) (A) (A) (A) (A)
                 (A) (A) (A) (A) (A) (A) (A) (A) (A) (A) (A) (A)
                 (A) (A) (A) (A) (A) (A) (A) (A) (A)
 The electronic state of the initial guess is 1-A.
 Leave Link  401 at Sat May  9 17:26:07 2020, MaxMem= 1073741824 cpu:       2.4
 (Enter /home/matheus/.gaussian/g09/l502.exe)
 Closed shell SCF:
 Requested convergence on RMS density matrix=1.00D-08 within 128 cycles.
 Requested convergence on MAX density matrix=1.00D-06.
 Requested convergence on             energy=1.00D-06.
 No special actions if energy rises.
 Using DIIS extrapolation, IDIIS=  1040.
 Integral symmetry usage will be decided dynamically.
        94980 words used for storage of precomputed grid.
 IEnd=      192360 IEndB=      192360 NGot=  1073741824 MDV=  1073591865
 LenX=  1073591865 LenY=  1073565824
 Fock matrices will be formed incrementally for  20 cycles.

 Cycle   1  Pass 1  IDiag  1:
 FoFJK:  IHMeth= 1 ICntrl=     0 DoSepK=T KAlg= 1 I1Cent= 0 FoldK=F
 FoFCou: FMM=F IPFlag=           0 FMFlag=      100000 FMFlg1=           0
         NFxFlg=           0 DoJE=T BraDBF=F KetDBF=F FulRan=T
         Omega=  0.000000  0.000000  1.000000  0.000000  0.000000 ICntrl=     500 IOpCl=  0
         NMat0=    1 NMatS0=    1 NMatT0=    0 NMatD0=    1 NMtDS0=    0 NMtDT0=    0
         I1Cent=           0 NGrid=           0.
 Symmetry not used in FoFCou.
 E= -151.474926244826    
 DIIS: error= 5.34D-02 at cycle   1 NSaved=   1.
 NSaved= 1 IEnMin= 1 EnMin= -151.474926244826     IErMin= 1 ErrMin= 5.34D-02
 ErrMax= 5.34D-02 EMaxC= 1.00D-01 BMatC= 2.99D-01 BMatP= 2.99D-01
 IDIUse=3 WtCom= 4.66D-01 WtEn= 5.34D-01
 Coeff-Com:  0.100D+01
 Coeff-En:   0.100D+01
 Coeff:      0.100D+01
 Gap=     0.504 Goal=   None    Shift=    0.000
 GapD=    0.504 DampG=2.000 DampE=0.500 DampFc=1.0000 IDamp=-1.
 RMSDP=3.42D-03 MaxDP=1.06D-01              OVMax= 1.08D-01

 Cycle   2  Pass 1  IDiag  1:
 RMSU=  2.37D-03    CP:  9.50D-01
 FoFJK:  IHMeth= 1 ICntrl=     0 DoSepK=T KAlg= 1 I1Cent= 0 FoldK=F
 E= -151.507082560298     Delta-E=       -0.032156315472 Rises=F Damp=F
 DIIS: error= 2.67D-02 at cycle   2 NSaved=   2.
 NSaved= 2 IEnMin= 2 EnMin= -151.507082560298     IErMin= 2 ErrMin= 2.67D-02
 ErrMax= 2.67D-02 EMaxC= 1.00D-01 BMatC= 8.73D-02 BMatP= 2.99D-01
 IDIUse=3 WtCom= 7.33D-01 WtEn= 2.67D-01
 Coeff-Com:  0.328D+00 0.672D+00
 Coeff-En:   0.349D+00 0.651D+00
 Coeff:      0.333D+00 0.667D+00
 Gap=     0.452 Goal=   None    Shift=    0.000
 RMSDP=1.45D-03 MaxDP=4.84D-02 DE=-3.22D-02 OVMax= 6.00D-02

 Cycle   3  Pass 1  IDiag  1:
 RMSU=  5.22D-04    CP:  9.72D-01  6.40D-01
 FoFJK:  IHMeth= 1 ICntrl=     0 DoSepK=T KAlg= 1 I1Cent= 0 FoldK=F
 E= -151.553370393445     Delta-E=       -0.046287833147 Rises=F Damp=F
 DIIS: error= 7.87D-03 at cycle   3 NSaved=   3.
 NSaved= 3 IEnMin= 3 EnMin= -151.553370393445     IErMin= 3 ErrMin= 7.87D-03
 ErrMax= 7.87D-03 EMaxC= 1.00D-01 BMatC= 7.09D-03 BMatP= 8.73D-02
 IDIUse=3 WtCom= 9.21D-01 WtEn= 7.87D-02
 Coeff-Com:  0.178D-01 0.232D+00 0.750D+00
 Coeff-En:   0.000D+00 0.000D+00 0.100D+01
 Coeff:      0.164D-01 0.214D+00 0.770D+00
[...]
         NMat0=    1 NMatS0=    1 NMatT0=    0 NMatD0=    1 NMtDS0=    0 NMtDT0=    0
         I1Cent=           0 NGrid=           0.
 Symmetry not used in FoFCou.
 E= -2753.87423870189    
 DIIS: error= 1.76D-04 at cycle   1 NSaved=   1.
 NSaved= 1 IEnMin= 1 EnMin= -2753.87423870189     IErMin= 1 ErrMin= 1.76D-04
 ErrMax= 1.76D-04 EMaxC= 1.00D-01 BMatC= 3.80D-06 BMatP= 3.80D-06
 IDIUse=3 WtCom= 9.98D-01 WtEn= 1.76D-03
 Coeff-Com:  0.100D+01
 Coeff-En:   0.100D+01
 Coeff:      0.100D+01
 Gap=     0.497 Goal=   None    Shift=    0.000
 RMSDP=1.48D-05 MaxDP=8.62D-04              OVMax= 3.73D-04

 Cycle   2  Pass 1  IDiag  1:
 RMSU=  1.05D-05    CP:  1.00D+00
 FoFJK:  IHMeth= 1 ICntrl=     0 DoSepK=T KAlg= 1 I1Cent= 0 FoldK=F
 E= -2753.87423934307     Delta-E=       -0.000000641183 Rises=F Damp=F
 DIIS: error= 4.28D-06 at cycle   2 NSaved=   2.
 NSaved= 2 IEnMin= 2 EnMin= -2753.87423934307     IErMin= 2 ErrMin= 4.28D-06
 ErrMax= 4.28D-06 EMaxC= 1.00D-01 BMatC= 4.66D-09 BMatP= 3.80D-06
 IDIUse=1 WtCom= 1.00D+00 WtEn= 0.00D+00
 Coeff-Com: -0.112D-01 0.101D+01
 Coeff:     -0.112D-01 0.101D+01
 Gap=     0.497 Goal=   None    Shift=    0.000
 RMSDP=1.50D-06 MaxDP=7.02D-05 DE=-6.41D-07 OVMax= 5.56D-05

 Cycle   3  Pass 1  IDiag  1:
 RMSU=  5.80D-07    CP:  1.00D+00  1.08D+00
 FoFJK:  IHMeth= 1 ICntrl=     0 DoSepK=T KAlg= 1 I1Cent= 0 FoldK=F
 E= -2753.87423935176     Delta-E=       -0.000000008687 Rises=F Damp=F
 DIIS: error= 8.51D-07 at cycle   3 NSaved=   3.
 NSaved= 3 IEnMin= 3 EnMin= -2753.87423935176     IErMin= 3 ErrMin= 8.51D-07
 ErrMax= 8.51D-07 EMaxC= 1.00D-01 BMatC= 1.28D-10 BMatP= 4.66D-09
 IDIUse=1 WtCom= 1.00D+00 WtEn= 0.00D+00
 Coeff-Com: -0.787D-04-0.922D-01 0.109D+01
 Coeff:     -0.787D-04-0.922D-01 0.109D+01
 Gap=     0.497 Goal=   None    Shift=    0.000
 RMSDP=2.23D-07 MaxDP=9.66D-06 DE=-8.69D-09 OVMax= 1.08D-05

 Cycle   4  Pass 1  IDiag  1:
 RMSU=  5.13D-08    CP:  1.00D+00  1.09D+00  1.23D+00
 FoFJK:  IHMeth= 1 ICntrl=     0 DoSepK=T KAlg= 1 I1Cent= 0 FoldK=F
 E= -2753.87423935200     Delta-E=       -0.000000000238 Rises=F Damp=F
 DIIS: error= 5.45D-07 at cycle   4 NSaved=   4.
 NSaved= 4 IEnMin= 4 EnMin= -2753.87423935200     IErMin= 4 ErrMin= 5.45D-07
 ErrMax= 5.45D-07 EMaxC= 1.00D-01 BMatC= 1.86D-11 BMatP= 1.28D-10
 IDIUse=1 WtCom= 1.00D+00 WtEn= 0.00D+00
 Coeff-Com:  0.232D-03-0.502D-01 0.316D+00 0.734D+00
 Coeff:      0.232D-03-0.502D-01 0.316D+00 0.734D+00
 Gap=     0.497 Goal=   None    Shift=    0.000
 RMSDP=2.67D-08 MaxDP=9.98D-07 DE=-2.38D-10 OVMax= 1.69D-06

 Cycle   5  Pass 1  IDiag  1:
 RMSU=  1.07D-08    CP:  1.00D+00  1.09D+00  1.26D+00  1.04D+00
 FoFJK:  IHMeth= 1 ICntrl=     0 DoSepK=T KAlg= 1 I1Cent= 0 FoldK=F
 E= -2753.87423935202     Delta-E=       -0.000000000024 Rises=F Damp=F
 DIIS: error= 2.94D-08 at cycle   5 NSaved=   5.
 NSaved= 5 IEnMin= 5 EnMin= -2753.87423935202     IErMin= 5 ErrMin= 2.94D-08
 ErrMax= 2.94D-08 EMaxC= 1.00D-01 BMatC= 1.15D-13 BMatP= 1.86D-11
 IDIUse=1 WtCom= 1.00D+00 WtEn= 0.00D+00
 Coeff-Com: -0.291D-04 0.886D-02-0.689D-01-0.870D-01 0.115D+01
 Coeff:     -0.291D-04 0.886D-02-0.689D-01-0.870D-01 0.115D+01
 Gap=     0.497 Goal=   None    Shift=    0.000
 RMSDP=9.84D-09 MaxDP=5.22D-07 DE=-2.41D-11 OVMax= 4.23D-07

 SCF Done:  E(RwB97XD) =  -2753.87423935     A.U. after    5 cycles
             Convg  =    0.9842D-08             -V/T =  2.0013
 KE= 2.750294969196D+03 PE=-6.580235608087D+03 EE= 1.076066399539D+03
 Leave Link  502 at Sat May  9 17:49:46 2020, MaxMem= 1073741824 cpu:      98.2
 (Enter /home/matheus/.gaussian/g09/l122.exe)
 Restoring MOs from calculation   4 to rwf.
 Counterpoise: doing MCBS calculation for fragment   1
 Leave Link  122 at Sat May  9 17:49:46 2020, MaxMem= 1073741824 cpu:       0.0
 (Enter /home/matheus/.gaussian/g09/l301.exe)
 Basis read from rwf:  (5D, 7F)
 No pseudopotential information found on rwf file.
 There are   138 symmetry adapted basis functions of A   symmetry.
 Integral buffers will be    131072 words long.
 Raffenetti 2 integral format.
 Two-electron integral symmetry is turned on.
   138 basis functions,   198 primitive gaussians,   160 cartesian basis functions
     9 alpha electrons        9 beta electrons
       nuclear repulsion energy        36.6499454140 Hartrees.
 IExCor= 4639 DFT=T Ex+Corr=wB97XD ExCW=0 ScaHFX=  1.000000
 ScaDFX=  1.000000  1.000000  1.000000  1.000000 ScalE2=  1.000000  1.000000
 IRadAn=      5 IRanWt=     -1 IRanGd=            0 ICorTp=0
  HFx wShort=  0.000000 wLong=  0.200000 cFull=  0.222036 cShort=  0.000000 cLong=  0.777964
  DFx wShort=  0.000000 wLong=  0.200000 cFull=  0.000000 cShort=  0.000000 cLong=  1.000000
 NAtoms=    5 NActive=    4 NUniq=    4 SFac= 1.00D+00 NAtFMM=   60 NAOKFM=F Big=F
 R6Disp: Dispersion energy =        -0.0002472616 Hartrees.
 Nuclear repulsion after empirical dispersion term =       36.6496981524 Hartrees.
 No density basis found on file   718.
 Leave Link  301 at Sat May  9 17:49:46 2020, MaxMem= 1073741824 cpu:       0.2
 (Enter /home/matheus/.gaussian/g09/l302.exe)
 NPDir=0 NMtPBC=     1 NCelOv=     1 NCel=       1 NClECP=     1 NCelD=      1
         NCelK=      1 NCelE2=     1 NClLst=     1 CellRange=     0.0.
 One-electron integrals computed using PRISM.
 NBasis=   138 RedAO= T  NBF=   138
 NBsUse=   138 1.00D-06 NBFU=   138
 Precomputing XC quadrature grid using
 IXCGrd= 2 IRadAn=           5 IRanWt=          -1 IRanGd=           0 AccXCQ= 0.00D+00.
 NRdTot=     344 NPtTot=       92556 NUsed=       95038 NTot=       95070
 NSgBfM=   160   160   160   160   160 NAtAll=     4     4.
 Leave Link  302 at Sat May  9 17:49:46 2020, MaxMem= 1073741824 cpu:       0.7
 (Enter /home/matheus/.gaussian/g09/l303.exe)
 DipDrv:  MaxL=1.
 Leave Link  303 at Sat May  9 17:49:46 2020, MaxMem= 1073741824 cpu:       0.2
 (Enter /home/matheus/.gaussian/g09/l401.exe)
 Initial guess read from the read-write file.
 Guess basis will be translated and rotated to current coordinates.
 Initial guess orbital symmetries:
       Occupied  (A) (A) (A) (A) (A) (A) (A) (A) (A)
       Virtual   (A) (A) (A) (A) (A) (A) (A) (A) (A) (A) (A) (A)
                 (A) (A) (A) (A) (A) (A) (A) (A) (A) (A) (A) (A)
                 (A) (A) (A) (A) (A) (A) (A) (A) (A) (A) (A) (A)
                 (A) (A) (A) (A) (A) (A) (A) (A) (A) (A) (A) (A)
                 (A) (A) (A) (A) (A) (A) (A) (A) (A) (A) (A) (A)
                 (A) (A) (A) (A) (A) (A) (A) (A) (A) (A) (A) (A)
                 (A) (A) (A) (A) (A) (A) (A) (A) (A) (A) (A) (A)
                 (A) (A) (A) (A) (A) (A) (A) (A) (A) (A) (A) (A)
                 (A) (A) (A) (A) (A) (A) (A) (A) (A) (A) (A) (A)
                 (A) (A) (A) (A) (A) (A) (A) (A) (A) (A) (A) (A)
                 (A) (A) (A) (A) (A) (A) (A) (A) (A)
 The electronic state of the initial guess is 1-A.
 Generating alternative initial guess.
 Harris functional with IExCor= 4639 diagonalized for initial guess.
 ExpMin= 2.53D-02 ExpMax= 1.53D+04 ExpMxC= 5.22D+02 IAcc=3 IRadAn=         5 AccDes= 0.00D+00
 HarFok:  IExCor= 4639 AccDes= 0.00D+00 IRadAn=         5 IDoV= 1
 ScaDFX=  1.000000  1.000000  1.000000  1.000000
 FoFCou: FMM=F IPFlag=           0 FMFlag=      100000 FMFlg1=           0
         NFxFlg=           0 DoJE=T BraDBF=F KetDBF=T FulRan=T
         Omega=  0.000000  0.000000  1.000000  0.000000  0.000000 ICntrl=     500 IOpCl=  0
         NMat0=    1 NMatS0=    1 NMatT0=    0 NMatD0=    1 NMtDS0=    0 NMtDT0=    0
         I1Cent=           4 NGrid=           0.
 Petite list used in FoFCou.
 Harris En= -146.293565707473    
 Leave Link  401 at Sat May  9 17:49:47 2020, MaxMem= 1073741824 cpu:       2.5
 (Enter /home/matheus/.gaussian/g09/l502.exe)
 Closed shell SCF:
 Requested convergence on RMS density matrix=1.00D-08 within 128 cycles.
 Requested convergence on MAX density matrix=1.00D-06.
 Requested convergence on             energy=1.00D-06.
 No special actions if energy rises.
 Using DIIS extrapolation, IDIIS=  1040.
 Integral symmetry usage will be decided dynamically.
        94980 words used for storage of precomputed grid.
 IEnd=      192360 IEndB=      192360 NGot=  1073741824 MDV=  1073591865
 LenX=  1073591865 LenY=  1073565824
 Fock matrices will be formed incrementally for  20 cycles.

 Cycle   1  Pass 1  IDiag  1:
 FoFJK:  IHMeth= 1 ICntrl=     0 DoSepK=T KAlg= 1 I1Cent= 0 FoldK=F
 FoFCou: FMM=F IPFlag=           0 FMFlag=      100000 FMFlg1=           0
         NFxFlg=           0 DoJE=T BraDBF=F KetDBF=F FulRan=T
         Omega=  0.000000  0.000000  1.000000  0.000000  0.000000 ICntrl=     500 IOpCl=  0
         NMat0=    1 NMatS0=    1 NMatT0=    0 NMatD0=    1 NMtDS0=    0 NMtDT0=    0
         I1Cent=           0 NGrid=           0.
 Symmetry not used in FoFCou.
 E= -151.558043020386    
 DIIS: error= 4.63D-06 at cycle   1 NSaved=   1.
 NSaved= 1 IEnMin= 1 EnMin= -151.558043020386     IErMin= 1 ErrMin= 4.63D-06
 ErrMax= 4.63D-06 EMaxC= 1.00D-01 BMatC= 5.08D-09 BMatP= 5.08D-09
 IDIUse=1 WtCom= 1.00D+00 WtEn= 0.00D+00
 Coeff-Com:  0.100D+01
 Coeff:      0.100D+01
 Gap=     0.395 Goal=   None    Shift=    0.000
 RMSDP=5.11D-07 MaxDP=1.19D-05              OVMax= 2.02D-05

 Cycle   2  Pass 1  IDiag  1:
 RMSU=  3.61D-07    CP:  1.00D+00
 FoFJK:  IHMeth= 1 ICntrl=     0 DoSepK=T KAlg= 1 I1Cent= 0 FoldK=F
 E= -151.558043025622     Delta-E=       -0.000000005236 Rises=F Damp=F
 DIIS: error= 8.85D-07 at cycle   2 NSaved=   2.
 NSaved= 2 IEnMin= 2 EnMin= -151.558043025622     IErMin= 2 ErrMin= 8.85D-07
 ErrMax= 8.85D-07 EMaxC= 1.00D-01 BMatC= 1.57D-10 BMatP= 5.08D-09
 IDIUse=1 WtCom= 1.00D+00 WtEn= 0.00D+00
 Coeff-Com: -0.978D-01 0.110D+01
 Coeff:     -0.978D-01 0.110D+01
 Gap=     0.395 Goal=   None    Shift=    0.000
 RMSDP=1.36D-07 MaxDP=3.88D-06 DE=-5.24D-09 OVMax= 5.81D-06

 Cycle   3  Pass 1  IDiag  1:
 RMSU=  4.99D-08    CP:  1.00D+00  1.23D+00
 FoFJK:  IHMeth= 1 ICntrl=     0 DoSepK=T KAlg= 1 I1Cent= 0 FoldK=F
 E= -151.558043025910     Delta-E=       -0.000000000288 Rises=F Damp=F
 DIIS: error= 2.53D-07 at cycle   3 NSaved=   3.
 NSaved= 3 IEnMin= 3 EnMin= -151.558043025910     IErMin= 3 ErrMin= 2.53D-07
 ErrMax= 2.53D-07 EMaxC= 1.00D-01 BMatC= 8.12D-12 BMatP= 1.57D-10
 IDIUse=1 WtCom= 1.00D+00 WtEn= 0.00D+00
 Coeff-Com: -0.191D-01 0.529D-01 0.966D+00
 Coeff:     -0.191D-01 0.529D-01 0.966D+00
 Gap=     0.395 Goal=   None    Shift=    0.000
 RMSDP=3.33D-08 MaxDP=8.49D-07 DE=-2.88D-10 OVMax= 1.81D-06

 Cycle   4  Pass 1  IDiag  1:
 RMSU=  8.65D-09    CP:  1.00D+00  1.28D+00  1.26D+00
 FoFJK:  IHMeth= 1 ICntrl=     0 DoSepK=T KAlg= 1 I1Cent= 0 FoldK=F
 E= -151.558043025929     Delta-E=       -0.000000000019 Rises=F Damp=F
 DIIS: error= 7.75D-08 at cycle   4 NSaved=   4.
 NSaved= 4 IEnMin= 4 EnMin= -151.558043025929     IErMin= 4 ErrMin= 7.75D-08
 ErrMax= 7.75D-08 EMaxC= 1.00D-01 BMatC= 1.01D-12 BMatP= 8.12D-12
 IDIUse=1 WtCom= 1.00D+00 WtEn= 0.00D+00
 Coeff-Com:  0.564D-02-0.789D-01 0.217D-01 0.105D+01
 Coeff:      0.564D-02-0.789D-01 0.217D-01 0.105D+01
 Gap=     0.395 Goal=   None    Shift=    0.000
 RMSDP=1.37D-08 MaxDP=2.81D-07 DE=-1.88D-11 OVMax= 7.55D-07

 Cycle   5  Pass 1  IDiag  1:
 RMSU=  4.01D-09    CP:  1.00D+00  1.29D+00  1.39D+00  1.29D+00
 FoFJK:  IHMeth= 1 ICntrl=     0 DoSepK=T KAlg= 1 I1Cent= 0 FoldK=F
 E= -151.558043025932     Delta-E=       -0.000000000003 Rises=F Damp=F
 DIIS: error= 5.16D-08 at cycle   5 NSaved=   5.
 NSaved= 5 IEnMin= 5 EnMin= -151.558043025932     IErMin= 5 ErrMin= 5.16D-08
 ErrMax= 5.16D-08 EMaxC= 1.00D-01 BMatC= 4.30D-13 BMatP= 1.01D-12
 IDIUse=1 WtCom= 1.00D+00 WtEn= 0.00D+00
 Coeff-Com:  0.391D-02-0.438D-01-0.427D-01 0.551D+00 0.532D+00
 Coeff:      0.391D-02-0.438D-01-0.427D-01 0.551D+00 0.532D+00
 Gap=     0.395 Goal=   None    Shift=    0.000
 RMSDP=2.98D-09 MaxDP=8.05D-08 DE=-2.90D-12 OVMax= 1.78D-07

 SCF Done:  E(RwB97XD) =  -151.558043026     A.U. after    5 cycles
             Convg  =    0.2975D-08             -V/T =  2.0058
 KE= 1.506897249742D+02 PE=-4.317740951431D+02 EE= 9.287662899059D+01
 Leave Link  502 at Sat May  9 17:49:52 2020, MaxMem= 1073741824 cpu:      42.7
 (Enter /home/matheus/.gaussian/g09/l122.exe)
 Restoring MOs from calculation   5 to rwf.
 Counterpoise: doing MCBS calculation for fragment   2
 Leave Link  122 at Sat May  9 17:49:52 2020, MaxMem= 1073741824 cpu:       0.0
 (Enter /home/matheus/.gaussian/g09/l301.exe)
 Basis read from rwf:  (5D, 7F)
 No pseudopotential information found on rwf file.
 There are    59 symmetry adapted basis functions of A   symmetry.
 Integral buffers will be    131072 words long.
 Raffenetti 2 integral format.
 Two-electron integral symmetry is turned on.
    59 basis functions,   217 primitive gaussians,    69 cartesian basis functions
    18 alpha electrons       18 beta electrons
       nuclear repulsion energy         0.0000000000 Hartrees.
 IExCor= 4639 DFT=T Ex+Corr=wB97XD ExCW=0 ScaHFX=  1.000000
 ScaDFX=  1.000000  1.000000  1.000000  1.000000 ScalE2=  1.000000  1.000000
 IRadAn=      5 IRanWt=     -1 IRanGd=            0 ICorTp=0
  HFx wShort=  0.000000 wLong=  0.200000 cFull=  0.222036 cShort=  0.000000 cLong=  0.777964
  DFx wShort=  0.000000 wLong=  0.200000 cFull=  0.000000 cShort=  0.000000 cLong=  1.000000
 NAtoms=    5 NActive=    1 NUniq=    1 SFac= 1.00D+00 NAtFMM=   60 NAOKFM=F Big=F
 R6Disp: Dispersion energy =         0.0000000000 Hartrees.
 Nuclear repulsion after empirical dispersion term =        0.0000000000 Hartrees.
 No density basis found on file   718.
 Leave Link  301 at Sat May  9 17:49:52 2020, MaxMem= 1073741824 cpu:       0.2
 (Enter /home/matheus/.gaussian/g09/l302.exe)
 NPDir=0 NMtPBC=     1 NCelOv=     1 NCel=       1 NClECP=     1 NCelD=      1
         NCelK=      1 NCelE2=     1 NClLst=     1 CellRange=     0.0.
 One-electron integrals computed using PRISM.
 NBasis=    59 RedAO= T  NBF=    59
 NBsUse=    59 1.00D-06 NBFU=    59
 Precomputing XC quadrature grid using
 IXCGrd= 2 IRadAn=           5 IRanWt=          -1 IRanGd=           0 AccXCQ= 0.00D+00.
 NRdTot=      81 NPtTot=       30352 NUsed=       30981 NTot=       31013
 NSgBfM=    69    69    69    69    69 NAtAll=     1     1.
 Leave Link  302 at Sat May  9 17:49:52 2020, MaxMem= 1073741824 cpu:       0.7
 (Enter /home/matheus/.gaussian/g09/l303.exe)
 DipDrv:  MaxL=1.
 Leave Link  303 at Sat May  9 17:49:52 2020, MaxMem= 1073741824 cpu:       0.2
 (Enter /home/matheus/.gaussian/g09/l401.exe)
 Initial guess read from the read-write file.
 Guess basis will be translated and rotated to current coordinates.
 Initial guess orbital symmetries:
       Occupied  (A) (A) (A) (A) (A) (A) (A) (A) (A) (A) (A) (A)
                 (A) (A) (A) (A) (A) (A)
       Virtual   (A) (A) (A) (A) (A) (A) (A) (A) (A) (A) (A) (A)
                 (A) (A) (A) (A) (A) (A) (A) (A) (A) (A) (A) (A)
                 (A) (A) (A) (A) (A) (A) (A) (A) (A) (A) (A) (A)
                 (A) (A) (A) (A) (A)
 The electronic state of the initial guess is 1-A.
 Generating alternative initial guess.
 Harris functional with IExCor= 4639 diagonalized for initial guess.
 ExpMin= 4.00D-02 ExpMax= 1.17D+07 ExpMxC= 1.33D+04 IAcc=3 IRadAn=         5 AccDes= 0.00D+00
 HarFok:  IExCor= 4639 AccDes= 0.00D+00 IRadAn=         5 IDoV= 1
 ScaDFX=  1.000000  1.000000  1.000000  1.000000
 FoFCou: FMM=F IPFlag=           0 FMFlag=      100000 FMFlg1=           0
         NFxFlg=           0 DoJE=T BraDBF=F KetDBF=T FulRan=T
         Omega=  0.000000  0.000000  1.000000  0.000000  0.000000 ICntrl=     500 IOpCl=  0
         NMat0=    1 NMatS0=    1 NMatT0=    0 NMatD0=    1 NMtDS0=    0 NMtDT0=    0
         I1Cent=           4 NGrid=           0.
 Petite list used in FoFCou.
 Harris En= -2730.20235208354    
 Leave Link  401 at Sat May  9 17:49:52 2020, MaxMem= 1073741824 cpu:       1.2
 (Enter /home/matheus/.gaussian/g09/l502.exe)
 Closed shell SCF:
 Requested convergence on RMS density matrix=1.00D-08 within 128 cycles.
 Requested convergence on MAX density matrix=1.00D-06.
 Requested convergence on             energy=1.00D-06.
 No special actions if energy rises.
 Using DIIS extrapolation, IDIIS=  1040.
 Integral symmetry usage will be decided dynamically.
        30923 words used for storage of precomputed grid.
 IEnd=       64406 IEndB=       64406 NGot=  1073741824 MDV=  1073698889
 LenX=  1073698889 LenY=  1073693687
 Fock matrices will be formed incrementally for  20 cycles.

 Cycle   1  Pass 1  IDiag  1:
 FoFJK:  IHMeth= 1 ICntrl=     0 DoSepK=T KAlg= 1 I1Cent= 0 FoldK=F
 FoFCou: FMM=F IPFlag=           0 FMFlag=      100000 FMFlg1=           0
         NFxFlg=           0 DoJE=T BraDBF=F KetDBF=F FulRan=T
         Omega=  0.000000  0.000000  1.000000  0.000000  0.000000 ICntrl=     500 IOpCl=  0
         NMat0=    1 NMatS0=    1 NMatT0=    0 NMatD0=    1 NMtDS0=    0 NMtDT0=    0
         I1Cent=           0 NGrid=           0.
 Symmetry not used in FoFCou.
 E= -2753.87421986326    
 DIIS: error= 2.06D-13 at cycle   1 NSaved=   1.
 NSaved= 1 IEnMin= 1 EnMin= -2753.87421986326     IErMin= 1 ErrMin= 2.06D-13
 ErrMax= 2.06D-13 EMaxC= 1.00D-01 BMatC= 1.67D-24 BMatP= 1.67D-24
 IDIUse=1 WtCom= 1.00D+00 WtEn= 0.00D+00
 Coeff-Com:  0.100D+01
 Coeff:      0.100D+01
 Gap=     0.562 Goal=   None    Shift=    0.000
 RMSDP=1.79D-14 MaxDP=3.46D-13              OVMax= 1.69D-13

 SCF Done:  E(RwB97XD) =  -2753.87421986     A.U. after    1 cycles
             Convg  =    0.1786D-13             -V/T =  2.0013
 KE= 2.750300381543D+03 PE=-6.580241205809D+03 EE= 1.076066604402D+03
 Leave Link  502 at Sat May  9 17:49:54 2020, MaxMem= 1073741824 cpu:      11.9
 (Enter /home/matheus/.gaussian/g09/l122.exe)
 Restoring MOs from calculation   1 to rwf.
 Counterpoise: corrected energy =   -2905.432639836162
 Counterpoise: BSSE energy =       0.000022873049
 Leave Link  122 at Sat May  9 17:49:54 2020, MaxMem= 1073741824 cpu:       0.0
 (Enter /home/matheus/.gaussian/g09/l108.exe)
 Scan completed.

 Summary of the potential surface scan:
   N      R1          SCF    
 ----  ---------  -----------
    1     3.0000  -2753.87422
    2     3.1000  -2753.87422
    3     3.2000  -2753.87422
    4     3.3000  -2753.87422
    5     3.4000  -2753.87422
    6     3.5000  -2753.87422
    7     3.6000  -2753.87422
    8     3.7000  -2753.87422
    9     3.8000  -2753.87422
   10     3.9000  -2753.87422
   11     4.0000  -2753.87422
   12     4.1000  -2753.87422
   13     4.2000  -2753.87422
   14     4.3000  -2753.87422
   15     4.4000  -2753.87422
   16     4.5000  -2753.87422
   17     4.6000  -2753.87422
   18     4.7000  -2753.87422
   19     4.8000  -2753.87422
   20     4.9000  -2753.87422
   21     5.0000  -2753.87422
 ----  ---------  -----------
  
 Leave Link  108 at Sat May  9 17:49:54 2020, MaxMem= 1073741824 cpu:       0.0
 (Enter /home/matheus/.gaussian/g09/l9999.exe)
 1\1\GINC-REDGIANT\Scan\RwB97XD\Aug-CC-pVTZ\H2Kr1O2\MATHEUS\09-May-2020
 \1\\#p wb97xd/aug-cc-PVTz int=ultrafine counterpoise=2 Scan\\TCC\\0,1\
 O,0,0.,0.,0.725\O,0,0.,0.,-0.725\H,0,0.7037808064,0.5905422151,1.02351
 04166\H,0,0.,0.9187205947,-1.0235104166\Kr,0,0.,R1,0.\\R1=3.,s,20,0.1\
 \Version=EM64L-G09RevC.01\State=1-A\HF=-2753.8742199,-2753.8742199,-27
 53.8742199,-2753.8742199,-2753.8742199,-2753.8742199,-2753.8742199,-27
 53.8742199,-2753.8742199,-2753.8742199,-2753.8742199,-2753.8742199,-27
 53.8742199,-2753.8742199,-2753.8742199,-2753.8742199,-2753.8742199,-27
 53.8742199,-2753.8742199,-2753.8742199,-2753.8742199\RMSD=9.120e-09,1.
 920e-10,6.363e-11,4.203e-11,2.496e-11,1.570e-11,9.723e-12,6.058e-12,3.
 767e-12,2.340e-12,1.450e-12,8.998e-13,5.617e-13,3.552e-13,2.186e-13,1.
 319e-13,8.006e-14,4.894e-14,2.962e-14,2.606e-14,1.786e-14\PG=C01 [X(H2
 Kr1O2)]\\@


 YOU KNOW YOU'RE A TEACHER WHEN YOU SAY 2, WRITE 3, AND MEAN 4.
 -- RONALD ANSTROM, HIGH SCHOOL TEACHER, UNDERWOOD, N.D. 1974
 Job cpu time:  0 days  3 hours 23 minutes 58.2 seconds.
 File lengths (MBytes):  RWF=     33 Int=      0 D2E=      0 Chk=      8 Scr=      1
 Normal termination of Gaussian 09 at Sat May  9 17:49:54 2020.
