 Entering Gaussian System, Link 0=g16
 Input=Inputs/H2O2-Kr_8.com
 Output=Logs/H2O2-Kr_8.log
 Initial command:
 /usr/local/g16/g16/l1.exe "/mnt/driveB/scratch/matheus/Gau-71226.inp" -scrdir="/mnt/driveB/scratch/matheus/"
 Entering Link 1 = /usr/local/g16/g16/l1.exe PID=     71228.
  
 Copyright (c) 1988,1990,1992,1993,1995,1998,2003,2009,2016,
            Gaussian, Inc.  All Rights Reserved.
  
 This is part of the Gaussian(R) 16 program.  It is based on
 the Gaussian(R) 09 system (copyright 2009, Gaussian, Inc.),
 the Gaussian(R) 03 system (copyright 2003, Gaussian, Inc.),
 the Gaussian(R) 98 system (copyright 1998, Gaussian, Inc.),
 the Gaussian(R) 94 system (copyright 1995, Gaussian, Inc.),
 the Gaussian 92(TM) system (copyright 1992, Gaussian, Inc.),
 the Gaussian 90(TM) system (copyright 1990, Gaussian, Inc.),
 the Gaussian 88(TM) system (copyright 1988, Gaussian, Inc.),
 the Gaussian 86(TM) system (copyright 1986, Carnegie Mellon
 University), and the Gaussian 82(TM) system (copyright 1983,
 Carnegie Mellon University). Gaussian is a federally registered
 trademark of Gaussian, Inc.
  
 This software contains proprietary and confidential information,
 including trade secrets, belonging to Gaussian, Inc.
  
 This software is provided under written license and may be
 used, copied, transmitted, or stored only in accord with that
 written license.
  
 The following legend is applicable only to US Government
 contracts under FAR:
  
                    RESTRICTED RIGHTS LEGEND
  
 Use, reproduction and disclosure by the US Government is
 subject to restrictions as set forth in subparagraphs (a)
 and (c) of the Commercial Computer Software - Restricted
 Rights clause in FAR 52.227-19.
  
 Gaussian, Inc.
 340 Quinnipiac St., Bldg. 40, Wallingford CT 06492
  
  
 ---------------------------------------------------------------
 Warning -- This program may not be used in any manner that
 competes with the business of Gaussian, Inc. or will provide
 assistance to any competitor of Gaussian, Inc.  The licensee
 of this program is prohibited from giving any competitor of
 Gaussian, Inc. access to this program.  By using this program,
 the user acknowledges that Gaussian, Inc. is engaged in the
 business of creating and licensing software in the field of
 computational chemistry and represents and warrants to the
 licensee that it is not a competitor of Gaussian, Inc. and that
 it will not use this program in any manner prohibited above.
 ---------------------------------------------------------------
  

 Cite this work as:
 Gaussian 16, Revision A.03,
 M. J. Frisch, G. W. Trucks, H. B. Schlegel, G. E. Scuseria, 
 M. A. Robb, J. R. Cheeseman, G. Scalmani, V. Barone, 
 G. A. Petersson, H. Nakatsuji, X. Li, M. Caricato, A. V. Marenich, 
 J. Bloino, B. G. Janesko, R. Gomperts, B. Mennucci, H. P. Hratchian, 
 J. V. Ortiz, A. F. Izmaylov, J. L. Sonnenberg, D. Williams-Young, 
 F. Ding, F. Lipparini, F. Egidi, J. Goings, B. Peng, A. Petrone, 
 T. Henderson, D. Ranasinghe, V. G. Zakrzewski, J. Gao, N. Rega, 
 G. Zheng, W. Liang, M. Hada, M. Ehara, K. Toyota, R. Fukuda, 
 J. Hasegawa, M. Ishida, T. Nakajima, Y. Honda, O. Kitao, H. Nakai, 
 T. Vreven, K. Throssell, J. A. Montgomery, Jr., J. E. Peralta, 
 F. Ogliaro, M. J. Bearpark, J. J. Heyd, E. N. Brothers, K. N. Kudin, 
 V. N. Staroverov, T. A. Keith, R. Kobayashi, J. Normand, 
 K. Raghavachari, A. P. Rendell, J. C. Burant, S. S. Iyengar, 
 J. Tomasi, M. Cossi, J. M. Millam, M. Klene, C. Adamo, R. Cammi, 
 J. W. Ochterski, R. L. Martin, K. Morokuma, O. Farkas, 
 J. B. Foresman, and D. J. Fox, Gaussian, Inc., Wallingford CT, 2016.
 
 ******************************************
 Gaussian 16:  ES64L-G16RevA.03 25-Dec-2016
                30-Mar-2020 
 ******************************************
 %mem=16GB
 %nproc=16
 Will use up to   16 processors via shared memory.
 ----------------------------------------------------
 #p mp4/aug-cc-PVTz int=ultrafine counterpoise=2 Scan
 ----------------------------------------------------
 1/38=1,60=1,62=2,172=1/1,8;
 2/12=2,17=6,18=5,29=3,40=1/2;
 1/38=1,53=2,62=2,63=1/22;
 3/5=16,6=1,7=10,11=9,25=1,30=1,75=-5/1,2,3;
 4//1;
 5/5=2,38=5/2;
 8/6=4,9=120000,10=1/1,4;
 9/5=5/13;
 6/7=2,8=2,9=2,10=2,18=1/1;
 1/53=2,62=2,63=1/22;
 3/5=7,6=11,7=10,11=9,25=1,30=1,75=-5,82=7/1,2,3;
 4//1;
 5/5=2,38=5/2;
 8/6=4,9=120000,10=1/1,4;
 9/5=5/13;
 6/7=2,8=2,9=2,10=2,18=1/1;
 1/53=2,62=2,63=1/22(-6);
 1/60=1,62=2/8(1);
 99/9=1/99;
 2/29=3/2;
 1/53=3,62=2,63=1/22;
 3/5=7,6=11,7=10,11=9,25=1,30=1,75=-5,82=7/1,2,3;
 4/5=5,16=3,69=1/1;
 5/5=2,38=5/2;
 8/6=4,9=120000,10=1/1,4;
 9/5=5/13;
 1/53=3,62=2,63=1/22(-5);
 1/60=1,62=2/8(-8);
 99/9=1/99;
 Leave Link    1 at Mon Mar 30 22:42:46 2020, MaxMem=  2147483648 cpu:               0.3 elap:               0.0
 (Enter /usr/local/g16/g16/l101.exe)
 ----
 PTCC
 ----
 Symbolic Z-matrix:
 Charge =  0 Multiplicity = 1 in supermolecule
 Charge =  0 Multiplicity = 1 in fragment      1.
 Charge =  0 Multiplicity = 1 in fragment      2.
 O(Fragment=1)         0.        0.        0.725 
 O(Fragment=1)         0.        0.       -0.725 
 H(Fragment=1)         0.90476   0.15953   1.02351 
 H(Fragment=1)         0.        0.91872  -1.02351 
 Kr(Fragment=2)        0.       R1        0. 
       Variables:
  R1                    3.     Scan 20    0.1    
 
 ITRead=  0  0  0  0  0
 MicOpt= -1 -1 -1 -1 -1
 NAtoms=      5 NQM=        5 NQMF=       0 NMMI=      0 NMMIF=      0
                NMic=       0 NMicF=      0.
                    Isotopes and Nuclear Properties:
 (Nuclear quadrupole moments (NQMom) in fm**2, nuclear magnetic moments (NMagM)
  in nuclear magnetons)

  Atom         1           2           3           4           5
 IAtWgt=          16          16           1           1          84
 AtmWgt=  15.9949146  15.9949146   1.0078250   1.0078250  83.9115064
 NucSpn=           0           0           1           1           0
 AtZEff=  -0.0000000  -0.0000000  -0.0000000  -0.0000000  -0.0000000
 NQMom=    0.0000000   0.0000000   0.0000000   0.0000000   0.0000000
 NMagM=    0.0000000   0.0000000   2.7928460   2.7928460   0.0000000
 AtZNuc=   8.0000000   8.0000000   1.0000000   1.0000000  36.0000000
 Leave Link  101 at Mon Mar 30 22:42:46 2020, MaxMem=  2147483648 cpu:               1.4 elap:               0.1
 (Enter /usr/local/g16/g16/l108.exe)
 Scan the potential surface.
 Variable   Value     No. Steps Step-Size
 -------- ----------- --------- ---------
     1       3.000000      20      0.1000
 A total of     21 points will be computed.
 Leave Link  108 at Mon Mar 30 22:42:46 2020, MaxMem=  2147483648 cpu:               0.0 elap:               0.0
 (Enter /usr/local/g16/g16/l202.exe)
 ---------------------------------------------------------------------------------------------------
                            Z-MATRIX (ANGSTROMS AND DEGREES)
   CD    Cent   Atom    N1       Length/X        N2       Alpha/Y        N3        Beta/Z          J
 ---------------------------------------------------------------------------------------------------
      1      1  O        0   0.000000          0.000000          0.725000
      2      2  O        0   0.000000          0.000000         -0.725000
      3      3  H        0   0.904763          0.159534          1.023510
      4      4  H        0   0.000000          0.918721         -1.023510
      5      5  Kr       0   0.000000          3.000000          0.000000
 ---------------------------------------------------------------------------------------------------
                         Z-Matrix orientation:                         
 ---------------------------------------------------------------------
 Center     Atomic      Atomic             Coordinates (Angstroms)
 Number     Number       Type             X           Y           Z
 ---------------------------------------------------------------------
      1          8           0        0.000000    0.000000    0.725000
      2          8           0        0.000000    0.000000   -0.725000
      3          1           0        0.904763    0.159534    1.023510
      4          1           0        0.000000    0.918721   -1.023510
      5         36           0        0.000000    3.000000    0.000000
 ---------------------------------------------------------------------
                    Distance matrix (angstroms):
                    1          2          3          4          5
     1  O    0.000000
     2  O    1.450000   0.000000
     3  H    0.966000   1.975180   0.000000
     4  H    1.975180   0.966000   2.363314   0.000000
     5  Kr   3.086361   3.086361   3.151891   2.319331   0.000000
 Stoichiometry    H2KrO2
 Framework group  C1[X(H2KrO2)]
 Deg. of freedom     9
 Full point group                 C1      NOp   1
 Largest Abelian subgroup         C1      NOp   1
 Largest concise Abelian subgroup C1      NOp   1
                         Standard orientation:                         
 ---------------------------------------------------------------------
 Center     Atomic      Atomic             Coordinates (Angstroms)
 Number     Number       Type             X           Y           Z
 ---------------------------------------------------------------------
      1          8           0        2.025459   -0.700316   -0.115097
      2          8           0        2.013251    0.743386    0.019343
      3          1           0        1.883208   -1.082864    0.760447
      4          1           0        1.092171    1.031511    0.061209
      5         36           0       -0.980140   -0.008145   -0.001545
 ---------------------------------------------------------------------
 Rotational constants (GHZ):          25.6204875           2.3529020           2.1689661
 Leave Link  202 at Mon Mar 30 22:42:46 2020, MaxMem=  2147483648 cpu:               0.0 elap:               0.0
 (Enter /usr/local/g16/g16/l122.exe)
 Counterpoise: doing full-system calculation.
 Leave Link  122 at Mon Mar 30 22:42:46 2020, MaxMem=  2147483648 cpu:               0.0 elap:               0.0
 (Enter /usr/local/g16/g16/l301.exe)
 Standard basis: Aug-CC-pVTZ (5D, 7F)
 Ernie: Thresh=  0.10000D-02 Tol=  0.10000D-05 Strict=F.
 Ernie:  38 primitive shells out of 205 were deleted.
 There are   229 symmetry adapted cartesian basis functions of A   symmetry.
 There are   197 symmetry adapted basis functions of A   symmetry.
   197 basis functions,   415 primitive gaussians,   229 cartesian basis functions
    27 alpha electrons       27 beta electrons
       nuclear repulsion energy       149.6490480560 Hartrees.
 IExCor=    0 DFT=F Ex=HF Corr=None ExCW=0 ScaHFX=  1.000000
 ScaDFX=  1.000000  1.000000  1.000000  1.000000 ScalE2=  1.000000  1.000000
 IRadAn=      5 IRanWt=     -1 IRanGd=            0 ICorTp=0 IEmpDi=  4
 NAtoms=    5 NActive=    5 NUniq=    5 SFac= 1.00D+00 NAtFMM=   60 NAOKFM=F Big=F
 Integral buffers will be    131072 words long.
 Raffenetti 1 integral format.
 Two-electron integral symmetry is turned on.
 Leave Link  301 at Mon Mar 30 22:42:46 2020, MaxMem=  2147483648 cpu:               0.4 elap:               0.0
 (Enter /usr/local/g16/g16/l302.exe)
 NPDir=0 NMtPBC=     1 NCelOv=     1 NCel=       1 NClECP=     1 NCelD=      1
         NCelK=      1 NCelE2=     1 NClLst=     1 CellRange=     0.0.
 One-electron integrals computed using PRISM.
 One-electron integral symmetry used in STVInt
 NBasis=   197 RedAO= T EigKep=  2.09D-04  NBF=   197
 NBsUse=   197 1.00D-06 EigRej= -1.00D+00 NBFU=   197
 Leave Link  302 at Mon Mar 30 22:42:46 2020, MaxMem=  2147483648 cpu:               1.7 elap:               0.1
 (Enter /usr/local/g16/g16/l303.exe)
 DipDrv:  MaxL=1.
 Leave Link  303 at Mon Mar 30 22:42:46 2020, MaxMem=  2147483648 cpu:               0.4 elap:               0.0
 (Enter /usr/local/g16/g16/l401.exe)
 ExpMin= 2.53D-02 ExpMax= 1.17D+07 ExpMxC= 1.33D+04 IAcc=3 IRadAn=         5 AccDes= 0.00D+00
 Harris functional with IExCor=  205 and IRadAn=       5 diagonalized for initial guess.
 HarFok:  IExCor=  205 AccDes= 0.00D+00 IRadAn=         5 IDoV= 1 UseB2=F ITyADJ=14
 ICtDFT=  3500011 ScaDFX=  1.000000  1.000000  1.000000  1.000000
 FoFCou: FMM=F IPFlag=           0 FMFlag=      100000 FMFlg1=           0
         NFxFlg=           0 DoJE=T BraDBF=F KetDBF=T FulRan=T
         wScrn=  0.000000 ICntrl=       500 IOpCl=  0 I1Cent=   200000004 NGrid=           0
         NMat0=    1 NMatS0=      1 NMatT0=    0 NMatD0=    1 NMtDS0=    0 NMtDT0=    0
 Petite list used in FoFCou.
 Harris En= -2901.99321615973    
 JPrj=0 DoOrth=F DoCkMO=F.
 Leave Link  401 at Mon Mar 30 22:42:47 2020, MaxMem=  2147483648 cpu:               3.1 elap:               0.2
 (Enter /usr/local/g16/g16/l502.exe)
 Keep R1 ints in memory in canonical form, NReq=203136233.
 FoFCou: FMM=F IPFlag=           0 FMFlag=           0 FMFlg1=           0
         NFxFlg=           0 DoJE=F BraDBF=F KetDBF=F FulRan=T
         wScrn=  0.000000 ICntrl=       600 IOpCl=  0 I1Cent=           0 NGrid=           0
         NMat0=    1 NMatS0=  19503 NMatT0=    0 NMatD0=    1 NMtDS0=    0 NMtDT0=    0
 Symmetry not used in FoFCou.
 Two-electron integral symmetry not used.
 Closed shell SCF:
 Using DIIS extrapolation, IDIIS=  1040.
 NGot=  2147483648 LenX=  1957179903 LenY=  1957127021
 Requested convergence on RMS density matrix=1.00D-08 within 128 cycles.
 Requested convergence on MAX density matrix=1.00D-06.
 Requested convergence on             energy=1.00D-06.
 No special actions if energy rises.

 Cycle   1  Pass 1  IDiag  1:
 E= -2902.76749480079    
 DIIS: error= 3.82D-02 at cycle   1 NSaved=   1.
 NSaved= 1 IEnMin= 1 EnMin= -2902.76749480079     IErMin= 1 ErrMin= 3.82D-02
 ErrMax= 3.82D-02  0.00D+00 EMaxC= 1.00D-01 BMatC= 6.57D-01 BMatP= 6.57D-01
 IDIUse=3 WtCom= 6.18D-01 WtEn= 3.82D-01
 Coeff-Com:  0.100D+01
 Coeff-En:   0.100D+01
 Coeff:      0.100D+01
 Gap=     0.714 Goal=   None    Shift=    0.000
 GapD=    0.714 DampG=2.000 DampE=0.500 DampFc=1.0000 IDamp=-1.
 RMSDP=1.97D-03 MaxDP=1.30D-01              OVMax= 5.57D-02

 Cycle   2  Pass 1  IDiag  1:
 E= -2902.86404400604     Delta-E=       -0.096549205247 Rises=F Damp=F
 DIIS: error= 6.66D-03 at cycle   2 NSaved=   2.
 NSaved= 2 IEnMin= 2 EnMin= -2902.86404400604     IErMin= 2 ErrMin= 6.66D-03
 ErrMax= 6.66D-03  0.00D+00 EMaxC= 1.00D-01 BMatC= 3.60D-02 BMatP= 6.57D-01
 IDIUse=3 WtCom= 9.33D-01 WtEn= 6.66D-02
 Coeff-Com:  0.138D+00 0.862D+00
 Coeff-En:   0.000D+00 0.100D+01
 Coeff:      0.129D+00 0.871D+00
 Gap=     0.545 Goal=   None    Shift=    0.000
 RMSDP=7.51D-04 MaxDP=3.64D-02 DE=-9.65D-02 OVMax= 2.65D-02

 Cycle   3  Pass 1  IDiag  1:
 E= -2902.87741791676     Delta-E=       -0.013373910724 Rises=F Damp=F
 DIIS: error= 2.23D-03 at cycle   3 NSaved=   3.
 NSaved= 3 IEnMin= 3 EnMin= -2902.87741791676     IErMin= 3 ErrMin= 2.23D-03
 ErrMax= 2.23D-03  0.00D+00 EMaxC= 1.00D-01 BMatC= 2.72D-03 BMatP= 3.60D-02
 IDIUse=3 WtCom= 9.78D-01 WtEn= 2.23D-02
 Coeff-Com: -0.626D-02 0.194D+00 0.812D+00
 Coeff-En:   0.000D+00 0.000D+00 0.100D+01
 Coeff:     -0.612D-02 0.190D+00 0.816D+00
 Gap=     0.523 Goal=   None    Shift=    0.000
 RMSDP=1.35D-04 MaxDP=4.80D-03 DE=-1.34D-02 OVMax= 8.44D-03

 Cycle   4  Pass 1  IDiag  1:
 E= -2902.87881390585     Delta-E=       -0.001395989087 Rises=F Damp=F
 DIIS: error= 3.10D-04 at cycle   4 NSaved=   4.
 NSaved= 4 IEnMin= 4 EnMin= -2902.87881390585     IErMin= 4 ErrMin= 3.10D-04
 ErrMax= 3.10D-04  0.00D+00 EMaxC= 1.00D-01 BMatC= 4.78D-05 BMatP= 2.72D-03
 IDIUse=3 WtCom= 9.97D-01 WtEn= 3.10D-03
 Coeff-Com: -0.410D-02 0.129D-01 0.138D+00 0.853D+00
 Coeff-En:   0.000D+00 0.000D+00 0.000D+00 0.100D+01
 Coeff:     -0.409D-02 0.129D-01 0.138D+00 0.853D+00
 Gap=     0.522 Goal=   None    Shift=    0.000
 RMSDP=2.21D-05 MaxDP=6.66D-04 DE=-1.40D-03 OVMax= 1.74D-03

 Cycle   5  Pass 1  IDiag  1:
 E= -2902.87885613605     Delta-E=       -0.000042230207 Rises=F Damp=F
 DIIS: error= 9.46D-05 at cycle   5 NSaved=   5.
 NSaved= 5 IEnMin= 5 EnMin= -2902.87885613605     IErMin= 5 ErrMin= 9.46D-05
 ErrMax= 9.46D-05  0.00D+00 EMaxC= 1.00D-01 BMatC= 3.93D-06 BMatP= 4.78D-05
 IDIUse=1 WtCom= 1.00D+00 WtEn= 0.00D+00
 Coeff-Com:  0.899D-03-0.170D-01-0.721D-01-0.150D-02 0.109D+01
 Coeff:      0.899D-03-0.170D-01-0.721D-01-0.150D-02 0.109D+01
 Gap=     0.522 Goal=   None    Shift=    0.000
 RMSDP=1.16D-05 MaxDP=3.22D-04 DE=-4.22D-05 OVMax= 8.16D-04

 Cycle   6  Pass 1  IDiag  1:
 E= -2902.87886248918     Delta-E=       -0.000006353127 Rises=F Damp=F
 DIIS: error= 3.28D-05 at cycle   6 NSaved=   6.
 NSaved= 6 IEnMin= 6 EnMin= -2902.87886248918     IErMin= 6 ErrMin= 3.28D-05
 ErrMax= 3.28D-05  0.00D+00 EMaxC= 1.00D-01 BMatC= 3.13D-07 BMatP= 3.93D-06
 IDIUse=1 WtCom= 1.00D+00 WtEn= 0.00D+00
 Coeff-Com:  0.236D-03-0.681D-03-0.959D-02-0.607D-01 0.199D-01 0.105D+01
 Coeff:      0.236D-03-0.681D-03-0.959D-02-0.607D-01 0.199D-01 0.105D+01
 Gap=     0.522 Goal=   None    Shift=    0.000
 RMSDP=3.80D-06 MaxDP=1.30D-04 DE=-6.35D-06 OVMax= 3.65D-04

 Cycle   7  Pass 1  IDiag  1:
 E= -2902.87886313971     Delta-E=       -0.000000650531 Rises=F Damp=F
 DIIS: error= 1.70D-05 at cycle   7 NSaved=   7.
 NSaved= 7 IEnMin= 7 EnMin= -2902.87886313971     IErMin= 7 ErrMin= 1.70D-05
 ErrMax= 1.70D-05  0.00D+00 EMaxC= 1.00D-01 BMatC= 5.91D-08 BMatP= 3.13D-07
 IDIUse=1 WtCom= 1.00D+00 WtEn= 0.00D+00
 Coeff-Com: -0.379D-04 0.165D-02 0.543D-02-0.139D-01-0.110D+00 0.214D+00
 Coeff-Com:  0.903D+00
 Coeff:     -0.379D-04 0.165D-02 0.543D-02-0.139D-01-0.110D+00 0.214D+00
 Coeff:      0.903D+00
 Gap=     0.522 Goal=   None    Shift=    0.000
 RMSDP=1.48D-06 MaxDP=5.18D-05 DE=-6.51D-07 OVMax= 1.61D-04

 Cycle   8  Pass 1  IDiag  1:
 E= -2902.87886324969     Delta-E=       -0.000000109978 Rises=F Damp=F
 DIIS: error= 6.21D-06 at cycle   8 NSaved=   8.
 NSaved= 8 IEnMin= 8 EnMin= -2902.87886324969     IErMin= 8 ErrMin= 6.21D-06
 ErrMax= 6.21D-06  0.00D+00 EMaxC= 1.00D-01 BMatC= 1.16D-08 BMatP= 5.91D-08
 IDIUse=1 WtCom= 1.00D+00 WtEn= 0.00D+00
 Coeff-Com: -0.375D-04 0.312D-03 0.229D-02 0.815D-02-0.214D-01-0.151D+00
 Coeff-Com:  0.190D+00 0.972D+00
 Coeff:     -0.375D-04 0.312D-03 0.229D-02 0.815D-02-0.214D-01-0.151D+00
 Coeff:      0.190D+00 0.972D+00
 Gap=     0.522 Goal=   None    Shift=    0.000
 RMSDP=8.15D-07 MaxDP=2.34D-05 DE=-1.10D-07 OVMax= 1.01D-04

 Cycle   9  Pass 1  IDiag  1:
 E= -2902.87886327700     Delta-E=       -0.000000027308 Rises=F Damp=F
 DIIS: error= 1.99D-06 at cycle   9 NSaved=   9.
 NSaved= 9 IEnMin= 9 EnMin= -2902.87886327700     IErMin= 9 ErrMin= 1.99D-06
 ErrMax= 1.99D-06  0.00D+00 EMaxC= 1.00D-01 BMatC= 1.55D-09 BMatP= 1.16D-08
 IDIUse=1 WtCom= 1.00D+00 WtEn= 0.00D+00
 Coeff-Com:  0.147D-04-0.343D-03-0.151D-02-0.553D-03 0.223D-01 0.227D-01
 Coeff-Com: -0.199D+00-0.370D+00 0.153D+01
 Coeff:      0.147D-04-0.343D-03-0.151D-02-0.553D-03 0.223D-01 0.227D-01
 Coeff:     -0.199D+00-0.370D+00 0.153D+01
 Gap=     0.522 Goal=   None    Shift=    0.000
 RMSDP=4.65D-07 MaxDP=1.11D-05 DE=-2.73D-08 OVMax= 7.15D-05

 Cycle  10  Pass 1  IDiag  1:
 E= -2902.87886328408     Delta-E=       -0.000000007085 Rises=F Damp=F
 DIIS: error= 6.44D-07 at cycle  10 NSaved=  10.
 NSaved=10 IEnMin=10 EnMin= -2902.87886328408     IErMin=10 ErrMin= 6.44D-07
 ErrMax= 6.44D-07  0.00D+00 EMaxC= 1.00D-01 BMatC= 1.58D-10 BMatP= 1.55D-09
 IDIUse=1 WtCom= 1.00D+00 WtEn= 0.00D+00
 Coeff-Com:  0.100D-05 0.841D-04 0.184D-03-0.119D-02-0.450D-02 0.133D-01
 Coeff-Com:  0.483D-01 0.303D-03-0.573D+00 0.152D+01
 Coeff:      0.100D-05 0.841D-04 0.184D-03-0.119D-02-0.450D-02 0.133D-01
 Coeff:      0.483D-01 0.303D-03-0.573D+00 0.152D+01
 Gap=     0.522 Goal=   None    Shift=    0.000
 RMSDP=1.71D-07 MaxDP=4.14D-06 DE=-7.08D-09 OVMax= 2.69D-05

 Cycle  11  Pass 1  IDiag  1:
 E= -2902.87886328480     Delta-E=       -0.000000000713 Rises=F Damp=F
 DIIS: error= 1.68D-07 at cycle  11 NSaved=  11.
 NSaved=11 IEnMin=11 EnMin= -2902.87886328480     IErMin=11 ErrMin= 1.68D-07
 ErrMax= 1.68D-07  0.00D+00 EMaxC= 1.00D-01 BMatC= 7.20D-12 BMatP= 1.58D-10
 IDIUse=1 WtCom= 1.00D+00 WtEn= 0.00D+00
 Coeff-Com: -0.134D-05-0.736D-05 0.402D-04 0.579D-03-0.261D-03-0.714D-02
 Coeff-Com:  0.131D-02 0.324D-01 0.459D-01-0.396D+00 0.132D+01
 Coeff:     -0.134D-05-0.736D-05 0.402D-04 0.579D-03-0.261D-03-0.714D-02
 Coeff:      0.131D-02 0.324D-01 0.459D-01-0.396D+00 0.132D+01
 Gap=     0.522 Goal=   None    Shift=    0.000
 RMSDP=2.80D-08 MaxDP=5.59D-07 DE=-7.13D-10 OVMax= 3.58D-06

 Cycle  12  Pass 1  IDiag  1:
 E= -2902.87886328483     Delta-E=       -0.000000000029 Rises=F Damp=F
 DIIS: error= 3.84D-08 at cycle  12 NSaved=  12.
 NSaved=12 IEnMin=12 EnMin= -2902.87886328483     IErMin=12 ErrMin= 3.84D-08
 ErrMax= 3.84D-08  0.00D+00 EMaxC= 1.00D-01 BMatC= 4.18D-13 BMatP= 7.20D-12
 IDIUse=1 WtCom= 1.00D+00 WtEn= 0.00D+00
 Coeff-Com: -0.716D-07-0.665D-05-0.158D-04 0.115D-03 0.349D-03-0.147D-02
 Coeff-Com: -0.312D-02 0.284D-02 0.350D-01-0.104D+00-0.155D-01 0.109D+01
 Coeff:     -0.716D-07-0.665D-05-0.158D-04 0.115D-03 0.349D-03-0.147D-02
 Coeff:     -0.312D-02 0.284D-02 0.350D-01-0.104D+00-0.155D-01 0.109D+01
 Gap=     0.522 Goal=   None    Shift=    0.000
 RMSDP=5.50D-09 MaxDP=1.22D-07 DE=-2.86D-11 OVMax= 5.93D-07

 SCF Done:  E(RHF) =  -2902.87886328     A.U. after   12 cycles
            NFock= 12  Conv=0.55D-08     -V/T= 2.0001
 KE= 2.902638416805D+03 PE=-7.239536865944D+03 EE= 1.284370537798D+03
 Leave Link  502 at Mon Mar 30 22:42:50 2020, MaxMem=  2147483648 cpu:              26.3 elap:               3.4
 (Enter /usr/local/g16/g16/l801.exe)
 Windowed orbitals will be sorted by symmetry type.
 ExpMin= 2.53D-02 ExpMax= 1.17D+07 ExpMxC= 1.33D+04 IAcc=3 IRadAn=         5 AccDes= 0.00D+00
 HarFok:  IExCor=  205 AccDes= 0.00D+00 IRadAn=         5 IDoV=-2 UseB2=F ITyADJ=14
 ICtDFT= 12500011 ScaDFX=  1.000000  1.000000  1.000000  1.000000
 DSYEVD-2 returned Info=          89 IAlg= 4 N=    59 NDim=    59 NE2=    36395833 trying  DSYEV.
 Largest valence mixing into a core orbital is  1.17D-04
 Largest core mixing into a valence orbital is  3.82D-05
 Range of M.O.s used for correlation:    12   197
 NBasis=   197 NAE=    27 NBE=    27 NFC=    11 NFV=     0
 NROrb=    186 NOA=    16 NOB=    16 NVA=   170 NVB=   170

 **** Warning!!: The largest alpha MO coefficient is  0.14765906D+02

 Leave Link  801 at Mon Mar 30 22:42:50 2020, MaxMem=  2147483648 cpu:               0.6 elap:               0.0
 (Enter /usr/local/g16/g16/l804.exe)
 Closed-shell transformation, MDV=  2147483648 ITran=4 ISComp=1.
 Unit  1 TFree=       1248993 TCopy=        808885.
 Semi-Direct transformation.
 ModeAB=           2 MOrb=            16 LenV=    2146361094
 LASXX=     48528660 LTotXX=    48528660 LenRXX=    48528660
 LTotAB=    49298776 MaxLAS=    78372960 LenRXY=    78372960
 NonZer=    97057320 LenScr=   146313216 LnRSAI=           0
 LnScr1=           0 LExtra=           0 Total=    273214836
 MaxDsk=          -1 SrtSym=           F ITran=            4
 DoSDTr:  NPSUse= 16
 JobTyp=0 Pass  1:  I=   1 to  16.
 (rs|ai) integrals will be sorted in core.
 Complete sort for first half transformation.
 First half transformation complete.
 Begin second half transformation for I=  10.
 Begin second half transformation for I=  10.
 Complete sort for second half transformation.
 Second half transformation complete.
 SymMOI:  orbitals are not symmetric.
 Spin components of T(2) and E(2):
     alpha-alpha T2 =       0.2605790562D-01 E2=     -0.1001247649D+00
     alpha-beta  T2 =       0.1422218570D+00 E2=     -0.5571792998D+00
     beta-beta   T2 =       0.2605790562D-01 E2=     -0.1001247649D+00
 ANorm=    0.1092857570D+01
 E2 =    -0.7574288295D+00 EUMP2 =    -0.29036362921143D+04
 Leave Link  804 at Mon Mar 30 22:43:01 2020, MaxMem=  2147483648 cpu:             174.9 elap:              10.9
 (Enter /usr/local/g16/g16/l913.exe)
 CIDS:  MDV=  2147483648.
 Frozen-core window:  NFC=  11 NFV=   0.
 IFCWin=0 IBDFC=1 NFBD=     0     0 NFCmp=     0     0 NFFFC=     0     0
 Using DD3R+UMP44R for 1st iteration.
 Using DD4RQ for 2nd and later iterations.
 Keep R2 and R3 ints in memory in canonical form, NReq=393337718.
 FoFCou: FMM=F IPFlag=           0 FMFlag=           0 FMFlg1=           0
         NFxFlg=           0 DoJE=F BraDBF=F KetDBF=F FulRan=T
         wScrn=  0.000000 ICntrl=       600 IOpCl=  0 I1Cent=           0 NGrid=           0
         NMat0=    1 NMatS0=  19503 NMatT0=    0 NMatD0=    1 NMtDS0=    0 NMtDT0=    0
 Symmetry not used in FoFCou.
 Two-electron integral symmetry not used.
 CIDS: In Core Option IDoMem=           1.
 MP4(SDTQ)
 =========
 Produce multiple copies of IABC intergrals
 DD1Dir will call FoFMem   1 times, MxPair=       272
 NAB=   136 NAA=     0 NBB=     0.
 MP4(D)= -0.14974935D-01
 MP4(S)= -0.65239959D-02
 MP4(R+Q)=  0.15488859D-01
 T4(AAA)= -0.10533548D-02
 T4(AAB)= -0.14259197D-01
 Time for triples=     1747.48 seconds.
 MP4(T)=   -0.30625104D-01
 E3=       -0.11145250D-01        EUMP3=      -0.29036474374D+04
 E4(DQ)=    0.51392441D-03        UMP4(DQ)=   -0.29036469234D+04
 E4(SDQ)=  -0.60100714D-02        UMP4(SDQ)=  -0.29036534474D+04
 E4(SDTQ)= -0.36635175D-01        UMP4(SDTQ)= -0.29036840725D+04
 VARIATIONAL ENERGIES WITH THE FIRST-ORDER WAVEFUNCTION:
 E(VAR1)=  -0.29035223782D+04     E(CISD,4)=  -0.29035217393D+04
 Largest amplitude= 2.03D-02
 Discarding MO integrals.
 Leave Link  913 at Mon Mar 30 22:44:58 2020, MaxMem=  2147483648 cpu:            1865.4 elap:             116.8
 (Enter /usr/local/g16/g16/l601.exe)
 Copying SCF densities to generalized density rwf, IOpCl= 0 IROHF=0.

 **********************************************************************

            Population analysis using the SCF density.

 **********************************************************************

 Orbital symmetries:
       Occupied  (A) (A) (A) (A) (A) (A) (A) (A) (A) (A) (A) (A)
                 (A) (A) (A) (A) (A) (A) (A) (A) (A) (A) (A) (A)
                 (A) (A) (A)
       Virtual   (A) (A) (A) (A) (A) (A) (A) (A) (A) (A) (A) (A)
                 (A) (A) (A) (A) (A) (A) (A) (A) (A) (A) (A) (A)
                 (A) (A) (A) (A) (A) (A) (A) (A) (A) (A) (A) (A)
                 (A) (A) (A) (A) (A) (A) (A) (A) (A) (A) (A) (A)
                 (A) (A) (A) (A) (A) (A) (A) (A) (A) (A) (A) (A)
                 (A) (A) (A) (A) (A) (A) (A) (A) (A) (A) (A) (A)
                 (A) (A) (A) (A) (A) (A) (A) (A) (A) (A) (A) (A)
                 (A) (A) (A) (A) (A) (A) (A) (A) (A) (A) (A) (A)
                 (A) (A) (A) (A) (A) (A) (A) (A) (A) (A) (A) (A)
                 (A) (A) (A) (A) (A) (A) (A) (A) (A) (A) (A) (A)
                 (A) (A) (A) (A) (A) (A) (A) (A) (A) (A) (A) (A)
                 (A) (A) (A) (A) (A) (A) (A) (A) (A) (A) (A) (A)
                 (A) (A) (A) (A) (A) (A) (A) (A) (A) (A) (A) (A)
                 (A) (A) (A) (A) (A) (A) (A) (A) (A) (A) (A) (A)
                 (A) (A)
 The electronic state is 1-A.
 Alpha  occ. eigenvalues -- -520.18234 -69.91990 -63.02648 -63.02646 -63.02642
 Alpha  occ. eigenvalues --  -20.63102 -20.62813 -10.86656  -8.34876  -8.34856
 Alpha  occ. eigenvalues --   -8.34838  -3.84257  -3.84253  -3.84230  -3.84209
 Alpha  occ. eigenvalues --   -3.84205  -1.46827  -1.21792  -1.17266  -0.74717
 Alpha  occ. eigenvalues --   -0.68206  -0.60273  -0.54835  -0.54190  -0.53620
 Alpha  occ. eigenvalues --   -0.50955  -0.48731
 Alpha virt. eigenvalues --    0.03447   0.04532   0.08768   0.09775   0.11644
 Alpha virt. eigenvalues --    0.12698   0.14420   0.15677   0.17929   0.18838
 Alpha virt. eigenvalues --    0.19087   0.21162   0.22791   0.25791   0.26773
 Alpha virt. eigenvalues --    0.27851   0.28241   0.31094   0.33541   0.34648
 Alpha virt. eigenvalues --    0.35818   0.37589   0.39430   0.41612   0.42004
 Alpha virt. eigenvalues --    0.43972   0.46614   0.51411   0.56932   0.58937
 Alpha virt. eigenvalues --    0.59758   0.65663   0.66175   0.69032   0.73376
 Alpha virt. eigenvalues --    0.76808   0.77387   0.78881   0.81330   0.82085
 Alpha virt. eigenvalues --    0.82541   0.83919   0.86203   0.87259   0.88903
 Alpha virt. eigenvalues --    0.89949   0.91651   0.93840   0.95139   0.97541
 Alpha virt. eigenvalues --    0.98386   0.99409   1.01364   1.01876   1.04710
 Alpha virt. eigenvalues --    1.05387   1.10552   1.14129   1.15516   1.16197
 Alpha virt. eigenvalues --    1.17604   1.22704   1.23609   1.30542   1.32249
 Alpha virt. eigenvalues --    1.33060   1.37234   1.45148   1.46983   1.50005
 Alpha virt. eigenvalues --    1.51959   1.57247   1.59986   1.63717   1.69377
 Alpha virt. eigenvalues --    1.79228   1.83713   1.96146   2.06794   2.09743
 Alpha virt. eigenvalues --    2.14285   2.17403   2.20117   2.26195   2.33025
 Alpha virt. eigenvalues --    2.34117   2.36739   2.38592   2.41543   2.42988
 Alpha virt. eigenvalues --    2.44512   2.46177   2.48149   2.52225   2.53025
 Alpha virt. eigenvalues --    2.55909   2.57746   2.63395   2.65274   2.67025
 Alpha virt. eigenvalues --    2.68581   2.69349   2.69744   2.74681   2.77396
 Alpha virt. eigenvalues --    2.78739   2.79497   2.82726   2.86887   2.90096
 Alpha virt. eigenvalues --    2.91902   2.93179   2.95246   3.03191   3.07775
 Alpha virt. eigenvalues --    3.13742   3.23422   3.30566   3.32046   3.83323
 Alpha virt. eigenvalues --    3.88244   4.10947   4.20275   4.26734   4.31233
 Alpha virt. eigenvalues --    4.35189   4.40870   4.42399   4.48482   4.51780
 Alpha virt. eigenvalues --    4.54121   4.76349   4.81421   4.85611   4.96151
 Alpha virt. eigenvalues --    5.17999   5.22336   5.24246   5.42430   5.43458
 Alpha virt. eigenvalues --    5.47946   5.79894   6.18343   6.37453   6.47807
 Alpha virt. eigenvalues --    6.55341   6.59465   6.65078   6.78585   6.83615
 Alpha virt. eigenvalues --    6.96319   7.16587   7.17262   7.19948   7.22374
 Alpha virt. eigenvalues --    7.25026   7.29086   7.33005   7.33832   7.38730
 Alpha virt. eigenvalues --    7.47498   7.52153   7.61346   7.84789   7.97680
 Alpha virt. eigenvalues --    8.20003   8.51001   8.53707  14.74243  15.32890
          Condensed to atoms (all electrons):
               1          2          3          4          5
     1  O    8.126719  -0.077653   0.241570  -0.008155  -0.020429
     2  O   -0.077653   8.148269   0.004378   0.239135  -0.015165
     3  H    0.241570   0.004378   0.491353  -0.000400  -0.003024
     4  H   -0.008155   0.239135  -0.000400   0.490763  -0.003877
     5  Kr  -0.020429  -0.015165  -0.003024  -0.003877  36.030134
 Mulliken charges:
               1
     1  O   -0.262052
     2  O   -0.298965
     3  H    0.266123
     4  H    0.282533
     5  Kr   0.012360
 Sum of Mulliken charges =  -0.00000
 Mulliken charges with hydrogens summed into heavy atoms:
               1
     1  O    0.004071
     2  O   -0.016431
     5  Kr   0.012360
         Mulliken charges condensed to fragments:
      1     -0.012360
      2      0.012360
 Electronic spatial extent (au):  <R**2>=            482.6619
 Charge=             -0.0000 electrons
 Dipole moment (field-independent basis, Debye):
    X=             -2.1128    Y=             -0.3577    Z=              1.5225  Tot=              2.6286
 Quadrupole moment (field-independent basis, Debye-Ang):
   XX=            -36.0877   YY=            -27.8193   ZZ=            -28.8695
   XY=             -1.9652   XZ=              3.0165   YZ=             -1.9023
 Traceless Quadrupole moment (field-independent basis, Debye-Ang):
   XX=             -5.1621   YY=              3.1062   ZZ=              2.0560
   XY=             -1.9652   XZ=              3.0165   YZ=             -1.9023
 Octapole moment (field-independent basis, Debye-Ang**2):
  XXX=            -37.1028  YYY=             -1.0033  ZZZ=              1.2467  XYY=             -5.3024
  XXY=             -5.8430  XXZ=              5.2632  XZZ=             -5.1050  YZZ=             -1.8398
  YYZ=              2.3755  XYZ=             -3.7130
 Hexadecapole moment (field-independent basis, Debye-Ang**3):
 XXXX=           -455.8868 YYYY=            -62.0810 ZZZZ=            -28.8545 XXXY=            -11.6959
 XXXZ=             10.6305 YYYX=             -3.7036 YYYZ=             -2.8198 ZZZX=              2.8709
 ZZZY=             -2.0667 XXYY=            -81.5182 XXZZ=            -71.3621 YYZZ=            -15.4790
 XXYZ=             -7.3905 YYXZ=              4.5050 ZZXY=             -3.3770
 N-N= 1.496490480560D+02 E-N=-7.239536867415D+03  KE= 2.902638416805D+03
 Leave Link  601 at Mon Mar 30 22:44:58 2020, MaxMem=  2147483648 cpu:               0.4 elap:               0.0
 (Enter /usr/local/g16/g16/l122.exe)
 CPIOFr:  IOpCl= 0 IRwI=-1 IRwCP=  731 ICalc= -1 LCPTot=       59414 Len1MO=      159453 IndFrg=       59414
 CPIOFr:  IOpCl= 0 IRwI=-1 IRwCP=  731 ICalc=  0 LCPTot=       59414 Len1MO=      159453 IndFrg=      218867
 Counterpoise: doing calculation for fragment   1 using the basis set of the full-system, NewBq=T
 Leave Link  122 at Mon Mar 30 22:44:58 2020, MaxMem=  2147483648 cpu:               0.0 elap:               0.0
 (Enter /usr/local/g16/g16/l301.exe)
 Basis read from rwf:  (5D, 7F)
 No pseudopotential information found on rwf file.
 There are   229 symmetry adapted cartesian basis functions of A   symmetry.
 There are   197 symmetry adapted basis functions of A   symmetry.
   197 basis functions,   415 primitive gaussians,   229 cartesian basis functions
     9 alpha electrons        9 beta electrons
       nuclear repulsion energy        36.6321548219 Hartrees.
 IExCor=    0 DFT=F Ex=HF Corr=None ExCW=0 ScaHFX=  1.000000
 ScaDFX=  1.000000  1.000000  1.000000  1.000000 ScalE2=  1.000000  1.000000
 IRadAn=      5 IRanWt=     -1 IRanGd=            0 ICorTp=0 IEmpDi=  4
 NAtoms=    5 NActive=    5 NUniq=    5 SFac= 1.00D+00 NAtFMM=   60 NAOKFM=F Big=F
 Integral buffers will be    131072 words long.
 Raffenetti 1 integral format.
 Two-electron integral symmetry is turned on.
 No density basis found on file   718.
 Leave Link  301 at Mon Mar 30 22:44:58 2020, MaxMem=  2147483648 cpu:               0.4 elap:               0.0
 (Enter /usr/local/g16/g16/l302.exe)
 NPDir=0 NMtPBC=     1 NCelOv=     1 NCel=       1 NClECP=     1 NCelD=      1
         NCelK=      1 NCelE2=     1 NClLst=     1 CellRange=     0.0.
 One-electron integrals computed using PRISM.
 One-electron integral symmetry used in STVInt
 NBasis=   197 RedAO= T EigKep=  2.09D-04  NBF=   197
 NBsUse=   197 1.00D-06 EigRej= -1.00D+00 NBFU=   197
 Leave Link  302 at Mon Mar 30 22:44:59 2020, MaxMem=  2147483648 cpu:               1.7 elap:               0.1
 (Enter /usr/local/g16/g16/l303.exe)
 DipDrv:  MaxL=1.
 Leave Link  303 at Mon Mar 30 22:44:59 2020, MaxMem=  2147483648 cpu:               0.4 elap:               0.0
 (Enter /usr/local/g16/g16/l401.exe)
 ExpMin= 2.53D-02 ExpMax= 1.17D+07 ExpMxC= 1.33D+04 IAcc=3 IRadAn=         5 AccDes= 0.00D+00
 Harris functional with IExCor=  205 and IRadAn=       5 diagonalized for initial guess.
 HarFok:  IExCor=  205 AccDes= 0.00D+00 IRadAn=         5 IDoV= 1 UseB2=F ITyADJ=14
 ICtDFT=  3500011 ScaDFX=  1.000000  1.000000  1.000000  1.000000
 FoFCou: FMM=F IPFlag=           0 FMFlag=      100000 FMFlg1=           0
         NFxFlg=           0 DoJE=T BraDBF=F KetDBF=T FulRan=T
         wScrn=  0.000000 ICntrl=       500 IOpCl=  0 I1Cent=   200000004 NGrid=           0
         NMat0=    1 NMatS0=      1 NMatT0=    0 NMatD0=    1 NMtDS0=    0 NMtDT0=    0
 Petite list used in FoFCou.
 Harris En= -150.936188367176    
 JPrj=0 DoOrth=F DoCkMO=F.
 Leave Link  401 at Mon Mar 30 22:44:59 2020, MaxMem=  2147483648 cpu:               3.0 elap:               0.2
 (Enter /usr/local/g16/g16/l502.exe)
 Keep R1 ints in memory in canonical form, NReq=203136233.
 FoFCou: FMM=F IPFlag=           0 FMFlag=           0 FMFlg1=           0
         NFxFlg=           0 DoJE=F BraDBF=F KetDBF=F FulRan=T
         wScrn=  0.000000 ICntrl=       600 IOpCl=  0 I1Cent=           0 NGrid=           0
         NMat0=    1 NMatS0=  19503 NMatT0=    0 NMatD0=    1 NMtDS0=    0 NMtDT0=    0
 Symmetry not used in FoFCou.
 Two-electron integral symmetry not used.
 Closed shell SCF:
 Using DIIS extrapolation, IDIIS=  1040.
 NGot=  2147483648 LenX=  1957179903 LenY=  1957127021
 Requested convergence on RMS density matrix=1.00D-08 within 128 cycles.
 Requested convergence on MAX density matrix=1.00D-06.
 Requested convergence on             energy=1.00D-06.
 No special actions if energy rises.

 Cycle   1  Pass 1  IDiag  1:
 E= -150.772472639041    
 DIIS: error= 2.68D-02 at cycle   1 NSaved=   1.
 NSaved= 1 IEnMin= 1 EnMin= -150.772472639041     IErMin= 1 ErrMin= 2.68D-02
 ErrMax= 2.68D-02  0.00D+00 EMaxC= 1.00D-01 BMatC= 2.28D-01 BMatP= 2.28D-01
 IDIUse=3 WtCom= 7.32D-01 WtEn= 2.68D-01
 Coeff-Com:  0.100D+01
 Coeff-En:   0.100D+01
 Coeff:      0.100D+01
 Gap=     0.719 Goal=   None    Shift=    0.000
 GapD=    0.719 DampG=2.000 DampE=0.500 DampFc=1.0000 IDamp=-1.
 RMSDP=9.08D-04 MaxDP=2.89D-02              OVMax= 6.48D-02

 Cycle   2  Pass 1  IDiag  1:
 E= -150.825683087113     Delta-E=       -0.053210448072 Rises=F Damp=F
 DIIS: error= 7.34D-03 at cycle   2 NSaved=   2.
 NSaved= 2 IEnMin= 2 EnMin= -150.825683087113     IErMin= 2 ErrMin= 7.34D-03
 ErrMax= 7.34D-03  0.00D+00 EMaxC= 1.00D-01 BMatC= 1.63D-02 BMatP= 2.28D-01
 IDIUse=3 WtCom= 9.27D-01 WtEn= 7.34D-02
 Coeff-Com:  0.107D+00 0.893D+00
 Coeff-En:   0.000D+00 0.100D+01
 Coeff:      0.992D-01 0.901D+00
 Gap=     0.545 Goal=   None    Shift=    0.000
 RMSDP=5.00D-04 MaxDP=2.54D-02 DE=-5.32D-02 OVMax= 2.88D-02

 Cycle   3  Pass 1  IDiag  1:
 E= -150.833914582226     Delta-E=       -0.008231495113 Rises=F Damp=F
 DIIS: error= 2.53D-03 at cycle   3 NSaved=   3.
 NSaved= 3 IEnMin= 3 EnMin= -150.833914582226     IErMin= 3 ErrMin= 2.53D-03
 ErrMax= 2.53D-03  0.00D+00 EMaxC= 1.00D-01 BMatC= 2.34D-03 BMatP= 1.63D-02
 IDIUse=3 WtCom= 9.75D-01 WtEn= 2.53D-02
 Coeff-Com: -0.210D-01 0.254D+00 0.767D+00
 Coeff-En:   0.000D+00 0.000D+00 0.100D+01
 Coeff:     -0.204D-01 0.247D+00 0.773D+00
 Gap=     0.516 Goal=   None    Shift=    0.000
 RMSDP=1.13D-04 MaxDP=4.12D-03 DE=-8.23D-03 OVMax= 9.23D-03

 Cycle   4  Pass 1  IDiag  1:
 E= -150.835378355423     Delta-E=       -0.001463773197 Rises=F Damp=F
 DIIS: error= 2.12D-04 at cycle   4 NSaved=   4.
 NSaved= 4 IEnMin= 4 EnMin= -150.835378355423     IErMin= 4 ErrMin= 2.12D-04
 ErrMax= 2.12D-04  0.00D+00 EMaxC= 1.00D-01 BMatC= 1.49D-05 BMatP= 2.34D-03
 IDIUse=3 WtCom= 9.98D-01 WtEn= 2.12D-03
 Coeff-Com: -0.179D-02-0.105D-01 0.669D-02 0.101D+01
 Coeff-En:   0.000D+00 0.000D+00 0.000D+00 0.100D+01
 Coeff:     -0.178D-02-0.105D-01 0.668D-02 0.101D+01
 Gap=     0.517 Goal=   None    Shift=    0.000
 RMSDP=1.66D-05 MaxDP=4.08D-04 DE=-1.46D-03 OVMax= 1.41D-03

 Cycle   5  Pass 1  IDiag  1:
 E= -150.835400463172     Delta-E=       -0.000022107749 Rises=F Damp=F
 DIIS: error= 7.62D-05 at cycle   5 NSaved=   5.
 NSaved= 5 IEnMin= 5 EnMin= -150.835400463172     IErMin= 5 ErrMin= 7.62D-05
 ErrMax= 7.62D-05  0.00D+00 EMaxC= 1.00D-01 BMatC= 1.57D-06 BMatP= 1.49D-05
 IDIUse=1 WtCom= 1.00D+00 WtEn= 0.00D+00
 Coeff-Com:  0.172D-02-0.169D-01-0.581D-01-0.167D+00 0.124D+01
 Coeff:      0.172D-02-0.169D-01-0.581D-01-0.167D+00 0.124D+01
 Gap=     0.518 Goal=   None    Shift=    0.000
 RMSDP=9.42D-06 MaxDP=2.76D-04 DE=-2.21D-05 OVMax= 9.20D-04

 Cycle   6  Pass 1  IDiag  1:
 E= -150.835404485586     Delta-E=       -0.000004022414 Rises=F Damp=F
 DIIS: error= 2.07D-05 at cycle   6 NSaved=   6.
 NSaved= 6 IEnMin= 6 EnMin= -150.835404485586     IErMin= 6 ErrMin= 2.07D-05
 ErrMax= 2.07D-05  0.00D+00 EMaxC= 1.00D-01 BMatC= 9.61D-08 BMatP= 1.57D-06
 IDIUse=1 WtCom= 1.00D+00 WtEn= 0.00D+00
 Coeff-Com: -0.519D-03 0.626D-02 0.221D-01 0.325D-01-0.524D+00 0.146D+01
 Coeff:     -0.519D-03 0.626D-02 0.221D-01 0.325D-01-0.524D+00 0.146D+01
 Gap=     0.518 Goal=   None    Shift=    0.000
 RMSDP=3.33D-06 MaxDP=8.59D-05 DE=-4.02D-06 OVMax= 4.01D-04

 Cycle   7  Pass 1  IDiag  1:
 E= -150.835404830825     Delta-E=       -0.000000345240 Rises=F Damp=F
 DIIS: error= 4.50D-06 at cycle   7 NSaved=   7.
 NSaved= 7 IEnMin= 7 EnMin= -150.835404830825     IErMin= 7 ErrMin= 4.50D-06
 ErrMax= 4.50D-06  0.00D+00 EMaxC= 1.00D-01 BMatC= 7.67D-09 BMatP= 9.61D-08
 IDIUse=1 WtCom= 1.00D+00 WtEn= 0.00D+00
 Coeff-Com:  0.135D-03-0.187D-02-0.720D-02-0.531D-02 0.169D+00-0.644D+00
 Coeff-Com:  0.149D+01
 Coeff:      0.135D-03-0.187D-02-0.720D-02-0.531D-02 0.169D+00-0.644D+00
 Coeff:      0.149D+01
 Gap=     0.518 Goal=   None    Shift=    0.000
 RMSDP=9.63D-07 MaxDP=2.16D-05 DE=-3.45D-07 OVMax= 1.42D-04

 Cycle   8  Pass 1  IDiag  1:
 E= -150.835404863322     Delta-E=       -0.000000032497 Rises=F Damp=F
 DIIS: error= 1.68D-06 at cycle   8 NSaved=   8.
 NSaved= 8 IEnMin= 8 EnMin= -150.835404863322     IErMin= 8 ErrMin= 1.68D-06
 ErrMax= 1.68D-06  0.00D+00 EMaxC= 1.00D-01 BMatC= 1.11D-09 BMatP= 7.67D-09
 IDIUse=1 WtCom= 1.00D+00 WtEn= 0.00D+00
 Coeff-Com: -0.110D-05 0.169D-03 0.103D-02-0.285D-02-0.182D-01 0.155D+00
 Coeff-Com: -0.828D+00 0.169D+01
 Coeff:     -0.110D-05 0.169D-03 0.103D-02-0.285D-02-0.182D-01 0.155D+00
 Coeff:     -0.828D+00 0.169D+01
 Gap=     0.518 Goal=   None    Shift=    0.000
 RMSDP=4.43D-07 MaxDP=1.14D-05 DE=-3.25D-08 OVMax= 7.35D-05

 Cycle   9  Pass 1  IDiag  1:
 E= -150.835404868591     Delta-E=       -0.000000005269 Rises=F Damp=F
 DIIS: error= 5.41D-07 at cycle   9 NSaved=   9.
 NSaved= 9 IEnMin= 9 EnMin= -150.835404868591     IErMin= 9 ErrMin= 5.41D-07
 ErrMax= 5.41D-07  0.00D+00 EMaxC= 1.00D-01 BMatC= 1.04D-10 BMatP= 1.11D-09
 IDIUse=1 WtCom= 1.00D+00 WtEn= 0.00D+00
 Coeff-Com: -0.105D-04 0.174D-03 0.740D-03 0.218D-03-0.177D-01 0.815D-01
 Coeff-Com: -0.272D+00 0.327D+00 0.880D+00
 Coeff:     -0.105D-04 0.174D-03 0.740D-03 0.218D-03-0.177D-01 0.815D-01
 Coeff:     -0.272D+00 0.327D+00 0.880D+00
 Gap=     0.518 Goal=   None    Shift=    0.000
 RMSDP=7.05D-08 MaxDP=2.18D-06 DE=-5.27D-09 OVMax= 1.05D-05

 Cycle  10  Pass 1  IDiag  1:
 E= -150.835404868797     Delta-E=       -0.000000000205 Rises=F Damp=F
 DIIS: error= 2.63D-07 at cycle  10 NSaved=  10.
 NSaved=10 IEnMin=10 EnMin= -150.835404868797     IErMin=10 ErrMin= 2.63D-07
 ErrMax= 2.63D-07  0.00D+00 EMaxC= 1.00D-01 BMatC= 2.26D-11 BMatP= 1.04D-10
 IDIUse=1 WtCom= 1.00D+00 WtEn= 0.00D+00
 Coeff-Com: -0.254D-05-0.858D-06-0.907D-04 0.111D-02-0.677D-03-0.186D-01
 Coeff-Com:  0.151D+00-0.369D+00 0.204D+00 0.103D+01
 Coeff:     -0.254D-05-0.858D-06-0.907D-04 0.111D-02-0.677D-03-0.186D-01
 Coeff:      0.151D+00-0.369D+00 0.204D+00 0.103D+01
 Gap=     0.518 Goal=   None    Shift=    0.000
 RMSDP=3.71D-08 MaxDP=1.10D-06 DE=-2.05D-10 OVMax= 5.06D-06

 Cycle  11  Pass 1  IDiag  1:
 E= -150.835404868839     Delta-E=       -0.000000000043 Rises=F Damp=F
 DIIS: error= 4.13D-08 at cycle  11 NSaved=  11.
 NSaved=11 IEnMin=11 EnMin= -150.835404868839     IErMin=11 ErrMin= 4.13D-08
 ErrMax= 4.13D-08  0.00D+00 EMaxC= 1.00D-01 BMatC= 4.91D-13 BMatP= 2.26D-11
 IDIUse=1 WtCom= 1.00D+00 WtEn= 0.00D+00
 Coeff-Com:  0.116D-05-0.138D-04-0.425D-04-0.839D-04 0.111D-02-0.261D-02
 Coeff-Com: -0.388D-02 0.295D-01-0.799D-01-0.123D+00 0.118D+01
 Coeff:      0.116D-05-0.138D-04-0.425D-04-0.839D-04 0.111D-02-0.261D-02
 Coeff:     -0.388D-02 0.295D-01-0.799D-01-0.123D+00 0.118D+01
 Gap=     0.518 Goal=   None    Shift=    0.000
 RMSDP=6.19D-09 MaxDP=1.36D-07 DE=-4.27D-11 OVMax= 6.92D-07

 SCF Done:  E(RHF) =  -150.835404869     A.U. after   11 cycles
            NFock= 11  Conv=0.62D-08     -V/T= 2.0021
 KE= 1.505252245307D+02 PE=-4.314668979811D+02 EE= 9.347411375964D+01
 Leave Link  502 at Mon Mar 30 22:45:02 2020, MaxMem=  2147483648 cpu:              26.0 elap:               3.3
 (Enter /usr/local/g16/g16/l801.exe)
 Windowed orbitals will be sorted by symmetry type.
 ExpMin= 2.53D-02 ExpMax= 1.17D+07 ExpMxC= 1.33D+04 IAcc=3 IRadAn=         5 AccDes= 0.00D+00
 HarFok:  IExCor=  205 AccDes= 0.00D+00 IRadAn=         5 IDoV=-2 UseB2=F ITyADJ=14
 ICtDFT= 12500011 ScaDFX=  1.000000  1.000000  1.000000  1.000000
 Largest valence mixing into a core orbital is  1.19D-04
 Largest core mixing into a valence orbital is  2.06D-05
 Range of M.O.s used for correlation:     3   197
 NBasis=   197 NAE=     9 NBE=     9 NFC=     2 NFV=     0
 NROrb=    195 NOA=     7 NOB=     7 NVA=   188 NVB=   188

 **** Warning!!: The largest alpha MO coefficient is  0.14600299D+02

 Leave Link  801 at Mon Mar 30 22:45:02 2020, MaxMem=  2147483648 cpu:               0.6 elap:               0.0
 (Enter /usr/local/g16/g16/l804.exe)
 Closed-shell transformation, MDV=  2147483648 ITran=4 ISComp=1.
 Semi-Direct transformation.
 ModeAB=           2 MOrb=             7 LenV=    2146281111
 LASXX=     25261509 LTotXX=    25261509 LenRXX=    25261509
 LTotAB=    25646992 MaxLAS=    35947275 LenRXY=    35947275
 NonZer=    50523018 LenScr=    76544000 LnRSAI=           0
 LnScr1=           0 LExtra=           0 Total=    137752784
 MaxDsk=          -1 SrtSym=           F ITran=            4
 DoSDTr:  NPSUse= 16
 JobTyp=0 Pass  1:  I=   1 to   7.
 (rs|ai) integrals will be sorted in core.
 Complete sort for first half transformation.
 First half transformation complete.
 Complete sort for second half transformation.
 Second half transformation complete.
 SymMOI:  orbitals are not symmetric.
 Spin components of T(2) and E(2):
     alpha-alpha T2 =       0.1603854747D-01 E2=     -0.6286751146D-01
     alpha-beta  T2 =       0.9335538631D-01 E2=     -0.3822128726D+00
     beta-beta   T2 =       0.1603854747D-01 E2=     -0.6286751146D-01
 ANorm=    0.1060864026D+01
 E2 =    -0.5079478955D+00 EUMP2 =    -0.15134335276438D+03
 Leave Link  804 at Mon Mar 30 22:45:10 2020, MaxMem=  2147483648 cpu:             119.1 elap:               7.4
 (Enter /usr/local/g16/g16/l913.exe)
 CIDS:  MDV=  2147483648.
 Frozen-core window:  NFC=   2 NFV=   0.
 IFCWin=0 IBDFC=1 NFBD=     0     0 NFCmp=     0     0 NFFFC=     0     0
 Using DD3R+UMP44R for 1st iteration.
 Using DD4RQ for 2nd and later iterations.
 Keep R2 and R3 ints in memory in canonical form, NReq=393334910.
 FoFCou: FMM=F IPFlag=           0 FMFlag=           0 FMFlg1=           0
         NFxFlg=           0 DoJE=F BraDBF=F KetDBF=F FulRan=T
         wScrn=  0.000000 ICntrl=       600 IOpCl=  0 I1Cent=           0 NGrid=           0
         NMat0=    1 NMatS0=  19503 NMatT0=    0 NMatD0=    1 NMtDS0=    0 NMtDT0=    0
 Symmetry not used in FoFCou.
 Two-electron integral symmetry not used.
 CIDS: In Core Option IDoMem=           1.
 MP4(SDTQ)
 =========
 Produce multiple copies of IABC intergrals
 DD1Dir will call FoFMem   1 times, MxPair=        56
 NAB=    28 NAA=     0 NBB=     0.
 MP4(D)= -0.11278003D-01
 MP4(S)= -0.52260051D-02
 MP4(R+Q)=  0.10792168D-01
 T4(AAA)= -0.66222917D-03
 T4(AAB)= -0.10295459D-01
 Time for triples=      370.15 seconds.
 MP4(T)=   -0.21915377D-01
 E3=       -0.20257068D-02        EUMP3=      -0.15134537847D+03
 E4(DQ)=   -0.48583540D-03        UMP4(DQ)=   -0.15134586431D+03
 E4(SDQ)=  -0.57118405D-02        UMP4(SDQ)=  -0.15135109031D+03
 E4(SDTQ)= -0.27627217D-01        UMP4(SDTQ)= -0.15137300569D+03
 VARIATIONAL ENERGIES WITH THE FIRST-ORDER WAVEFUNCTION:
 E(VAR1)=  -0.15128854054D+03     E(CISD,4)=  -0.15129816931D+03
 Largest amplitude= 2.90D-02
 Discarding MO integrals.
 Leave Link  913 at Mon Mar 30 22:45:36 2020, MaxMem=  2147483648 cpu:             427.3 elap:              26.7
 (Enter /usr/local/g16/g16/l601.exe)
 Copying SCF densities to generalized density rwf, IOpCl= 0 IROHF=0.

 **********************************************************************

            Population analysis using the SCF density.

 **********************************************************************

 Orbital symmetries:
       Occupied  (A) (A) (A) (A) (A) (A) (A) (A) (A)
       Virtual   (A) (A) (A) (A) (A) (A) (A) (A) (A) (A) (A) (A)
                 (A) (A) (A) (A) (A) (A) (A) (A) (A) (A) (A) (A)
                 (A) (A) (A) (A) (A) (A) (A) (A) (A) (A) (A) (A)
                 (A) (A) (A) (A) (A) (A) (A) (A) (A) (A) (A) (A)
                 (A) (A) (A) (A) (A) (A) (A) (A) (A) (A) (A) (A)
                 (A) (A) (A) (A) (A) (A) (A) (A) (A) (A) (A) (A)
                 (A) (A) (A) (A) (A) (A) (A) (A) (A) (A) (A) (A)
                 (A) (A) (A) (A) (A) (A) (A) (A) (A) (A) (A) (A)
                 (A) (A) (A) (A) (A) (A) (A) (A) (A) (A) (A) (A)
                 (A) (A) (A) (A) (A) (A) (A) (A) (A) (A) (A) (A)
                 (A) (A) (A) (A) (A) (A) (A) (A) (A) (A) (A) (A)
                 (A) (A) (A) (A) (A) (A) (A) (A) (A) (A) (A) (A)
                 (A) (A) (A) (A) (A) (A) (A) (A) (A) (A) (A) (A)
                 (A) (A) (A) (A) (A) (A) (A) (A) (A) (A) (A) (A)
                 (A) (A) (A) (A) (A) (A) (A) (A) (A) (A) (A) (A)
                 (A) (A) (A) (A) (A) (A) (A) (A)
 The electronic state is 1-A.
 Alpha  occ. eigenvalues --  -20.63431 -20.63403  -1.47056  -1.22007  -0.74698
 Alpha  occ. eigenvalues --   -0.68046  -0.60320  -0.51554  -0.49156
 Alpha virt. eigenvalues --    0.02628   0.04043   0.07226   0.08336   0.10338
 Alpha virt. eigenvalues --    0.11017   0.13271   0.14930   0.17694   0.18105
 Alpha virt. eigenvalues --    0.19066   0.20986   0.23064   0.26761   0.27052
 Alpha virt. eigenvalues --    0.28049   0.31253   0.31665   0.33940   0.34545
 Alpha virt. eigenvalues --    0.34812   0.37114   0.37777   0.41381   0.42541
 Alpha virt. eigenvalues --    0.44315   0.45113   0.48367   0.49508   0.51052
 Alpha virt. eigenvalues --    0.55159   0.58915   0.65307   0.66655   0.70024
 Alpha virt. eigenvalues --    0.74975   0.79221   0.80856   0.81394   0.84012
 Alpha virt. eigenvalues --    0.85054   0.86002   0.91970   0.93018   0.95344
 Alpha virt. eigenvalues --    0.96273   0.97563   0.98224   1.00611   1.01873
 Alpha virt. eigenvalues --    1.02623   1.04380   1.08044   1.13554   1.14236
 Alpha virt. eigenvalues --    1.17475   1.18114   1.23525   1.25818   1.28028
 Alpha virt. eigenvalues --    1.28498   1.30631   1.31195   1.33379   1.34304
 Alpha virt. eigenvalues --    1.35892   1.36171   1.40185   1.42999   1.45726
 Alpha virt. eigenvalues --    1.49182   1.54572   1.55381   1.56458   1.60077
 Alpha virt. eigenvalues --    1.65415   1.69981   1.72063   1.80141   1.87167
 Alpha virt. eigenvalues --    1.89824   1.97386   2.08215   2.11100   2.16049
 Alpha virt. eigenvalues --    2.17932   2.21512   2.30454   2.35044   2.36782
 Alpha virt. eigenvalues --    2.42385   2.43768   2.48325   2.51005   2.52726
 Alpha virt. eigenvalues --    2.64330   2.67479   2.71569   2.75673   2.79432
 Alpha virt. eigenvalues --    2.81302   2.87802   2.94684   3.05985   3.12024
 Alpha virt. eigenvalues --    3.20840   3.25634   3.27712   3.29238   3.32224
 Alpha virt. eigenvalues --    3.44315   3.57305   3.75687   3.77803   3.78970
 Alpha virt. eigenvalues --    3.81259   3.82014   3.82303   3.83774   3.87598
 Alpha virt. eigenvalues --    3.91216   3.92724   3.98292   4.00220   4.02325
 Alpha virt. eigenvalues --    4.12120   4.18245   4.24683   4.29482   4.35601
 Alpha virt. eigenvalues --    4.36108   4.43236   4.48509   4.51616   4.52657
 Alpha virt. eigenvalues --    4.56466   4.76933   4.85933   4.95402   5.17734
 Alpha virt. eigenvalues --    5.22429   5.24229   5.42307   5.43580   5.47993
 Alpha virt. eigenvalues --    5.79519   6.18056   6.36681   6.47645   6.55123
 Alpha virt. eigenvalues --    6.59246   6.64852   6.78362   6.83467   6.96056
 Alpha virt. eigenvalues --    7.16359   7.16912   7.19452   7.22069   7.24759
 Alpha virt. eigenvalues --    7.28730   7.32703   7.33526   7.38353   7.47157
 Alpha virt. eigenvalues --    7.51842   7.60924   7.84441   7.97390   8.19634
 Alpha virt. eigenvalues --    8.50633   8.52575  10.89155  14.72977  14.82982
 Alpha virt. eigenvalues --   14.87833  15.08673  15.33640  29.02612  29.02785
 Alpha virt. eigenvalues --   29.07446  29.13137  29.22634  49.09681 148.31232
 Alpha virt. eigenvalues --  148.38478 148.70559 752.49317
          Condensed to atoms (all electrons):
               1          2          3          4          5
     1  O    8.097769  -0.075343   0.243271  -0.007550   0.000314
     2  O   -0.075343   8.130406   0.003857   0.233643  -0.001657
     3  H    0.243271   0.003857   0.492513   0.000099  -0.001291
     4  H   -0.007550   0.233643   0.000099   0.493829  -0.003199
     5  Kr   0.000314  -0.001657  -0.001291  -0.003199   0.001191
 Mulliken charges:
               1
     1  O   -0.258462
     2  O   -0.290907
     3  H    0.261550
     4  H    0.283178
     5  Kr   0.004641
 Sum of Mulliken charges =  -0.00000
 Mulliken charges with hydrogens summed into heavy atoms:
               1
     1  O    0.003088
     2  O   -0.007729
     5  Kr   0.004641
         Mulliken charges condensed to fragments:
      1     -0.004641
      2      0.004641
 Electronic spatial extent (au):  <R**2>=            319.6844
 Charge=             -0.0000 electrons
 Dipole moment (field-independent basis, Debye):
    X=             -1.9158    Y=             -0.1698    Z=              1.6519  Tot=              2.5353
 Quadrupole moment (field-independent basis, Debye-Ang):
   XX=            -18.3156   YY=            -10.1387   ZZ=            -11.2394
   XY=             -2.0958   XZ=              2.9213   YZ=             -1.9231
 Traceless Quadrupole moment (field-independent basis, Debye-Ang):
   XX=             -5.0844   YY=              3.0925   ZZ=              1.9918
   XY=             -2.0958   XZ=              2.9213   YZ=             -1.9231
 Octapole moment (field-independent basis, Debye-Ang**2):
  XXX=            -87.7900  YYY=             -1.2151  ZZZ=              1.3898  XYY=            -22.4723
  XXY=             -5.7445  XXZ=              5.3711  XZZ=            -22.3372  YZZ=             -1.9116
  YYZ=              2.4248  XYZ=             -3.7185
 Hexadecapole moment (field-independent basis, Debye-Ang**3):
 XXXX=           -333.9928 YYYY=            -43.7884 ZZZZ=            -10.6187 XXXY=            -11.4460
 XXXZ=             10.4370 YYYX=             -3.5667 YYYZ=             -2.8573 ZZZX=              2.7911
 ZZZY=             -2.1025 XXYY=            -58.2197 XXZZ=            -48.2662 YYZZ=             -9.3814
 XXYZ=             -7.4047 YYXZ=              4.4672 ZZXY=             -3.3005
 N-N= 3.663215482195D+01 E-N=-4.314668970647D+02  KE= 1.505252245307D+02
 Leave Link  601 at Mon Mar 30 22:45:37 2020, MaxMem=  2147483648 cpu:               0.5 elap:               0.0
 (Enter /usr/local/g16/g16/l122.exe)
 CPIOFr:  IOpCl= 0 IRwI=-1 IRwCP=  731 ICalc=  1 LCPTot=       59414 Len1MO=      159453 IndFrg=      378320
 Counterpoise: doing calculation for fragment   2 using the basis set of the full-system, NewBq=T
 Leave Link  122 at Mon Mar 30 22:45:37 2020, MaxMem=  2147483648 cpu:               0.0 elap:               0.0
 (Enter /usr/local/g16/g16/l301.exe)
 Basis read from rwf:  (5D, 7F)
 No pseudopotential information found on rwf file.
 There are   229 symmetry adapted cartesian basis functions of A   symmetry.
 There are   197 symmetry adapted basis functions of A   symmetry.
   197 basis functions,   415 primitive gaussians,   229 cartesian basis functions
    18 alpha electrons       18 beta electrons
       nuclear repulsion energy         0.0000000000 Hartrees.
 IExCor=    0 DFT=F Ex=HF Corr=None ExCW=0 ScaHFX=  1.000000
 ScaDFX=  1.000000  1.000000  1.000000  1.000000 ScalE2=  1.000000  1.000000
 IRadAn=      5 IRanWt=     -1 IRanGd=            0 ICorTp=0 IEmpDi=  4
 NAtoms=    5 NActive=    5 NUniq=    5 SFac= 1.00D+00 NAtFMM=   60 NAOKFM=F Big=F
 Integral buffers will be    131072 words long.
 Raffenetti 1 integral format.
 Two-electron integral symmetry is turned on.
 No density basis found on file   718.
 Leave Link  301 at Mon Mar 30 22:45:37 2020, MaxMem=  2147483648 cpu:               0.3 elap:               0.0
 (Enter /usr/local/g16/g16/l302.exe)
 NPDir=0 NMtPBC=     1 NCelOv=     1 NCel=       1 NClECP=     1 NCelD=      1
         NCelK=      1 NCelE2=     1 NClLst=     1 CellRange=     0.0.
 One-electron integrals computed using PRISM.
 One-electron integral symmetry used in STVInt
 NBasis=   197 RedAO= T EigKep=  2.09D-04  NBF=   197
 NBsUse=   197 1.00D-06 EigRej= -1.00D+00 NBFU=   197
 Leave Link  302 at Mon Mar 30 22:45:37 2020, MaxMem=  2147483648 cpu:               1.7 elap:               0.1
 (Enter /usr/local/g16/g16/l303.exe)
 DipDrv:  MaxL=1.
 Leave Link  303 at Mon Mar 30 22:45:37 2020, MaxMem=  2147483648 cpu:               0.4 elap:               0.0
 (Enter /usr/local/g16/g16/l401.exe)
 ExpMin= 2.53D-02 ExpMax= 1.17D+07 ExpMxC= 1.33D+04 IAcc=3 IRadAn=         5 AccDes= 0.00D+00
 Harris functional with IExCor=  205 and IRadAn=       5 diagonalized for initial guess.
 HarFok:  IExCor=  205 AccDes= 0.00D+00 IRadAn=         5 IDoV= 1 UseB2=F ITyADJ=14
 ICtDFT=  3500011 ScaDFX=  1.000000  1.000000  1.000000  1.000000
 FoFCou: FMM=F IPFlag=           0 FMFlag=      100000 FMFlg1=           0
         NFxFlg=           0 DoJE=T BraDBF=F KetDBF=T FulRan=T
         wScrn=  0.000000 ICntrl=       500 IOpCl=  0 I1Cent=   200000004 NGrid=           0
         NMat0=    1 NMatS0=      1 NMatT0=    0 NMatD0=    1 NMtDS0=    0 NMtDT0=    0
 Petite list used in FoFCou.
 Harris En= -2751.06003012020    
 JPrj=0 DoOrth=F DoCkMO=F.
 Leave Link  401 at Mon Mar 30 22:45:37 2020, MaxMem=  2147483648 cpu:               3.0 elap:               0.2
 (Enter /usr/local/g16/g16/l502.exe)
 Keep R1 ints in memory in canonical form, NReq=203136233.
 FoFCou: FMM=F IPFlag=           0 FMFlag=           0 FMFlg1=           0
         NFxFlg=           0 DoJE=F BraDBF=F KetDBF=F FulRan=T
         wScrn=  0.000000 ICntrl=       600 IOpCl=  0 I1Cent=           0 NGrid=           0
         NMat0=    1 NMatS0=  19503 NMatT0=    0 NMatD0=    1 NMtDS0=    0 NMtDT0=    0
 Symmetry not used in FoFCou.
 Two-electron integral symmetry not used.
 Closed shell SCF:
 Using DIIS extrapolation, IDIIS=  1040.
 NGot=  2147483648 LenX=  1957179903 LenY=  1957127021
 Requested convergence on RMS density matrix=1.00D-08 within 128 cycles.
 Requested convergence on MAX density matrix=1.00D-06.
 Requested convergence on             energy=1.00D-06.
 No special actions if energy rises.

 Cycle   1  Pass 1  IDiag  1:
 E= -2752.00363334516    
 DIIS: error= 3.86D-02 at cycle   1 NSaved=   1.
 NSaved= 1 IEnMin= 1 EnMin= -2752.00363334516     IErMin= 1 ErrMin= 3.86D-02
 ErrMax= 3.86D-02  0.00D+00 EMaxC= 1.00D-01 BMatC= 4.28D-01 BMatP= 4.28D-01
 IDIUse=3 WtCom= 6.14D-01 WtEn= 3.86D-01
 Coeff-Com:  0.100D+01
 Coeff-En:   0.100D+01
 Coeff:      0.100D+01
 Gap=     0.631 Goal=   None    Shift=    0.000
 GapD=    0.631 DampG=2.000 DampE=0.500 DampFc=1.0000 IDamp=-1.
 RMSDP=1.73D-03 MaxDP=1.29D-01              OVMax= 2.38D-02

 Cycle   2  Pass 1  IDiag  1:
 E= -2752.04698423590     Delta-E=       -0.043350890744 Rises=F Damp=F
 DIIS: error= 5.74D-03 at cycle   2 NSaved=   2.
 NSaved= 2 IEnMin= 2 EnMin= -2752.04698423590     IErMin= 2 ErrMin= 5.74D-03
 ErrMax= 5.74D-03  0.00D+00 EMaxC= 1.00D-01 BMatC= 1.97D-02 BMatP= 4.28D-01
 IDIUse=3 WtCom= 9.43D-01 WtEn= 5.74D-02
 Coeff-Com:  0.152D+00 0.848D+00
 Coeff-En:   0.000D+00 0.100D+01
 Coeff:      0.143D+00 0.857D+00
 Gap=     0.545 Goal=   None    Shift=    0.000
 RMSDP=5.58D-04 MaxDP=3.47D-02 DE=-4.34D-02 OVMax= 1.31D-02

 Cycle   3  Pass 1  IDiag  1:
 E= -2752.05206132166     Delta-E=       -0.005077085763 Rises=F Damp=F
 DIIS: error= 1.08D-03 at cycle   3 NSaved=   3.
 NSaved= 3 IEnMin= 3 EnMin= -2752.05206132166     IErMin= 3 ErrMin= 1.08D-03
 ErrMax= 1.08D-03  0.00D+00 EMaxC= 1.00D-01 BMatC= 6.88D-04 BMatP= 1.97D-02
 IDIUse=3 WtCom= 9.89D-01 WtEn= 1.08D-02
 Coeff-Com: -0.128D-02 0.153D+00 0.848D+00
 Coeff-En:   0.000D+00 0.000D+00 0.100D+01
 Coeff:     -0.126D-02 0.151D+00 0.850D+00
 Gap=     0.555 Goal=   None    Shift=    0.000
 RMSDP=7.29D-05 MaxDP=4.27D-03 DE=-5.08D-03 OVMax= 2.85D-03

 Cycle   4  Pass 1  IDiag  1:
 E= -2752.05226619247     Delta-E=       -0.000204870805 Rises=F Damp=F
 DIIS: error= 3.98D-05 at cycle   4 NSaved=   4.
 NSaved= 4 IEnMin= 4 EnMin= -2752.05226619247     IErMin= 4 ErrMin= 3.98D-05
 ErrMax= 3.98D-05  0.00D+00 EMaxC= 1.00D-01 BMatC= 6.86D-07 BMatP= 6.88D-04
 IDIUse=1 WtCom= 1.00D+00 WtEn= 0.00D+00
 Coeff-Com: -0.365D-03-0.174D-01-0.600D-01 0.108D+01
 Coeff:     -0.365D-03-0.174D-01-0.600D-01 0.108D+01
 Gap=     0.555 Goal=   None    Shift=    0.000
 RMSDP=5.94D-06 MaxDP=2.85D-04 DE=-2.05D-04 OVMax= 2.69D-04

 Cycle   5  Pass 1  IDiag  1:
 E= -2752.05226661561     Delta-E=       -0.000000423138 Rises=F Damp=F
 DIIS: error= 3.21D-06 at cycle   5 NSaved=   5.
 NSaved= 5 IEnMin= 5 EnMin= -2752.05226661561     IErMin= 5 ErrMin= 3.21D-06
 ErrMax= 3.21D-06  0.00D+00 EMaxC= 1.00D-01 BMatC= 6.02D-09 BMatP= 6.86D-07
 IDIUse=1 WtCom= 1.00D+00 WtEn= 0.00D+00
 Coeff-Com:  0.614D-04 0.207D-04-0.513D-02-0.846D-01 0.109D+01
 Coeff:      0.614D-04 0.207D-04-0.513D-02-0.846D-01 0.109D+01
 Gap=     0.555 Goal=   None    Shift=    0.000
 RMSDP=6.59D-07 MaxDP=2.86D-05 DE=-4.23D-07 OVMax= 2.77D-05

 Cycle   6  Pass 1  IDiag  1:
 E= -2752.05226662145     Delta-E=       -0.000000005844 Rises=F Damp=F
 DIIS: error= 2.57D-07 at cycle   6 NSaved=   6.
 NSaved= 6 IEnMin= 6 EnMin= -2752.05226662145     IErMin= 6 ErrMin= 2.57D-07
 ErrMax= 2.57D-07  0.00D+00 EMaxC= 1.00D-01 BMatC= 4.07D-11 BMatP= 6.02D-09
 IDIUse=1 WtCom= 1.00D+00 WtEn= 0.00D+00
 Coeff-Com: -0.302D-05 0.959D-04 0.870D-03-0.184D-02-0.936D-01 0.109D+01
 Coeff:     -0.302D-05 0.959D-04 0.870D-03-0.184D-02-0.936D-01 0.109D+01
 Gap=     0.555 Goal=   None    Shift=    0.000
 RMSDP=6.41D-08 MaxDP=3.79D-06 DE=-5.84D-09 OVMax= 3.31D-06

 Cycle   7  Pass 1  IDiag  1:
 E= -2752.05226662149     Delta-E=       -0.000000000044 Rises=F Damp=F
 DIIS: error= 1.65D-08 at cycle   7 NSaved=   7.
 NSaved= 7 IEnMin= 7 EnMin= -2752.05226662149     IErMin= 7 ErrMin= 1.65D-08
 ErrMax= 1.65D-08  0.00D+00 EMaxC= 1.00D-01 BMatC= 1.39D-13 BMatP= 4.07D-11
 IDIUse=1 WtCom= 1.00D+00 WtEn= 0.00D+00
 Coeff-Com:  0.822D-07-0.443D-05-0.406D-04 0.242D-03 0.370D-02-0.730D-01
 Coeff-Com:  0.107D+01
 Coeff:      0.822D-07-0.443D-05-0.406D-04 0.242D-03 0.370D-02-0.730D-01
 Coeff:      0.107D+01
 Gap=     0.555 Goal=   None    Shift=    0.000
 RMSDP=5.63D-09 MaxDP=2.10D-07 DE=-4.37D-11 OVMax= 2.35D-07

 SCF Done:  E(RHF) =  -2752.05226662     A.U. after    7 cycles
            NFock=  7  Conv=0.56D-08     -V/T= 2.0000
 KE= 2.752039600376D+03 PE=-6.582554560538D+03 EE= 1.078462693540D+03
 Leave Link  502 at Mon Mar 30 22:45:40 2020, MaxMem=  2147483648 cpu:              25.3 elap:               2.7
 (Enter /usr/local/g16/g16/l801.exe)
 Windowed orbitals will be sorted by symmetry type.
 ExpMin= 2.53D-02 ExpMax= 1.17D+07 ExpMxC= 1.33D+04 IAcc=3 IRadAn=         5 AccDes= 0.00D+00
 HarFok:  IExCor=  205 AccDes= 0.00D+00 IRadAn=         5 IDoV=-2 UseB2=F ITyADJ=14
 ICtDFT= 12500011 ScaDFX=  1.000000  1.000000  1.000000  1.000000
 Largest valence mixing into a core orbital is  9.81D-05
 Largest core mixing into a valence orbital is  3.83D-05
 Range of M.O.s used for correlation:    10   197
 NBasis=   197 NAE=    18 NBE=    18 NFC=     9 NFV=     0
 NROrb=    188 NOA=     9 NOB=     9 NVA=   179 NVB=   179

 **** Warning!!: The largest alpha MO coefficient is  0.14486518D+02

 Leave Link  801 at Mon Mar 30 22:45:40 2020, MaxMem=  2147483648 cpu:               0.6 elap:               0.0
 (Enter /usr/local/g16/g16/l804.exe)
 Closed-shell transformation, MDV=  2147483648 ITran=4 ISComp=1.
 Semi-Direct transformation.
 ModeAB=           2 MOrb=             9 LenV=    2146335602
 LASXX=     28892340 LTotXX=    28892340 LenRXX=    28892340
 LTotAB=    29348001 MaxLAS=    44558820 LenRXY=    44558820
 NonZer=    57784680 LenScr=    87449600 LnRSAI=           0
 LnScr1=           0 LExtra=           0 Total=    160900760
 MaxDsk=          -1 SrtSym=           F ITran=            4
 DoSDTr:  NPSUse= 16
 JobTyp=0 Pass  1:  I=   1 to   9.
 (rs|ai) integrals will be sorted in core.
 Complete sort for first half transformation.
 First half transformation complete.
 Complete sort for second half transformation.
 Second half transformation complete.
 SymMOI:  orbitals are not symmetric.
 Spin components of T(2) and E(2):
     alpha-alpha T2 =       0.9503096150D-02 E2=     -0.3580775037D-01
     alpha-beta  T2 =       0.4818083738D-01 E2=     -0.1723393791D+00
     beta-beta   T2 =       0.9503096150D-02 E2=     -0.3580775037D-01
 ANorm=    0.1033047448D+01
 E2 =    -0.2439548798D+00 EUMP2 =    -0.27522962215013D+04
 Leave Link  804 at Mon Mar 30 22:45:48 2020, MaxMem=  2147483648 cpu:             129.0 elap:               8.1
 (Enter /usr/local/g16/g16/l913.exe)
 CIDS:  MDV=  2147483648.
 Frozen-core window:  NFC=   9 NFV=   0.
 IFCWin=0 IBDFC=1 NFBD=     0     0 NFCmp=     0     0 NFFFC=     0     0
 Using DD3R+UMP44R for 1st iteration.
 Using DD4RQ for 2nd and later iterations.
 Keep R2 and R3 ints in memory in canonical form, NReq=393335500.
 FoFCou: FMM=F IPFlag=           0 FMFlag=           0 FMFlg1=           0
         NFxFlg=           0 DoJE=F BraDBF=F KetDBF=F FulRan=T
         wScrn=  0.000000 ICntrl=       600 IOpCl=  0 I1Cent=           0 NGrid=           0
         NMat0=    1 NMatS0=  19503 NMatT0=    0 NMatD0=    1 NMtDS0=    0 NMtDT0=    0
 Symmetry not used in FoFCou.
 Two-electron integral symmetry not used.
 CIDS: In Core Option IDoMem=           1.
 MP4(SDTQ)
 =========
 Produce multiple copies of IABC intergrals
 DD1Dir will call FoFMem   1 times, MxPair=        90
 NAB=    45 NAA=     0 NBB=     0.
 MP4(D)= -0.37209839D-02
 MP4(S)= -0.10896422D-02
 MP4(R+Q)=  0.42476760D-02
 T4(AAA)= -0.32569342D-03
 T4(AAB)= -0.35638436D-02
 Time for triples=      475.24 seconds.
 MP4(T)=   -0.77790740D-02
 E3=       -0.98605841D-02        EUMP3=      -0.27523060821D+04
 E4(DQ)=    0.52669204D-03        UMP4(DQ)=   -0.27523055554D+04
 E4(SDQ)=  -0.56295021D-03        UMP4(SDQ)=  -0.27523066450D+04
 E4(SDTQ)= -0.83420242D-02        UMP4(SDTQ)= -0.27523144241D+04
 VARIATIONAL ENERGIES WITH THE FIRST-ORDER WAVEFUNCTION:
 E(VAR1)=  -0.27522901026D+04     E(CISD,4)=  -0.27522945021D+04
 Largest amplitude= 1.51D-02
 Discarding MO integrals.
 Leave Link  913 at Mon Mar 30 22:46:22 2020, MaxMem=  2147483648 cpu:             540.8 elap:              33.8
 (Enter /usr/local/g16/g16/l601.exe)
 Copying SCF densities to generalized density rwf, IOpCl= 0 IROHF=0.

 **********************************************************************

            Population analysis using the SCF density.

 **********************************************************************

 Orbital symmetries:
       Occupied  (A) (A) (A) (A) (A) (A) (A) (A) (A) (A) (A) (A)
                 (A) (A) (A) (A) (A) (A)
       Virtual   (A) (A) (A) (A) (A) (A) (A) (A) (A) (A) (A) (A)
                 (A) (A) (A) (A) (A) (A) (A) (A) (A) (A) (A) (A)
                 (A) (A) (A) (A) (A) (A) (A) (A) (A) (A) (A) (A)
                 (A) (A) (A) (A) (A) (A) (A) (A) (A) (A) (A) (A)
                 (A) (A) (A) (A) (A) (A) (A) (A) (A) (A) (A) (A)
                 (A) (A) (A) (A) (A) (A) (A) (A) (A) (A) (A) (A)
                 (A) (A) (A) (A) (A) (A) (A) (A) (A) (A) (A) (A)
                 (A) (A) (A) (A) (A) (A) (A) (A) (A) (A) (A) (A)
                 (A) (A) (A) (A) (A) (A) (A) (A) (A) (A) (A) (A)
                 (A) (A) (A) (A) (A) (A) (A) (A) (A) (A) (A) (A)
                 (A) (A) (A) (A) (A) (A) (A) (A) (A) (A) (A) (A)
                 (A) (A) (A) (A) (A) (A) (A) (A) (A) (A) (A) (A)
                 (A) (A) (A) (A) (A) (A) (A) (A) (A) (A) (A) (A)
                 (A) (A) (A) (A) (A) (A) (A) (A) (A) (A) (A) (A)
                 (A) (A) (A) (A) (A) (A) (A) (A) (A) (A) (A)
 The electronic state is 1-A.
 Alpha  occ. eigenvalues -- -520.16580 -69.90314 -63.00972 -63.00972 -63.00972
 Alpha  occ. eigenvalues --  -10.84954  -8.33154  -8.33154  -8.33153  -3.82531
 Alpha  occ. eigenvalues --   -3.82531  -3.82531  -3.82531  -3.82530  -1.15311
 Alpha  occ. eigenvalues --   -0.52431  -0.52429  -0.52428
 Alpha virt. eigenvalues --    0.03054   0.04971   0.08717   0.09267   0.12184
 Alpha virt. eigenvalues --    0.12473   0.13488   0.13824   0.16281   0.17180
 Alpha virt. eigenvalues --    0.17995   0.19837   0.21428   0.27159   0.28130
 Alpha virt. eigenvalues --    0.29378   0.29708   0.31963   0.34798   0.35222
 Alpha virt. eigenvalues --    0.37311   0.38113   0.39942   0.41429   0.42333
 Alpha virt. eigenvalues --    0.42797   0.45268   0.55625   0.57687   0.60137
 Alpha virt. eigenvalues --    0.62089   0.66995   0.69622   0.70215   0.72712
 Alpha virt. eigenvalues --    0.76282   0.78190   0.79262   0.82060   0.83141
 Alpha virt. eigenvalues --    0.83888   0.85600   0.86454   0.88471   0.89411
 Alpha virt. eigenvalues --    0.90346   0.90802   0.92977   0.93974   0.98291
 Alpha virt. eigenvalues --    0.98626   1.00288   1.02262   1.02752   1.04669
 Alpha virt. eigenvalues --    1.08052   1.10457   1.13402   1.16642   1.18038
 Alpha virt. eigenvalues --    1.19913   1.23969   1.27687   1.31401   1.34463
 Alpha virt. eigenvalues --    1.36001   1.40000   1.43544   1.50832   1.51738
 Alpha virt. eigenvalues --    1.56434   1.58696   1.65619   1.74790   1.76158
 Alpha virt. eigenvalues --    1.82425   1.82872   1.89173   1.99543   2.25936
 Alpha virt. eigenvalues --    2.34031   2.34339   2.36963   2.38814   2.40018
 Alpha virt. eigenvalues --    2.41787   2.44152   2.45627   2.48900   2.51691
 Alpha virt. eigenvalues --    2.53574   2.54786   2.56319   2.58139   2.60235
 Alpha virt. eigenvalues --    2.61408   2.63175   2.66249   2.68268   2.71055
 Alpha virt. eigenvalues --    2.71365   2.73366   2.79783   2.80694   2.82041
 Alpha virt. eigenvalues --    2.83754   2.87519   2.89966   2.92626   2.96264
 Alpha virt. eigenvalues --    3.01647   3.05341   3.06406   3.10785   3.20445
 Alpha virt. eigenvalues --    3.21986   3.28955   3.31087   3.39479   3.47276
 Alpha virt. eigenvalues --    3.61513   3.65658   3.82300   3.86821   4.03883
 Alpha virt. eigenvalues --    4.44644   4.46687   4.57541   4.62652   4.68958
 Alpha virt. eigenvalues --    4.74578   4.88679   4.90225   4.97691   5.04408
 Alpha virt. eigenvalues --    5.15828   5.27666   5.60420   5.64412   5.82161
 Alpha virt. eigenvalues --    5.91168   6.01361   6.11358   6.77646   6.84102
 Alpha virt. eigenvalues --    7.38342   7.50245   7.53957   7.62447   7.75973
 Alpha virt. eigenvalues --    7.78736   7.94722   8.15990   8.16754   8.21601
 Alpha virt. eigenvalues --    8.39058   8.51193   8.56285   8.86816   9.64473
 Alpha virt. eigenvalues --    9.76760   9.83535   9.86992   9.93129   9.99384
 Alpha virt. eigenvalues --   10.15406  10.28992  10.42137  10.97005  11.53653
 Alpha virt. eigenvalues --   11.63940  11.82204  12.06253  12.09348  13.20180
 Alpha virt. eigenvalues --   13.68918  14.51489  62.84570  64.69544
          Condensed to atoms (all electrons):
               1          2          3          4          5
     1  O    0.000482  -0.000654  -0.000223   0.000337  -0.000686
     2  O   -0.000654   0.001921   0.000224  -0.001232  -0.002977
     3  H   -0.000223   0.000224   0.000163  -0.000096  -0.001297
     4  H    0.000337  -0.001232  -0.000096   0.001080  -0.007466
     5  Kr  -0.000686  -0.002977  -0.001297  -0.007466  36.024491
 Mulliken charges:
               1
     1  O    0.000744
     2  O    0.002717
     3  H    0.001229
     4  H    0.007376
     5  Kr  -0.012065
 Sum of Mulliken charges =  -0.00000
 Mulliken charges with hydrogens summed into heavy atoms:
               1
     1  O    0.001973
     2  O    0.010092
     5  Kr  -0.012065
         Mulliken charges condensed to fragments:
      1      0.012065
      2     -0.012065
 Electronic spatial extent (au):  <R**2>=            163.0617
 Charge=             -0.0000 electrons
 Dipole moment (field-independent basis, Debye):
    X=              0.0008    Y=              0.0005    Z=              0.0001  Tot=              0.0010
 Quadrupole moment (field-independent basis, Debye-Ang):
   XX=            -17.7267   YY=            -17.7326   ZZ=            -17.7368
   XY=              0.0017   XZ=              0.0009   YZ=             -0.0003
 Traceless Quadrupole moment (field-independent basis, Debye-Ang):
   XX=              0.0053   YY=             -0.0006   ZZ=             -0.0047
   XY=              0.0017   XZ=              0.0009   YZ=             -0.0003
 Octapole moment (field-independent basis, Debye-Ang**2):
  XXX=             52.1241  YYY=              0.4357  ZZZ=              0.0828  XYY=             17.3817
  XXY=              0.1403  XXZ=              0.0258  XZZ=             17.3848  YZZ=              0.1454
  YYZ=              0.0279  XYZ=             -0.0000
 Hexadecapole moment (field-independent basis, Debye-Ang**3):
 XXXX=           -120.7015 YYYY=            -18.5462 ZZZZ=            -18.5558 XXXY=             -0.4167
 XXXZ=             -0.0773 YYYX=             -0.4190 YYYZ=             -0.0006 ZZZX=             -0.0790
 ZZZY=             -0.0005 XXYY=            -23.2140 XXZZ=            -23.2172 YYZZ=             -6.1830
 XXYZ=             -0.0007 YYXZ=             -0.0263 ZZXY=             -0.1394
 N-N= 0.000000000000D+00 E-N=-6.582554562105D+03  KE= 2.752039600376D+03
 Leave Link  601 at Mon Mar 30 22:46:22 2020, MaxMem=  2147483648 cpu:               0.5 elap:               0.0
 (Enter /usr/local/g16/g16/l122.exe)
 CPIOFr:  IOpCl= 0 IRwI=-1 IRwCP=  731 ICalc=  2 LCPTot=       59414 Len1MO=      159453 IndFrg=      537773
 Counterpoise: doing calculation for fragment   1 using the basis set of the fragment.
 Leave Link  122 at Mon Mar 30 22:46:22 2020, MaxMem=  2147483648 cpu:               0.0 elap:               0.0
 (Enter /usr/local/g16/g16/l301.exe)
 Basis read from rwf:  (5D, 7F)
 No pseudopotential information found on rwf file.
 There are   160 symmetry adapted cartesian basis functions of A   symmetry.
 There are   138 symmetry adapted basis functions of A   symmetry.
   138 basis functions,   198 primitive gaussians,   160 cartesian basis functions
     9 alpha electrons        9 beta electrons
       nuclear repulsion energy        36.6321548219 Hartrees.
 IExCor=    0 DFT=F Ex=HF Corr=None ExCW=0 ScaHFX=  1.000000
 ScaDFX=  1.000000  1.000000  1.000000  1.000000 ScalE2=  1.000000  1.000000
 IRadAn=      5 IRanWt=     -1 IRanGd=            0 ICorTp=0 IEmpDi=  4
 NAtoms=    5 NActive=    4 NUniq=    4 SFac= 1.00D+00 NAtFMM=   60 NAOKFM=F Big=F
 Integral buffers will be    131072 words long.
 Raffenetti 1 integral format.
 Two-electron integral symmetry is turned on.
 No density basis found on file   718.
 Leave Link  301 at Mon Mar 30 22:46:22 2020, MaxMem=  2147483648 cpu:               0.4 elap:               0.0
 (Enter /usr/local/g16/g16/l302.exe)
 NPDir=0 NMtPBC=     1 NCelOv=     1 NCel=       1 NClECP=     1 NCelD=      1
         NCelK=      1 NCelE2=     1 NClLst=     1 CellRange=     0.0.
 One-electron integrals computed using PRISM.
 One-electron integral symmetry used in STVInt
 NBasis=   138 RedAO= T EigKep=  2.55D-04  NBF=   138
 NBsUse=   138 1.00D-06 EigRej= -1.00D+00 NBFU=   138
 Leave Link  302 at Mon Mar 30 22:46:22 2020, MaxMem=  2147483648 cpu:               1.4 elap:               0.1
 (Enter /usr/local/g16/g16/l303.exe)
 DipDrv:  MaxL=1.
 Leave Link  303 at Mon Mar 30 22:46:22 2020, MaxMem=  2147483648 cpu:               0.3 elap:               0.0
 (Enter /usr/local/g16/g16/l401.exe)
 ExpMin= 2.53D-02 ExpMax= 1.53D+04 ExpMxC= 5.22D+02 IAcc=3 IRadAn=         5 AccDes= 0.00D+00
 Harris functional with IExCor=  205 and IRadAn=       5 diagonalized for initial guess.
 HarFok:  IExCor=  205 AccDes= 0.00D+00 IRadAn=         5 IDoV= 1 UseB2=F ITyADJ=14
 ICtDFT=  3500011 ScaDFX=  1.000000  1.000000  1.000000  1.000000
 FoFCou: FMM=F IPFlag=           0 FMFlag=      100000 FMFlg1=           0
         NFxFlg=           0 DoJE=T BraDBF=F KetDBF=T FulRan=T
         wScrn=  0.000000 ICntrl=       500 IOpCl=  0 I1Cent=   200000004 NGrid=           0
         NMat0=    1 NMatS0=      1 NMatT0=    0 NMatD0=    1 NMtDS0=    0 NMtDT0=    0
 Petite list used in FoFCou.
 Harris En= -150.936088812201    
 JPrj=0 DoOrth=F DoCkMO=F.
 Leave Link  401 at Mon Mar 30 22:46:22 2020, MaxMem=  2147483648 cpu:               2.2 elap:               0.1
 (Enter /usr/local/g16/g16/l502.exe)
 Keep R1 ints in memory in canonical form, NReq=53860811.
 FoFCou: FMM=F IPFlag=           0 FMFlag=           0 FMFlg1=           0
         NFxFlg=           0 DoJE=F BraDBF=F KetDBF=F FulRan=T
         wScrn=  0.000000 ICntrl=       600 IOpCl=  0 I1Cent=           0 NGrid=           0
         NMat0=    1 NMatS0=   9591 NMatT0=    0 NMatD0=    1 NMtDS0=    0 NMtDT0=    0
 Symmetry not used in FoFCou.
 Two-electron integral symmetry not used.
 Closed shell SCF:
 Using DIIS extrapolation, IDIIS=  1040.
 NGot=  2147483648 LenX=  2101430001 LenY=  2101403960
 Requested convergence on RMS density matrix=1.00D-08 within 128 cycles.
 Requested convergence on MAX density matrix=1.00D-06.
 Requested convergence on             energy=1.00D-06.
 No special actions if energy rises.

 Cycle   1  Pass 1  IDiag  1:
 E= -150.772413734062    
 DIIS: error= 3.32D-02 at cycle   1 NSaved=   1.
 NSaved= 1 IEnMin= 1 EnMin= -150.772413734062     IErMin= 1 ErrMin= 3.32D-02
 ErrMax= 3.32D-02  0.00D+00 EMaxC= 1.00D-01 BMatC= 2.28D-01 BMatP= 2.28D-01
 IDIUse=3 WtCom= 6.68D-01 WtEn= 3.32D-01
 Coeff-Com:  0.100D+01
 Coeff-En:   0.100D+01
 Coeff:      0.100D+01
 Gap=     0.719 Goal=   None    Shift=    0.000
 GapD=    0.719 DampG=2.000 DampE=0.500 DampFc=1.0000 IDamp=-1.
 RMSDP=1.29D-03 MaxDP=2.86D-02              OVMax= 6.47D-02

 Cycle   2  Pass 1  IDiag  1:
 E= -150.825607117555     Delta-E=       -0.053193383493 Rises=F Damp=F
 DIIS: error= 9.29D-03 at cycle   2 NSaved=   2.
 NSaved= 2 IEnMin= 2 EnMin= -150.825607117555     IErMin= 2 ErrMin= 9.29D-03
 ErrMax= 9.29D-03  0.00D+00 EMaxC= 1.00D-01 BMatC= 1.63D-02 BMatP= 2.28D-01
 IDIUse=3 WtCom= 9.07D-01 WtEn= 9.29D-02
 Coeff-Com:  0.107D+00 0.893D+00
 Coeff-En:   0.000D+00 0.100D+01
 Coeff:      0.974D-01 0.903D+00
 Gap=     0.549 Goal=   None    Shift=    0.000
 RMSDP=7.03D-04 MaxDP=2.50D-02 DE=-5.32D-02 OVMax= 2.89D-02

 Cycle   3  Pass 1  IDiag  1:
 E= -150.833817066611     Delta-E=       -0.008209949056 Rises=F Damp=F
 DIIS: error= 3.81D-03 at cycle   3 NSaved=   3.
 NSaved= 3 IEnMin= 3 EnMin= -150.833817066611     IErMin= 3 ErrMin= 3.81D-03
 ErrMax= 3.81D-03  0.00D+00 EMaxC= 1.00D-01 BMatC= 2.37D-03 BMatP= 1.63D-02
 IDIUse=3 WtCom= 9.62D-01 WtEn= 3.81D-02
 Coeff-Com: -0.210D-01 0.255D+00 0.766D+00
 Coeff-En:   0.000D+00 0.000D+00 0.100D+01
 Coeff:     -0.202D-01 0.246D+00 0.775D+00
 Gap=     0.520 Goal=   None    Shift=    0.000
 RMSDP=1.61D-04 MaxDP=4.10D-03 DE=-8.21D-03 OVMax= 9.33D-03

 Cycle   4  Pass 1  IDiag  1:
 E= -150.835298762318     Delta-E=       -0.001481695707 Rises=F Damp=F
 DIIS: error= 4.36D-04 at cycle   4 NSaved=   4.
 NSaved= 4 IEnMin= 4 EnMin= -150.835298762318     IErMin= 4 ErrMin= 4.36D-04
 ErrMax= 4.36D-04  0.00D+00 EMaxC= 1.00D-01 BMatC= 1.59D-05 BMatP= 2.37D-03
 IDIUse=3 WtCom= 9.96D-01 WtEn= 4.36D-03
 Coeff-Com: -0.179D-02-0.113D-01 0.115D-01 0.100D+01
 Coeff-En:   0.000D+00 0.000D+00 0.000D+00 0.100D+01
 Coeff:     -0.179D-02-0.112D-01 0.115D-01 0.100D+01
 Gap=     0.521 Goal=   None    Shift=    0.000
 RMSDP=2.34D-05 MaxDP=4.15D-04 DE=-1.48D-03 OVMax= 1.43D-03

 Cycle   5  Pass 1  IDiag  1:
 E= -150.835321381604     Delta-E=       -0.000022619285 Rises=F Damp=F
 DIIS: error= 1.32D-04 at cycle   5 NSaved=   5.
 NSaved= 5 IEnMin= 5 EnMin= -150.835321381604     IErMin= 5 ErrMin= 1.32D-04
 ErrMax= 1.32D-04  0.00D+00 EMaxC= 1.00D-01 BMatC= 1.57D-06 BMatP= 1.59D-05
 IDIUse=3 WtCom= 9.99D-01 WtEn= 1.32D-03
 Coeff-Com:  0.172D-02-0.168D-01-0.588D-01-0.167D+00 0.124D+01
 Coeff-En:   0.000D+00 0.000D+00 0.000D+00 0.000D+00 0.100D+01
 Coeff:      0.172D-02-0.168D-01-0.587D-01-0.167D+00 0.124D+01
 Gap=     0.522 Goal=   None    Shift=    0.000
 RMSDP=1.34D-05 MaxDP=2.54D-04 DE=-2.26D-05 OVMax= 9.19D-04

 Cycle   6  Pass 1  IDiag  1:
[...]
 Symmetry not used in FoFCou.
 Two-electron integral symmetry not used.
 Closed shell SCF:
 Using DIIS extrapolation, IDIIS=  1040.
 NGot=  2147483648 LenX=  2101430001 LenY=  2101403960
 Requested convergence on RMS density matrix=1.00D-08 within 128 cycles.
 Requested convergence on MAX density matrix=1.00D-06.
 Requested convergence on             energy=1.00D-06.
 No special actions if energy rises.

 Cycle   1  Pass 1  IDiag  1:
 E= -150.835325782058    
 DIIS: error= 8.38D-11 at cycle   1 NSaved=   1.
 NSaved= 1 IEnMin= 1 EnMin= -150.835325782058     IErMin= 1 ErrMin= 8.38D-11
 ErrMax= 8.38D-11  0.00D+00 EMaxC= 1.00D-01 BMatC= 1.13D-18 BMatP= 1.13D-18
 IDIUse=1 WtCom= 1.00D+00 WtEn= 0.00D+00
 Coeff-Com:  0.100D+01
 Coeff:      0.100D+01
 Gap=     0.898 Goal=   None    Shift=    0.000
 RMSDP=6.12D-12 MaxDP=1.82D-10              OVMax= 4.05D-10

 SCF Done:  E(RHF) =  -150.835325782     A.U. after    1 cycles
            NFock=  1  Conv=0.61D-11     -V/T= 2.0021
 KE= 1.505255473990D+02 PE=-4.314660306273D+02 EE= 9.347300262426D+01
 Leave Link  502 at Tue Mar 31 00:02:08 2020, MaxMem=  2147483648 cpu:               7.8 elap:               0.5
 (Enter /usr/local/g16/g16/l801.exe)
 Windowed orbitals will be sorted by symmetry type.
 ExpMin= 2.53D-02 ExpMax= 1.53D+04 ExpMxC= 5.22D+02 IAcc=3 IRadAn=         5 AccDes= 0.00D+00
 HarFok:  IExCor=  205 AccDes= 0.00D+00 IRadAn=         5 IDoV=-2 UseB2=F ITyADJ=14
 ICtDFT= 12500011 ScaDFX=  1.000000  1.000000  1.000000  1.000000
 Largest valence mixing into a core orbital is  1.19D-04
 Largest core mixing into a valence orbital is  2.06D-05
 Range of M.O.s used for correlation:     3   138
 NBasis=   138 NAE=     9 NBE=     9 NFC=     2 NFV=     0
 NROrb=    136 NOA=     7 NOB=     7 NVA=   129 NVB=   129

 **** Warning!!: The largest alpha MO coefficient is  0.15603928D+02

 Leave Link  801 at Tue Mar 31 00:02:08 2020, MaxMem=  2147483648 cpu:               0.5 elap:               0.0
 (Enter /usr/local/g16/g16/l804.exe)
 Closed-shell transformation, MDV=  2147483648 ITran=4 ISComp=1.
 Semi-Direct transformation.
 ModeAB=           2 MOrb=             7 LenV=    2146849405
 LASXX=      8463147 LTotXX=     8463147 LenRXX=     8463147
 LTotAB=     8647912 MaxLAS=    12261760 LenRXY=    12261760
 NonZer=    16926294 LenScr=    26146816 LnRSAI=           0
 LnScr1=           0 LExtra=           0 Total=     46871723
 MaxDsk=          -1 SrtSym=           F ITran=            4
 DoSDTr:  NPSUse= 16
 JobTyp=0 Pass  1:  I=   1 to   7.
 (rs|ai) integrals will be sorted in core.
 Complete sort for first half transformation.
 First half transformation complete.
 Complete sort for second half transformation.
 Second half transformation complete.
 SymMOI:  orbitals are not symmetric.
 Spin components of T(2) and E(2):
     alpha-alpha T2 =       0.1603797961D-01 E2=     -0.6286020206D-01
     alpha-beta  T2 =       0.9334854410D-01 E2=     -0.3820338604D+00
     beta-beta   T2 =       0.1603797961D-01 E2=     -0.6286020206D-01
 ANorm=    0.1060860266D+01
 E2 =    -0.5077542645D+00 EUMP2 =    -0.15134308004660D+03
 Leave Link  804 at Tue Mar 31 00:02:10 2020, MaxMem=  2147483648 cpu:              28.1 elap:               1.8
 (Enter /usr/local/g16/g16/l913.exe)
 CIDS:  MDV=  2147483648.
 Frozen-core window:  NFC=   2 NFV=   0.
 IFCWin=0 IBDFC=1 NFBD=     0     0 NFCmp=     0     0 NFFFC=     0     0
 Using DD3R+UMP44R for 1st iteration.
 Using DD4RQ for 2nd and later iterations.
 Keep R2 and R3 ints in memory in canonical form, NReq=99863705.
 FoFCou: FMM=F IPFlag=           0 FMFlag=           0 FMFlg1=           0
         NFxFlg=           0 DoJE=F BraDBF=F KetDBF=F FulRan=T
         wScrn=  0.000000 ICntrl=       600 IOpCl=  0 I1Cent=           0 NGrid=           0
         NMat0=    1 NMatS0=   9591 NMatT0=    0 NMatD0=    1 NMtDS0=    0 NMtDT0=    0
 Symmetry not used in FoFCou.
 Two-electron integral symmetry not used.
 CIDS: In Core Option IDoMem=           1.
 MP4(SDTQ)
 =========
 Produce multiple copies of IABC intergrals
 DD1Dir will call FoFMem   1 times, MxPair=        56
 NAB=    28 NAA=     0 NBB=     0.
 MP4(D)= -0.11275548D-01
 MP4(S)= -0.52249849D-02
 MP4(R+Q)=  0.10783144D-01
 T4(AAA)= -0.66159557D-03
 T4(AAB)= -0.10285911D-01
 Time for triples=       93.89 seconds.
 MP4(T)=   -0.21895013D-01
 E3=       -0.20229997D-02        EUMP3=      -0.15134510305D+03
 E4(DQ)=   -0.49240416D-03        UMP4(DQ)=   -0.15134559545D+03
 E4(SDQ)=  -0.57173891D-02        UMP4(SDQ)=  -0.15135082044D+03
 E4(SDTQ)= -0.27612402D-01        UMP4(SDTQ)= -0.15137271545D+03
 VARIATIONAL ENERGIES WITH THE FIRST-ORDER WAVEFUNCTION:
 E(VAR1)=  -0.15128829021D+03     E(CISD,4)=  -0.15129791875D+03
 Largest amplitude= 4.13D-02
 Discarding MO integrals.
 Leave Link  913 at Tue Mar 31 00:02:17 2020, MaxMem=  2147483648 cpu:             117.5 elap:               7.4
 (Enter /usr/local/g16/g16/l122.exe)
 CPIOFr:  IOpCl= 0 IRwI=-1 IRwCP=  731 ICalc=  3 LCPTot=       59414 Len1MO=      159453 IndFrg=      697226
 Restoring MOs from calculation   5 to rwf and chk.
 CPIOFr:  IOpCl= 0 IRwI=-2 IRwCP=20731 ICalc=  4 LCPTot=       59414 Len1MO=      159453 IndFrg=      856679
 CPIOFr:  IOpCl= 0 IRwI= 4 IRwCP=20731 ICalc=  4 LCPTot=       59414 Len1MO=      159453 IndFrg=      856679
 Counterpoise: doing calculation for fragment   2 using the basis set of the fragment.
 Leave Link  122 at Tue Mar 31 00:02:18 2020, MaxMem=  2147483648 cpu:               0.1 elap:               0.0
 (Enter /usr/local/g16/g16/l301.exe)
 Basis read from rwf:  (5D, 7F)
 No pseudopotential information found on rwf file.
 There are    69 symmetry adapted cartesian basis functions of A   symmetry.
 There are    59 symmetry adapted basis functions of A   symmetry.
    59 basis functions,   217 primitive gaussians,    69 cartesian basis functions
    18 alpha electrons       18 beta electrons
       nuclear repulsion energy         0.0000000000 Hartrees.
 IExCor=    0 DFT=F Ex=HF Corr=None ExCW=0 ScaHFX=  1.000000
 ScaDFX=  1.000000  1.000000  1.000000  1.000000 ScalE2=  1.000000  1.000000
 IRadAn=      5 IRanWt=     -1 IRanGd=            0 ICorTp=0 IEmpDi=  4
 NAtoms=    5 NActive=    1 NUniq=    1 SFac= 1.00D+00 NAtFMM=   60 NAOKFM=F Big=F
 Integral buffers will be    131072 words long.
 Raffenetti 1 integral format.
 Two-electron integral symmetry is turned on.
 No density basis found on file   718.
 Leave Link  301 at Tue Mar 31 00:02:18 2020, MaxMem=  2147483648 cpu:               0.4 elap:               0.0
 (Enter /usr/local/g16/g16/l302.exe)
 NPDir=0 NMtPBC=     1 NCelOv=     1 NCel=       1 NClECP=     1 NCelD=      1
         NCelK=      1 NCelE2=     1 NClLst=     1 CellRange=     0.0.
 One-electron integrals computed using PRISM.
 One-electron integral symmetry used in STVInt
 NBasis=    59 RedAO= T EigKep=  1.06D-02  NBF=    59
 NBsUse=    59 1.00D-06 EigRej= -1.00D+00 NBFU=    59
 Leave Link  302 at Tue Mar 31 00:02:18 2020, MaxMem=  2147483648 cpu:               1.3 elap:               0.1
 (Enter /usr/local/g16/g16/l303.exe)
 DipDrv:  MaxL=1.
 Leave Link  303 at Tue Mar 31 00:02:18 2020, MaxMem=  2147483648 cpu:               0.3 elap:               0.0
 (Enter /usr/local/g16/g16/l401.exe)
 Initial guess from the checkpoint file:  "/mnt/driveB/scratch/matheus/Gau-71228.chk"
 B after Tr=    -0.062988    0.000191    0.000036
         Rot=    1.000000    0.000000    0.000000    0.000000 Ang=   0.00 deg.
 Guess basis will be translated and rotated to current coordinates.
 JPrj=2 DoOrth=T DoCkMO=T.
 Generating alternative initial guess.
 ExpMin= 4.00D-02 ExpMax= 1.17D+07 ExpMxC= 1.33D+04 IAcc=3 IRadAn=         5 AccDes= 0.00D+00
 Harris functional with IExCor=  205 and IRadAn=       5 diagonalized for initial guess.
 HarFok:  IExCor=  205 AccDes= 0.00D+00 IRadAn=         5 IDoV= 1 UseB2=F ITyADJ=14
 ICtDFT=  3500011 ScaDFX=  1.000000  1.000000  1.000000  1.000000
 FoFCou: FMM=F IPFlag=           0 FMFlag=      100000 FMFlg1=           0
         NFxFlg=           0 DoJE=T BraDBF=F KetDBF=T FulRan=T
         wScrn=  0.000000 ICntrl=       500 IOpCl=  0 I1Cent=   200000004 NGrid=           0
         NMat0=    1 NMatS0=      1 NMatT0=    0 NMatD0=    1 NMtDS0=    0 NMtDT0=    0
 Petite list used in FoFCou.
 Harris En= -2751.05937170533    
 Leave Link  401 at Tue Mar 31 00:02:18 2020, MaxMem=  2147483648 cpu:               2.3 elap:               0.2
 (Enter /usr/local/g16/g16/l502.exe)
 Keep R1 ints in memory in canonical form, NReq=14291944.
 FoFCou: FMM=F IPFlag=           0 FMFlag=           0 FMFlg1=           0
         NFxFlg=           0 DoJE=F BraDBF=F KetDBF=F FulRan=T
         wScrn=  0.000000 ICntrl=       600 IOpCl=  0 I1Cent=           0 NGrid=           0
         NMat0=    1 NMatS0=   1770 NMatT0=    0 NMatD0=    1 NMtDS0=    0 NMtDT0=    0
 Symmetry not used in FoFCou.
 Two-electron integral symmetry not used.
 Closed shell SCF:
 Using DIIS extrapolation, IDIIS=  1040.
 NGot=  2147483648 LenX=  2145904888 LenY=  2145899686
 Requested convergence on RMS density matrix=1.00D-08 within 128 cycles.
 Requested convergence on MAX density matrix=1.00D-06.
 Requested convergence on             energy=1.00D-06.
 No special actions if energy rises.

 Cycle   1  Pass 1  IDiag  1:
 E= -2752.05222307625    
 DIIS: error= 5.46D-13 at cycle   1 NSaved=   1.
 NSaved= 1 IEnMin= 1 EnMin= -2752.05222307625     IErMin= 1 ErrMin= 5.46D-13
 ErrMax= 5.46D-13  0.00D+00 EMaxC= 1.00D-01 BMatC= 3.01D-24 BMatP= 3.01D-24
 IDIUse=1 WtCom= 1.00D+00 WtEn= 0.00D+00
 Coeff-Com:  0.100D+01
 Coeff:      0.100D+01
 Gap=     0.719 Goal=   None    Shift=    0.000
 RMSDP=9.50D-15 MaxDP=1.55D-13              OVMax= 1.26D-13

 SCF Done:  E(RHF) =  -2752.05222308     A.U. after    1 cycles
            NFock=  1  Conv=0.95D-14     -V/T= 2.0000
 KE= 2.752048106937D+03 PE=-6.582565276257D+03 EE= 1.078464946243D+03
 Leave Link  502 at Tue Mar 31 00:02:18 2020, MaxMem=  2147483648 cpu:               8.7 elap:               0.5
 (Enter /usr/local/g16/g16/l801.exe)
 Windowed orbitals will be sorted by symmetry type.
 ExpMin= 4.00D-02 ExpMax= 1.17D+07 ExpMxC= 1.33D+04 IAcc=3 IRadAn=         5 AccDes= 0.00D+00
 HarFok:  IExCor=  205 AccDes= 0.00D+00 IRadAn=         5 IDoV=-2 UseB2=F ITyADJ=14
 ICtDFT= 12500011 ScaDFX=  1.000000  1.000000  1.000000  1.000000
 Largest valence mixing into a core orbital is  9.79D-05
 Largest core mixing into a valence orbital is  3.83D-05
 Range of M.O.s used for correlation:    10    59
 NBasis=    59 NAE=    18 NBE=    18 NFC=     9 NFV=     0
 NROrb=     50 NOA=     9 NOB=     9 NVA=    41 NVB=    41
 Leave Link  801 at Tue Mar 31 00:02:19 2020, MaxMem=  2147483648 cpu:               0.5 elap:               0.0
 (Enter /usr/local/g16/g16/l804.exe)
 Closed-shell transformation, MDV=  2147483648 ITran=4 ISComp=1.
 Semi-Direct transformation.
 ModeAB=           2 MOrb=             9 LenV=    2147140326
 LASXX=       482211 LTotXX=      482211 LenRXX=      482211
 LTotAB=      511245 MaxLAS=     1086750 LenRXY=     1086750
 NonZer=     1162350 LenScr=     2357760 LnRSAI=           0
 LnScr1=           0 LExtra=           0 Total=      3926721
 MaxDsk=          -1 SrtSym=           F ITran=            4
 DoSDTr:  NPSUse= 16
 JobTyp=0 Pass  1:  I=   1 to   9.
 (rs|ai) integrals will be sorted in core.
 Complete sort for first half transformation.
 First half transformation complete.
 Complete sort for second half transformation.
 Second half transformation complete.
 SymMOI:  orbitals are not symmetric.
 Spin components of T(2) and E(2):
     alpha-alpha T2 =       0.9484485167D-02 E2=     -0.3552398032D-01
     alpha-beta  T2 =       0.4799866946D-01 E2=     -0.1708433112D+00
     beta-beta   T2 =       0.9484485167D-02 E2=     -0.3552398032D-01
 ANorm=    0.1032941257D+01
 E2 =    -0.2418912719D+00 EUMP2 =    -0.27522941143481D+04
 Leave Link  804 at Tue Mar 31 00:02:19 2020, MaxMem=  2147483648 cpu:               4.7 elap:               0.3
 (Enter /usr/local/g16/g16/l913.exe)
 CIDS:  MDV=  2147483648.
 Frozen-core window:  NFC=   9 NFV=   0.
 IFCWin=0 IBDFC=1 NFBD=     0     0 NFCmp=     0     0 NFFFC=     0     0
 Using DD3R+UMP44R for 1st iteration.
 Using DD4RQ for 2nd and later iterations.
 Keep R2 and R3 ints in memory in canonical form, NReq=15862484.
 FoFCou: FMM=F IPFlag=           0 FMFlag=           0 FMFlg1=           0
         NFxFlg=           0 DoJE=F BraDBF=F KetDBF=F FulRan=T
         wScrn=  0.000000 ICntrl=       600 IOpCl=  0 I1Cent=           0 NGrid=           0
         NMat0=    1 NMatS0=   1770 NMatT0=    0 NMatD0=    1 NMtDS0=    0 NMtDT0=    0
 Symmetry not used in FoFCou.
 Two-electron integral symmetry not used.
 CIDS: In Core Option IDoMem=           1.
 MP4(SDTQ)
 =========
 Produce multiple copies of IABC intergrals
 DD1Dir will call FoFMem   1 times, MxPair=        90
 NAB=    45 NAA=     0 NBB=     0.
 MP4(D)= -0.36913093D-02
 MP4(S)= -0.10734540D-02
 MP4(R+Q)=  0.42077927D-02
 T4(AAA)= -0.32336090D-03
 T4(AAB)= -0.35259699D-02
 Time for triples=        3.38 seconds.
 MP4(T)=   -0.76986616D-02
 E3=       -0.99406389D-02        EUMP3=      -0.27523040550D+04
 E4(DQ)=    0.51648341D-03        UMP4(DQ)=   -0.27523035385D+04
 E4(SDQ)=  -0.55697064D-03        UMP4(SDQ)=  -0.27523046120D+04
 E4(SDTQ)= -0.82556322D-02        UMP4(SDTQ)= -0.27523123106D+04
 VARIATIONAL ENERGIES WITH THE FIRST-ORDER WAVEFUNCTION:
 E(VAR1)=  -0.27522882489D+04     E(CISD,4)=  -0.27522926209D+04
 Largest amplitude= 2.08D-02
 Discarding MO integrals.
 Leave Link  913 at Tue Mar 31 00:02:20 2020, MaxMem=  2147483648 cpu:              14.4 elap:               0.9
 (Enter /usr/local/g16/g16/l122.exe)
 CPIOFr:  IOpCl= 0 IRwI=-1 IRwCP=  731 ICalc=  4 LCPTot=       59414 Len1MO=      159453 IndFrg=      856679
 Restoring MOs from calculation   1 to rwf.
 CPIOFr:  IOpCl= 0 IRwI=-2 IRwCP=  731 ICalc=  0 LCPTot=       59414 Len1MO=      159453 IndFrg=      218867
 Counterpoise corrected energy =   -2903.685302899186
                   BSSE energy =       0.000222077300
              sum of fragments =   -2903.685026067715
           complexation energy =      -0.31 kcal/mole (raw)
           complexation energy =      -0.17 kcal/mole (corrected)
 Leave Link  122 at Tue Mar 31 00:02:20 2020, MaxMem=  2147483648 cpu:               0.1 elap:               0.0
 (Enter /usr/local/g16/g16/l108.exe)
 Scan completed.
 
 Summary of the potential surface scan, energies are +2752 a.u.:
   N      R1          SCF          MP2          MP3         MP4DQ       MP4SDQ       MP4SDTQ  
 ----  ---------  -----------  -----------  -----------  -----------  -----------  -----------
    1     3.0000     -0.05222     -0.29411     -0.30405     -0.30354     -0.30461     -0.31231
    2     3.1000     -0.05222     -0.29411     -0.30405     -0.30354     -0.30461     -0.31231
    3     3.2000     -0.05222     -0.29411     -0.30405     -0.30354     -0.30461     -0.31231
    4     3.3000     -0.05222     -0.29411     -0.30405     -0.30354     -0.30461     -0.31231
    5     3.4000     -0.05222     -0.29411     -0.30405     -0.30354     -0.30461     -0.31231
    6     3.5000     -0.05222     -0.29411     -0.30405     -0.30354     -0.30461     -0.31231
    7     3.6000     -0.05222     -0.29411     -0.30405     -0.30354     -0.30461     -0.31231
    8     3.7000     -0.05222     -0.29411     -0.30405     -0.30354     -0.30461     -0.31231
    9     3.8000     -0.05222     -0.29411     -0.30405     -0.30354     -0.30461     -0.31231
   10     3.9000     -0.05222     -0.29411     -0.30405     -0.30354     -0.30461     -0.31231
   11     4.0000     -0.05222     -0.29411     -0.30405     -0.30354     -0.30461     -0.31231
   12     4.1000     -0.05222     -0.29411     -0.30405     -0.30354     -0.30461     -0.31231
   13     4.2000     -0.05222     -0.29411     -0.30405     -0.30354     -0.30461     -0.31231
   14     4.3000     -0.05222     -0.29411     -0.30405     -0.30354     -0.30461     -0.31231
   15     4.4000     -0.05222     -0.29411     -0.30405     -0.30354     -0.30461     -0.31231
   16     4.5000     -0.05222     -0.29411     -0.30405     -0.30354     -0.30461     -0.31231
   17     4.6000     -0.05222     -0.29411     -0.30405     -0.30354     -0.30461     -0.31231
   18     4.7000     -0.05222     -0.29411     -0.30405     -0.30354     -0.30461     -0.31231
   19     4.8000     -0.05222     -0.29411     -0.30405     -0.30354     -0.30461     -0.31231
   20     4.9000     -0.05222     -0.29411     -0.30405     -0.30354     -0.30461     -0.31231
   21     5.0000     -0.05222     -0.29411     -0.30405     -0.30354     -0.30461     -0.31231
 ----  ---------  -----------  -----------  -----------  -----------  -----------  -----------
  
 Leave Link  108 at Tue Mar 31 00:02:20 2020, MaxMem=  2147483648 cpu:               0.1 elap:               0.0
 (Enter /usr/local/g16/g16/l9999.exe)
 1\1\GINC-ARTHUR-MS-7B09\Scan\RMP4SDTQ-FC\Aug-CC-pVTZ\H2Kr1O2\MATHEUS\3
 1-Mar-2020\1\\#p mp4/aug-cc-PVTz int=ultrafine counterpoise=2 Scan\\PT
 CC\\0,1\O,0,0.,0.,0.725\O,0,0.,0.,-0.725\H,0,0.9047631646,0.1595341571
 ,1.0235104166\H,0,0.,0.9187205947,-1.0235104166\Kr,0,0.,R1,0.\\R1=3.,s
 ,20,0.1\\Version=ES64L-G16RevA.03\HF=-2752.0522231,-2752.0522231,-2752
 .0522231,-2752.0522231,-2752.0522231,-2752.0522231,-2752.0522231,-2752
 .0522231,-2752.0522231,-2752.0522231,-2752.0522231,-2752.0522231,-2752
 .0522231,-2752.0522231,-2752.0522231,-2752.0522231,-2752.0522231,-2752
 .0522231,-2752.0522231,-2752.0522231,-2752.0522231\MP2=-2752.2941143,-
 2752.2941143,-2752.2941143,-2752.2941143,-2752.2941143,-2752.2941143,-
 2752.2941143,-2752.2941143,-2752.2941143,-2752.2941143,-2752.2941143,-
 2752.2941143,-2752.2941143,-2752.2941143,-2752.2941143,-2752.2941143,-
 2752.2941143,-2752.2941143,-2752.2941143,-2752.2941143,-2752.2941143\M
 P3=-2752.304055,-2752.304055,-2752.304055,-2752.304055,-2752.304055,-2
 752.304055,-2752.304055,-2752.304055,-2752.304055,-2752.304055,-2752.3
 04055,-2752.304055,-2752.304055,-2752.304055,-2752.304055,-2752.304055
 ,-2752.304055,-2752.304055,-2752.304055,-2752.304055,-2752.304055\MP4D
 =-2752.3077463,-2752.3077463,-2752.3077463,-2752.3077463,-2752.3077463
 ,-2752.3077463,-2752.3077463,-2752.3077463,-2752.3077463,-2752.3077463
 ,-2752.3077463,-2752.3077463,-2752.3077463,-2752.3077463,-2752.3077463
 ,-2752.3077463,-2752.3077463,-2752.3077463,-2752.3077463,-2752.3077463
 ,-2752.3077463\MP4DQ=-2752.3035385,-2752.3035385,-2752.3035385,-2752.3
 035385,-2752.3035385,-2752.3035385,-2752.3035385,-2752.3035385,-2752.3
 035385,-2752.3035385,-2752.3035385,-2752.3035385,-2752.3035385,-2752.3
 035385,-2752.3035385,-2752.3035385,-2752.3035385,-2752.3035385,-2752.3
 035385,-2752.3035385,-2752.3035385\MP4SDQ=-2752.304612,-2752.304612,-2
 752.304612,-2752.304612,-2752.304612,-2752.304612,-2752.304612,-2752.3
 04612,-2752.304612,-2752.304612,-2752.304612,-2752.304612,-2752.304612
 ,-2752.304612,-2752.304612,-2752.304612,-2752.304612,-2752.304612,-275
 2.304612,-2752.304612,-2752.304612\MP4SDTQ=-2752.3123106,-2752.3123106
 ,-2752.3123106,-2752.3123106,-2752.3123106,-2752.3123106,-2752.3123106
 ,-2752.3123106,-2752.3123106,-2752.3123106,-2752.3123106,-2752.3123106
 ,-2752.3123106,-2752.3123106,-2752.3123106,-2752.3123106,-2752.3123106
 ,-2752.3123106,-2752.3123106,-2752.3123106,-2752.3123106\RMSD=9.887e-1
 0,1.149e-10,2.884e-11,7.210e-12,1.872e-12,4.691e-13,1.345e-13,3.285e-1
 4,1.403e-14,8.822e-15,1.371e-14,1.015e-14,5.495e-15,9.225e-15,6.652e-1
 5,5.305e-15,7.108e-15,7.807e-15,3.374e-15,9.629e-15,9.499e-15\PG=C01 [
 X(H2Kr1O2)]\\@


 YOU KNOW YOU'VE SPOKEN TOO LONG WHEN THE AUDIENCE STOPS LOOKING AT
 THEIR WATCHES AND STARTS SHAKING THEM.
 Job cpu time:       0 days 20 hours 43 minutes  9.1 seconds.
 Elapsed time:       0 days  1 hours 18 minutes 55.7 seconds.
 File lengths (MBytes):  RWF=   4072 Int=      0 D2E=      0 Chk=     12 Scr=      1
 Normal termination of Gaussian 16 at Tue Mar 31 00:02:20 2020.
