 Entering Gaussian System, Link 0=g16
 Input=Inputs/H2O2-Kr_27.com
 Output=Logs/H2O2-Kr_27.log
 Initial command:
 /usr/local/g16/g16/l1.exe "/mnt/driveB/scratch/matheus/Gau-13438.inp" -scrdir="/mnt/driveB/scratch/matheus/"
 Entering Link 1 = /usr/local/g16/g16/l1.exe PID=     13440.
  
 Copyright (c) 1988,1990,1992,1993,1995,1998,2003,2009,2016,
            Gaussian, Inc.  All Rights Reserved.
  
 This is part of the Gaussian(R) 16 program.  It is based on
 the Gaussian(R) 09 system (copyright 2009, Gaussian, Inc.),
 the Gaussian(R) 03 system (copyright 2003, Gaussian, Inc.),
 the Gaussian(R) 98 system (copyright 1998, Gaussian, Inc.),
 the Gaussian(R) 94 system (copyright 1995, Gaussian, Inc.),
 the Gaussian 92(TM) system (copyright 1992, Gaussian, Inc.),
 the Gaussian 90(TM) system (copyright 1990, Gaussian, Inc.),
 the Gaussian 88(TM) system (copyright 1988, Gaussian, Inc.),
 the Gaussian 86(TM) system (copyright 1986, Carnegie Mellon
 University), and the Gaussian 82(TM) system (copyright 1983,
 Carnegie Mellon University). Gaussian is a federally registered
 trademark of Gaussian, Inc.
  
 This software contains proprietary and confidential information,
 including trade secrets, belonging to Gaussian, Inc.
  
 This software is provided under written license and may be
 used, copied, transmitted, or stored only in accord with that
 written license.
  
 The following legend is applicable only to US Government
 contracts under FAR:
  
                    RESTRICTED RIGHTS LEGEND
  
 Use, reproduction and disclosure by the US Government is
 subject to restrictions as set forth in subparagraphs (a)
 and (c) of the Commercial Computer Software - Restricted
 Rights clause in FAR 52.227-19.
  
 Gaussian, Inc.
 340 Quinnipiac St., Bldg. 40, Wallingford CT 06492
  
  
 ---------------------------------------------------------------
 Warning -- This program may not be used in any manner that
 competes with the business of Gaussian, Inc. or will provide
 assistance to any competitor of Gaussian, Inc.  The licensee
 of this program is prohibited from giving any competitor of
 Gaussian, Inc. access to this program.  By using this program,
 the user acknowledges that Gaussian, Inc. is engaged in the
 business of creating and licensing software in the field of
 computational chemistry and represents and warrants to the
 licensee that it is not a competitor of Gaussian, Inc. and that
 it will not use this program in any manner prohibited above.
 ---------------------------------------------------------------
  

 Cite this work as:
 Gaussian 16, Revision A.03,
 M. J. Frisch, G. W. Trucks, H. B. Schlegel, G. E. Scuseria, 
 M. A. Robb, J. R. Cheeseman, G. Scalmani, V. Barone, 
 G. A. Petersson, H. Nakatsuji, X. Li, M. Caricato, A. V. Marenich, 
 J. Bloino, B. G. Janesko, R. Gomperts, B. Mennucci, H. P. Hratchian, 
 J. V. Ortiz, A. F. Izmaylov, J. L. Sonnenberg, D. Williams-Young, 
 F. Ding, F. Lipparini, F. Egidi, J. Goings, B. Peng, A. Petrone, 
 T. Henderson, D. Ranasinghe, V. G. Zakrzewski, J. Gao, N. Rega, 
 G. Zheng, W. Liang, M. Hada, M. Ehara, K. Toyota, R. Fukuda, 
 J. Hasegawa, M. Ishida, T. Nakajima, Y. Honda, O. Kitao, H. Nakai, 
 T. Vreven, K. Throssell, J. A. Montgomery, Jr., J. E. Peralta, 
 F. Ogliaro, M. J. Bearpark, J. J. Heyd, E. N. Brothers, K. N. Kudin, 
 V. N. Staroverov, T. A. Keith, R. Kobayashi, J. Normand, 
 K. Raghavachari, A. P. Rendell, J. C. Burant, S. S. Iyengar, 
 J. Tomasi, M. Cossi, J. M. Millam, M. Klene, C. Adamo, R. Cammi, 
 J. W. Ochterski, R. L. Martin, K. Morokuma, O. Farkas, 
 J. B. Foresman, and D. J. Fox, Gaussian, Inc., Wallingford CT, 2016.
 
 ******************************************
 Gaussian 16:  ES64L-G16RevA.03 25-Dec-2016
                 2-Apr-2020 
 ******************************************
 %mem=16GB
 %nproc=16
 Will use up to   16 processors via shared memory.
 ----------------------------------------------------
 #p mp4/aug-cc-PVTz int=ultrafine counterpoise=2 Scan
 ----------------------------------------------------
 1/38=1,60=1,62=2,172=1/1,8;
 2/12=2,17=6,18=5,29=3,40=1/2;
 1/38=1,53=2,62=2,63=1/22;
 3/5=16,6=1,7=10,11=9,25=1,30=1,75=-5/1,2,3;
 4//1;
 5/5=2,38=5/2;
 8/6=4,9=120000,10=1/1,4;
 9/5=5/13;
 6/7=2,8=2,9=2,10=2,18=1/1;
 1/53=2,62=2,63=1/22;
 3/5=7,6=11,7=10,11=9,25=1,30=1,75=-5,82=7/1,2,3;
 4//1;
 5/5=2,38=5/2;
 8/6=4,9=120000,10=1/1,4;
 9/5=5/13;
 6/7=2,8=2,9=2,10=2,18=1/1;
 1/53=2,62=2,63=1/22(-6);
 1/60=1,62=2/8(1);
 99/9=1/99;
 2/29=3/2;
 1/53=3,62=2,63=1/22;
 3/5=7,6=11,7=10,11=9,25=1,30=1,75=-5,82=7/1,2,3;
 4/5=5,16=3,69=1/1;
 5/5=2,38=5/2;
 8/6=4,9=120000,10=1/1,4;
 9/5=5/13;
 1/53=3,62=2,63=1/22(-5);
 1/60=1,62=2/8(-8);
 99/9=1/99;
 Leave Link    1 at Thu Apr  2 11:10:17 2020, MaxMem=  2147483648 cpu:               0.3 elap:               0.0
 (Enter /usr/local/g16/g16/l101.exe)
 ----
 PTCC
 ----
 Symbolic Z-matrix:
 Charge =  0 Multiplicity = 1 in supermolecule
 Charge =  0 Multiplicity = 1 in fragment      1.
 Charge =  0 Multiplicity = 1 in fragment      2.
 O(Fragment=1)         0.        0.        0.725 
 O(Fragment=1)         0.        0.       -0.725 
 H(Fragment=1)        -0.91872  0.         1.02351 
 H(Fragment=1)         0.        0.91872  -1.02351 
 Kr(Fragment=2)        0.       R1        0. 
       Variables:
  R1                    3.     Scan 20    0.1    
 
 ITRead=  0  0  0  0  0
 MicOpt= -1 -1 -1 -1 -1
 NAtoms=      5 NQM=        5 NQMF=       0 NMMI=      0 NMMIF=      0
                NMic=       0 NMicF=      0.
                    Isotopes and Nuclear Properties:
 (Nuclear quadrupole moments (NQMom) in fm**2, nuclear magnetic moments (NMagM)
  in nuclear magnetons)

  Atom         1           2           3           4           5
 IAtWgt=          16          16           1           1          84
 AtmWgt=  15.9949146  15.9949146   1.0078250   1.0078250  83.9115064
 NucSpn=           0           0           1           1           0
 AtZEff=  -0.0000000  -0.0000000  -0.0000000  -0.0000000  -0.0000000
 NQMom=    0.0000000   0.0000000   0.0000000   0.0000000   0.0000000
 NMagM=    0.0000000   0.0000000   2.7928460   2.7928460   0.0000000
 AtZNuc=   8.0000000   8.0000000   1.0000000   1.0000000  36.0000000
 Leave Link  101 at Thu Apr  2 11:10:17 2020, MaxMem=  2147483648 cpu:               1.4 elap:               0.1
 (Enter /usr/local/g16/g16/l108.exe)
 Scan the potential surface.
 Variable   Value     No. Steps Step-Size
 -------- ----------- --------- ---------
     1       3.000000      20      0.1000
 A total of     21 points will be computed.
 Leave Link  108 at Thu Apr  2 11:10:17 2020, MaxMem=  2147483648 cpu:               0.0 elap:               0.0
 (Enter /usr/local/g16/g16/l202.exe)
 ---------------------------------------------------------------------------------------------------
                            Z-MATRIX (ANGSTROMS AND DEGREES)
   CD    Cent   Atom    N1       Length/X        N2       Alpha/Y        N3        Beta/Z          J
 ---------------------------------------------------------------------------------------------------
      1      1  O        0   0.000000          0.000000          0.725000
      2      2  O        0   0.000000          0.000000         -0.725000
      3      3  H        0  -0.918721         -0.000000          1.023510
      4      4  H        0   0.000000          0.918721         -1.023510
      5      5  Kr       0   0.000000          3.000000          0.000000
 ---------------------------------------------------------------------------------------------------
                         Z-Matrix orientation:                         
 ---------------------------------------------------------------------
 Center     Atomic      Atomic             Coordinates (Angstroms)
 Number     Number       Type             X           Y           Z
 ---------------------------------------------------------------------
      1          8           0        0.000000    0.000000    0.725000
      2          8           0        0.000000    0.000000   -0.725000
      3          1           0       -0.918721   -0.000000    1.023510
      4          1           0        0.000000    0.918721   -1.023510
      5         36           0        0.000000    3.000000    0.000000
 ---------------------------------------------------------------------
                    Distance matrix (angstroms):
                    1          2          3          4          5
     1  O    0.000000
     2  O    1.450000   0.000000
     3  H    0.966000   1.975180   0.000000
     4  H    1.975180   0.966000   2.424539   0.000000
     5  Kr   3.086361   3.086361   3.300246   2.319331   0.000000
 Stoichiometry    H2KrO2
 Framework group  C1[X(H2KrO2)]
 Deg. of freedom     9
 Full point group                 C1      NOp   1
 Largest Abelian subgroup         C1      NOp   1
 Largest concise Abelian subgroup C1      NOp   1
                         Standard orientation:                         
 ---------------------------------------------------------------------
 Center     Atomic      Atomic             Coordinates (Angstroms)
 Number     Number       Type             X           Y           Z
 ---------------------------------------------------------------------
      1          8           0       -2.023612   -0.696492   -0.118952
      2          8           0       -2.008959    0.747023    0.017247
      3          1           0       -2.043021   -1.079789    0.767536
      4          1           0       -1.087415    1.033416    0.060735
      5         36           0        0.983084   -0.009941   -0.000406
 ---------------------------------------------------------------------
 Rotational constants (GHZ):          25.5933464           2.3453767           2.1627661
 Leave Link  202 at Thu Apr  2 11:10:17 2020, MaxMem=  2147483648 cpu:               0.0 elap:               0.0
 (Enter /usr/local/g16/g16/l122.exe)
 Counterpoise: doing full-system calculation.
 Leave Link  122 at Thu Apr  2 11:10:17 2020, MaxMem=  2147483648 cpu:               0.0 elap:               0.0
 (Enter /usr/local/g16/g16/l301.exe)
 Standard basis: Aug-CC-pVTZ (5D, 7F)
 Ernie: Thresh=  0.10000D-02 Tol=  0.10000D-05 Strict=F.
 Ernie:  38 primitive shells out of 205 were deleted.
 There are   229 symmetry adapted cartesian basis functions of A   symmetry.
 There are   197 symmetry adapted basis functions of A   symmetry.
   197 basis functions,   415 primitive gaussians,   229 cartesian basis functions
    27 alpha electrons       27 beta electrons
       nuclear repulsion energy       149.3716950693 Hartrees.
 IExCor=    0 DFT=F Ex=HF Corr=None ExCW=0 ScaHFX=  1.000000
 ScaDFX=  1.000000  1.000000  1.000000  1.000000 ScalE2=  1.000000  1.000000
 IRadAn=      5 IRanWt=     -1 IRanGd=            0 ICorTp=0 IEmpDi=  4
 NAtoms=    5 NActive=    5 NUniq=    5 SFac= 1.00D+00 NAtFMM=   60 NAOKFM=F Big=F
 Integral buffers will be    131072 words long.
 Raffenetti 1 integral format.
 Two-electron integral symmetry is turned on.
 Leave Link  301 at Thu Apr  2 11:10:17 2020, MaxMem=  2147483648 cpu:               0.4 elap:               0.0
 (Enter /usr/local/g16/g16/l302.exe)
 NPDir=0 NMtPBC=     1 NCelOv=     1 NCel=       1 NClECP=     1 NCelD=      1
         NCelK=      1 NCelE2=     1 NClLst=     1 CellRange=     0.0.
 One-electron integrals computed using PRISM.
 One-electron integral symmetry used in STVInt
 NBasis=   197 RedAO= T EigKep=  2.11D-04  NBF=   197
 NBsUse=   197 1.00D-06 EigRej= -1.00D+00 NBFU=   197
 Leave Link  302 at Thu Apr  2 11:10:17 2020, MaxMem=  2147483648 cpu:               1.7 elap:               0.1
 (Enter /usr/local/g16/g16/l303.exe)
 DipDrv:  MaxL=1.
 Leave Link  303 at Thu Apr  2 11:10:17 2020, MaxMem=  2147483648 cpu:               0.4 elap:               0.0
 (Enter /usr/local/g16/g16/l401.exe)
 ExpMin= 2.53D-02 ExpMax= 1.17D+07 ExpMxC= 1.33D+04 IAcc=3 IRadAn=         5 AccDes= 0.00D+00
 Harris functional with IExCor=  205 and IRadAn=       5 diagonalized for initial guess.
 HarFok:  IExCor=  205 AccDes= 0.00D+00 IRadAn=         5 IDoV= 1 UseB2=F ITyADJ=14
 ICtDFT=  3500011 ScaDFX=  1.000000  1.000000  1.000000  1.000000
 FoFCou: FMM=F IPFlag=           0 FMFlag=      100000 FMFlg1=           0
         NFxFlg=           0 DoJE=T BraDBF=F KetDBF=T FulRan=T
         wScrn=  0.000000 ICntrl=       500 IOpCl=  0 I1Cent=   200000004 NGrid=           0
         NMat0=    1 NMatS0=      1 NMatT0=    0 NMatD0=    1 NMtDS0=    0 NMtDT0=    0
 Petite list used in FoFCou.
 Harris En= -2901.99366662050    
 JPrj=0 DoOrth=F DoCkMO=F.
 Leave Link  401 at Thu Apr  2 11:10:18 2020, MaxMem=  2147483648 cpu:               3.2 elap:               0.2
 (Enter /usr/local/g16/g16/l502.exe)
 Keep R1 ints in memory in canonical form, NReq=203135247.
 FoFCou: FMM=F IPFlag=           0 FMFlag=           0 FMFlg1=           0
         NFxFlg=           0 DoJE=F BraDBF=F KetDBF=F FulRan=T
         wScrn=  0.000000 ICntrl=       600 IOpCl=  0 I1Cent=           0 NGrid=           0
         NMat0=    1 NMatS0=  19503 NMatT0=    0 NMatD0=    1 NMtDS0=    0 NMtDT0=    0
 Symmetry not used in FoFCou.
 Two-electron integral symmetry not used.
 Closed shell SCF:
 Using DIIS extrapolation, IDIIS=  1040.
 NGot=  2147483648 LenX=  1957179903 LenY=  1957127021
 Requested convergence on RMS density matrix=1.00D-08 within 128 cycles.
 Requested convergence on MAX density matrix=1.00D-06.
 Requested convergence on             energy=1.00D-06.
 No special actions if energy rises.

 Cycle   1  Pass 1  IDiag  1:
 E= -2902.76852964910    
 DIIS: error= 3.83D-02 at cycle   1 NSaved=   1.
 NSaved= 1 IEnMin= 1 EnMin= -2902.76852964910     IErMin= 1 ErrMin= 3.83D-02
 ErrMax= 3.83D-02  0.00D+00 EMaxC= 1.00D-01 BMatC= 6.56D-01 BMatP= 6.56D-01
 IDIUse=3 WtCom= 6.17D-01 WtEn= 3.83D-01
 Coeff-Com:  0.100D+01
 Coeff-En:   0.100D+01
 Coeff:      0.100D+01
 Gap=     0.721 Goal=   None    Shift=    0.000
 GapD=    0.721 DampG=2.000 DampE=0.500 DampFc=1.0000 IDamp=-1.
 RMSDP=1.97D-03 MaxDP=1.29D-01              OVMax= 5.59D-02

 Cycle   2  Pass 1  IDiag  1:
 E= -2902.86489261812     Delta-E=       -0.096362969016 Rises=F Damp=F
 DIIS: error= 6.87D-03 at cycle   2 NSaved=   2.
 NSaved= 2 IEnMin= 2 EnMin= -2902.86489261812     IErMin= 2 ErrMin= 6.87D-03
 ErrMax= 6.87D-03  0.00D+00 EMaxC= 1.00D-01 BMatC= 3.56D-02 BMatP= 6.56D-01
 IDIUse=3 WtCom= 9.31D-01 WtEn= 6.87D-02
 Coeff-Com:  0.137D+00 0.863D+00
 Coeff-En:   0.000D+00 0.100D+01
 Coeff:      0.128D+00 0.872D+00
 Gap=     0.551 Goal=   None    Shift=    0.000
 RMSDP=7.47D-04 MaxDP=3.63D-02 DE=-9.64D-02 OVMax= 2.54D-02

 Cycle   3  Pass 1  IDiag  1:
 E= -2902.87809382161     Delta-E=       -0.013201203486 Rises=F Damp=F
 DIIS: error= 2.49D-03 at cycle   3 NSaved=   3.
 NSaved= 3 IEnMin= 3 EnMin= -2902.87809382161     IErMin= 3 ErrMin= 2.49D-03
 ErrMax= 2.49D-03  0.00D+00 EMaxC= 1.00D-01 BMatC= 2.69D-03 BMatP= 3.56D-02
 IDIUse=3 WtCom= 9.75D-01 WtEn= 2.49D-02
 Coeff-Com: -0.634D-02 0.194D+00 0.813D+00
 Coeff-En:   0.000D+00 0.000D+00 0.100D+01
 Coeff:     -0.618D-02 0.189D+00 0.817D+00
 Gap=     0.532 Goal=   None    Shift=    0.000
 RMSDP=1.34D-04 MaxDP=4.83D-03 DE=-1.32D-02 OVMax= 8.36D-03

 Cycle   4  Pass 1  IDiag  1:
 E= -2902.87946780138     Delta-E=       -0.001373979773 Rises=F Damp=F
 DIIS: error= 3.14D-04 at cycle   4 NSaved=   4.
 NSaved= 4 IEnMin= 4 EnMin= -2902.87946780138     IErMin= 4 ErrMin= 3.14D-04
 ErrMax= 3.14D-04  0.00D+00 EMaxC= 1.00D-01 BMatC= 4.71D-05 BMatP= 2.69D-03
 IDIUse=3 WtCom= 9.97D-01 WtEn= 3.14D-03
 Coeff-Com: -0.406D-02 0.127D-01 0.138D+00 0.853D+00
 Coeff-En:   0.000D+00 0.000D+00 0.000D+00 0.100D+01
 Coeff:     -0.405D-02 0.126D-01 0.137D+00 0.854D+00
 Gap=     0.527 Goal=   None    Shift=    0.000
 RMSDP=2.18D-05 MaxDP=6.63D-04 DE=-1.37D-03 OVMax= 1.71D-03

 Cycle   5  Pass 1  IDiag  1:
 E= -2902.87950939247     Delta-E=       -0.000041591089 Rises=F Damp=F
 DIIS: error= 9.48D-05 at cycle   5 NSaved=   5.
 NSaved= 5 IEnMin= 5 EnMin= -2902.87950939247     IErMin= 5 ErrMin= 9.48D-05
 ErrMax= 9.48D-05  0.00D+00 EMaxC= 1.00D-01 BMatC= 3.86D-06 BMatP= 4.71D-05
 IDIUse=1 WtCom= 1.00D+00 WtEn= 0.00D+00
 Coeff-Com:  0.887D-03-0.169D-01-0.715D-01 0.608D-03 0.109D+01
 Coeff:      0.887D-03-0.169D-01-0.715D-01 0.608D-03 0.109D+01
 Gap=     0.527 Goal=   None    Shift=    0.000
 RMSDP=1.14D-05 MaxDP=3.09D-04 DE=-4.16D-05 OVMax= 8.15D-04

 Cycle   6  Pass 1  IDiag  1:
 E= -2902.87951561857     Delta-E=       -0.000006226097 Rises=F Damp=F
 DIIS: error= 3.17D-05 at cycle   6 NSaved=   6.
 NSaved= 6 IEnMin= 6 EnMin= -2902.87951561857     IErMin= 6 ErrMin= 3.17D-05
 ErrMax= 3.17D-05  0.00D+00 EMaxC= 1.00D-01 BMatC= 3.12D-07 BMatP= 3.86D-06
 IDIUse=1 WtCom= 1.00D+00 WtEn= 0.00D+00
 Coeff-Com:  0.234D-03-0.655D-03-0.957D-02-0.611D-01 0.196D-01 0.105D+01
 Coeff:      0.234D-03-0.655D-03-0.957D-02-0.611D-01 0.196D-01 0.105D+01
 Gap=     0.527 Goal=   None    Shift=    0.000
 RMSDP=3.80D-06 MaxDP=1.28D-04 DE=-6.23D-06 OVMax= 3.84D-04

 Cycle   7  Pass 1  IDiag  1:
 E= -2902.87951627426     Delta-E=       -0.000000655698 Rises=F Damp=F
 DIIS: error= 1.53D-05 at cycle   7 NSaved=   7.
 NSaved= 7 IEnMin= 7 EnMin= -2902.87951627426     IErMin= 7 ErrMin= 1.53D-05
 ErrMax= 1.53D-05  0.00D+00 EMaxC= 1.00D-01 BMatC= 5.99D-08 BMatP= 3.12D-07
 IDIUse=1 WtCom= 1.00D+00 WtEn= 0.00D+00
 Coeff-Com: -0.387D-04 0.166D-02 0.546D-02-0.140D-01-0.111D+00 0.211D+00
 Coeff-Com:  0.907D+00
 Coeff:     -0.387D-04 0.166D-02 0.546D-02-0.140D-01-0.111D+00 0.211D+00
 Coeff:      0.907D+00
 Gap=     0.527 Goal=   None    Shift=    0.000
 RMSDP=1.50D-06 MaxDP=5.20D-05 DE=-6.56D-07 OVMax= 1.69D-04

 Cycle   8  Pass 1  IDiag  1:
 E= -2902.87951638952     Delta-E=       -0.000000115251 Rises=F Damp=F
 DIIS: error= 6.56D-06 at cycle   8 NSaved=   8.
 NSaved= 8 IEnMin= 8 EnMin= -2902.87951638952     IErMin= 8 ErrMin= 6.56D-06
 ErrMax= 6.56D-06  0.00D+00 EMaxC= 1.00D-01 BMatC= 1.23D-08 BMatP= 5.99D-08
 IDIUse=1 WtCom= 1.00D+00 WtEn= 0.00D+00
 Coeff-Com: -0.383D-04 0.311D-03 0.233D-02 0.849D-02-0.215D-01-0.157D+00
 Coeff-Com:  0.189D+00 0.979D+00
 Coeff:     -0.383D-04 0.311D-03 0.233D-02 0.849D-02-0.215D-01-0.157D+00
 Coeff:      0.189D+00 0.979D+00
 Gap=     0.528 Goal=   None    Shift=    0.000
 RMSDP=8.59D-07 MaxDP=2.39D-05 DE=-1.15D-07 OVMax= 1.12D-04

 Cycle   9  Pass 1  IDiag  1:
 E= -2902.87951642001     Delta-E=       -0.000000030495 Rises=F Damp=F
 DIIS: error= 2.19D-06 at cycle   9 NSaved=   9.
 NSaved= 9 IEnMin= 9 EnMin= -2902.87951642001     IErMin= 9 ErrMin= 2.19D-06
 ErrMax= 2.19D-06  0.00D+00 EMaxC= 1.00D-01 BMatC= 1.79D-09 BMatP= 1.23D-08
 IDIUse=1 WtCom= 1.00D+00 WtEn= 0.00D+00
 Coeff-Com:  0.159D-04-0.365D-03-0.162D-02-0.644D-03 0.239D-01 0.260D-01
 Coeff-Com: -0.212D+00-0.391D+00 0.156D+01
 Coeff:      0.159D-04-0.365D-03-0.162D-02-0.644D-03 0.239D-01 0.260D-01
 Coeff:     -0.212D+00-0.391D+00 0.156D+01
 Gap=     0.528 Goal=   None    Shift=    0.000
 RMSDP=5.23D-07 MaxDP=1.25D-05 DE=-3.05D-08 OVMax= 8.17D-05

 Cycle  10  Pass 1  IDiag  1:
 E= -2902.87951642852     Delta-E=       -0.000000008505 Rises=F Damp=F
 DIIS: error= 7.70D-07 at cycle  10 NSaved=  10.
 NSaved=10 IEnMin=10 EnMin= -2902.87951642852     IErMin=10 ErrMin= 7.70D-07
 ErrMax= 7.70D-07  0.00D+00 EMaxC= 1.00D-01 BMatC= 1.83D-10 BMatP= 1.79D-09
 IDIUse=1 WtCom= 1.00D+00 WtEn= 0.00D+00
 Coeff-Com:  0.974D-06 0.904D-04 0.201D-03-0.126D-02-0.487D-02 0.137D-01
 Coeff-Com:  0.524D-01 0.262D-02-0.586D+00 0.152D+01
 Coeff:      0.974D-06 0.904D-04 0.201D-03-0.126D-02-0.487D-02 0.137D-01
 Coeff:      0.524D-01 0.262D-02-0.586D+00 0.152D+01
 Gap=     0.528 Goal=   None    Shift=    0.000
 RMSDP=1.93D-07 MaxDP=4.60D-06 DE=-8.51D-09 OVMax= 3.06D-05

 Cycle  11  Pass 1  IDiag  1:
 E= -2902.87951642939     Delta-E=       -0.000000000874 Rises=F Damp=F
 DIIS: error= 1.79D-07 at cycle  11 NSaved=  11.
 NSaved=11 IEnMin=11 EnMin= -2902.87951642939     IErMin=11 ErrMin= 1.79D-07
 ErrMax= 1.79D-07  0.00D+00 EMaxC= 1.00D-01 BMatC= 8.05D-12 BMatP= 1.83D-10
 IDIUse=1 WtCom= 1.00D+00 WtEn= 0.00D+00
 Coeff-Com: -0.144D-05-0.946D-05 0.401D-04 0.642D-03-0.211D-03-0.786D-02
 Coeff-Com:  0.543D-03 0.341D-01 0.541D-01-0.418D+00 0.134D+01
 Coeff:     -0.144D-05-0.946D-05 0.401D-04 0.642D-03-0.211D-03-0.786D-02
 Coeff:      0.543D-03 0.341D-01 0.541D-01-0.418D+00 0.134D+01
 Gap=     0.528 Goal=   None    Shift=    0.000
 RMSDP=3.03D-08 MaxDP=6.10D-07 DE=-8.74D-10 OVMax= 3.90D-06

 Cycle  12  Pass 1  IDiag  1:
 E= -2902.87951642941     Delta-E=       -0.000000000024 Rises=F Damp=F
 DIIS: error= 3.71D-08 at cycle  12 NSaved=  12.
 NSaved=12 IEnMin=12 EnMin= -2902.87951642941     IErMin=12 ErrMin= 3.71D-08
 ErrMax= 3.71D-08  0.00D+00 EMaxC= 1.00D-01 BMatC= 4.10D-13 BMatP= 8.05D-12
 IDIUse=1 WtCom= 1.00D+00 WtEn= 0.00D+00
 Coeff-Com: -0.522D-07-0.647D-05-0.162D-04 0.108D-03 0.352D-03-0.137D-02
 Coeff-Com: -0.310D-02 0.250D-02 0.318D-01-0.918D-01-0.238D-01 0.109D+01
 Coeff:     -0.522D-07-0.647D-05-0.162D-04 0.108D-03 0.352D-03-0.137D-02
 Coeff:     -0.310D-02 0.250D-02 0.318D-01-0.918D-01-0.238D-01 0.109D+01
 Gap=     0.528 Goal=   None    Shift=    0.000
 RMSDP=5.37D-09 MaxDP=1.19D-07 DE=-2.36D-11 OVMax= 5.95D-07

 SCF Done:  E(RHF) =  -2902.87951643     A.U. after   12 cycles
            NFock= 12  Conv=0.54D-08     -V/T= 2.0001
 KE= 2.902635043971D+03 PE=-7.239074087953D+03 EE= 1.284187832483D+03
 Leave Link  502 at Thu Apr  2 11:10:21 2020, MaxMem=  2147483648 cpu:              26.4 elap:               3.4
 (Enter /usr/local/g16/g16/l801.exe)
 Windowed orbitals will be sorted by symmetry type.
 ExpMin= 2.53D-02 ExpMax= 1.17D+07 ExpMxC= 1.33D+04 IAcc=3 IRadAn=         5 AccDes= 0.00D+00
 HarFok:  IExCor=  205 AccDes= 0.00D+00 IRadAn=         5 IDoV=-2 UseB2=F ITyADJ=14
 ICtDFT= 12500011 ScaDFX=  1.000000  1.000000  1.000000  1.000000
 Largest valence mixing into a core orbital is  1.17D-04
 Largest core mixing into a valence orbital is  3.82D-05
 Range of M.O.s used for correlation:    12   197
 NBasis=   197 NAE=    27 NBE=    27 NFC=    11 NFV=     0
 NROrb=    186 NOA=    16 NOB=    16 NVA=   170 NVB=   170

 **** Warning!!: The largest alpha MO coefficient is  0.14784146D+02

 Leave Link  801 at Thu Apr  2 11:10:21 2020, MaxMem=  2147483648 cpu:               0.6 elap:               0.0
 (Enter /usr/local/g16/g16/l804.exe)
 Closed-shell transformation, MDV=  2147483648 ITran=4 ISComp=1.
 Unit  1 TFree=       1248993 TCopy=        808885.
 Semi-Direct transformation.
 ModeAB=           2 MOrb=            16 LenV=    2146361422
 LASXX=     48528660 LTotXX=    48528660 LenRXX=    48528660
 LTotAB=    49298776 MaxLAS=    78372960 LenRXY=    78372960
 NonZer=    97057320 LenScr=   146313216 LnRSAI=           0
 LnScr1=           0 LExtra=           0 Total=    273214836
 MaxDsk=          -1 SrtSym=           F ITran=            4
 DoSDTr:  NPSUse= 16
 JobTyp=0 Pass  1:  I=   1 to  16.
 (rs|ai) integrals will be sorted in core.
 Complete sort for first half transformation.
 First half transformation complete.
 Begin second half transformation for I=  10.
 Begin second half transformation for I=  10.
 Complete sort for second half transformation.
 Second half transformation complete.
 SymMOI:  orbitals are not symmetric.
 Spin components of T(2) and E(2):
     alpha-alpha T2 =       0.2604075462D-01 E2=     -0.1000917618D+00
     alpha-beta  T2 =       0.1421762759D+00 E2=     -0.5570861943D+00
     beta-beta   T2 =       0.2604075462D-01 E2=     -0.1000917618D+00
 ANorm=    0.1092821022D+01
 E2 =    -0.7572697179D+00 EUMP2 =    -0.29036367861473D+04
 Leave Link  804 at Thu Apr  2 11:10:32 2020, MaxMem=  2147483648 cpu:             176.5 elap:              11.0
 (Enter /usr/local/g16/g16/l913.exe)
 CIDS:  MDV=  2147483648.
 Frozen-core window:  NFC=  11 NFV=   0.
 IFCWin=0 IBDFC=1 NFBD=     0     0 NFCmp=     0     0 NFFFC=     0     0
 Using DD3R+UMP44R for 1st iteration.
 Using DD4RQ for 2nd and later iterations.
 Keep R2 and R3 ints in memory in canonical form, NReq=393336732.
 FoFCou: FMM=F IPFlag=           0 FMFlag=           0 FMFlg1=           0
         NFxFlg=           0 DoJE=F BraDBF=F KetDBF=F FulRan=T
         wScrn=  0.000000 ICntrl=       600 IOpCl=  0 I1Cent=           0 NGrid=           0
         NMat0=    1 NMatS0=  19503 NMatT0=    0 NMatD0=    1 NMtDS0=    0 NMtDT0=    0
 Symmetry not used in FoFCou.
 Two-electron integral symmetry not used.
 CIDS: In Core Option IDoMem=           1.
 MP4(SDTQ)
 =========
 Produce multiple copies of IABC intergrals
 DD1Dir will call FoFMem   1 times, MxPair=       272
 NAB=   136 NAA=     0 NBB=     0.
 MP4(D)= -0.14980129D-01
 MP4(S)= -0.65162402D-02
 MP4(R+Q)=  0.15469208D-01
 T4(AAA)= -0.10512890D-02
 T4(AAB)= -0.14243388D-01
 Time for triples=     1743.43 seconds.
 MP4(T)=   -0.30589354D-01
 E3=       -0.11159342D-01        EUMP3=      -0.29036479455D+04
 E4(DQ)=    0.48907856D-03        UMP4(DQ)=   -0.29036474564D+04
 E4(SDQ)=  -0.60271616D-02        UMP4(SDQ)=  -0.29036539727D+04
 E4(SDTQ)= -0.36616515D-01        UMP4(SDTQ)= -0.29036845620D+04
 VARIATIONAL ENERGIES WITH THE FIRST-ORDER WAVEFUNCTION:
 E(VAR1)=  -0.29035229529D+04     E(CISD,4)=  -0.29035223363D+04
 Largest amplitude= 2.21D-02
 Discarding MO integrals.
 Leave Link  913 at Thu Apr  2 11:12:29 2020, MaxMem=  2147483648 cpu:            1864.5 elap:             116.7
 (Enter /usr/local/g16/g16/l601.exe)
 Copying SCF densities to generalized density rwf, IOpCl= 0 IROHF=0.

 **********************************************************************

            Population analysis using the SCF density.

 **********************************************************************

 Orbital symmetries:
       Occupied  (A) (A) (A) (A) (A) (A) (A) (A) (A) (A) (A) (A)
                 (A) (A) (A) (A) (A) (A) (A) (A) (A) (A) (A) (A)
                 (A) (A) (A)
       Virtual   (A) (A) (A) (A) (A) (A) (A) (A) (A) (A) (A) (A)
                 (A) (A) (A) (A) (A) (A) (A) (A) (A) (A) (A) (A)
                 (A) (A) (A) (A) (A) (A) (A) (A) (A) (A) (A) (A)
                 (A) (A) (A) (A) (A) (A) (A) (A) (A) (A) (A) (A)
                 (A) (A) (A) (A) (A) (A) (A) (A) (A) (A) (A) (A)
                 (A) (A) (A) (A) (A) (A) (A) (A) (A) (A) (A) (A)
                 (A) (A) (A) (A) (A) (A) (A) (A) (A) (A) (A) (A)
                 (A) (A) (A) (A) (A) (A) (A) (A) (A) (A) (A) (A)
                 (A) (A) (A) (A) (A) (A) (A) (A) (A) (A) (A) (A)
                 (A) (A) (A) (A) (A) (A) (A) (A) (A) (A) (A) (A)
                 (A) (A) (A) (A) (A) (A) (A) (A) (A) (A) (A) (A)
                 (A) (A) (A) (A) (A) (A) (A) (A) (A) (A) (A) (A)
                 (A) (A) (A) (A) (A) (A) (A) (A) (A) (A) (A) (A)
                 (A) (A) (A) (A) (A) (A) (A) (A) (A) (A) (A) (A)
                 (A) (A)
 The electronic state is 1-A.
 Alpha  occ. eigenvalues -- -520.17980 -69.91736 -63.02394 -63.02392 -63.02388
 Alpha  occ. eigenvalues --  -20.63084 -20.62790 -10.86402  -8.34623  -8.34601
 Alpha  occ. eigenvalues --   -8.34583  -3.84004  -3.84000  -3.83976  -3.83954
 Alpha  occ. eigenvalues --   -3.83950  -1.46788  -1.21797  -1.17005  -0.74167
 Alpha  occ. eigenvalues --   -0.68862  -0.60400  -0.54543  -0.53939  -0.53380
 Alpha  occ. eigenvalues --   -0.50123  -0.49307
 Alpha virt. eigenvalues --    0.03444   0.04526   0.08822   0.09866   0.11655
 Alpha virt. eigenvalues --    0.12619   0.14469   0.15695   0.17808   0.18823
 Alpha virt. eigenvalues --    0.19077   0.21194   0.22918   0.25706   0.26814
 Alpha virt. eigenvalues --    0.27864   0.28329   0.31014   0.33541   0.35030
 Alpha virt. eigenvalues --    0.35942   0.37679   0.39022   0.41750   0.41999
 Alpha virt. eigenvalues --    0.43994   0.46661   0.51482   0.56809   0.59135
 Alpha virt. eigenvalues --    0.59904   0.65398   0.66248   0.69347   0.73738
 Alpha virt. eigenvalues --    0.76335   0.77610   0.78893   0.81647   0.81881
 Alpha virt. eigenvalues --    0.82414   0.83835   0.86124   0.86798   0.88972
 Alpha virt. eigenvalues --    0.90085   0.91560   0.94042   0.94456   0.96706
 Alpha virt. eigenvalues --    0.98619   0.99264   1.00940   1.02321   1.04584
 Alpha virt. eigenvalues --    1.06097   1.10307   1.14024   1.14732   1.16383
 Alpha virt. eigenvalues --    1.17185   1.22998   1.24534   1.30140   1.30597
 Alpha virt. eigenvalues --    1.32605   1.35815   1.44775   1.47196   1.50192
 Alpha virt. eigenvalues --    1.52567   1.57752   1.60360   1.63026   1.69254
 Alpha virt. eigenvalues --    1.78969   1.84285   1.95821   2.06211   2.10258
 Alpha virt. eigenvalues --    2.13371   2.18138   2.20053   2.26567   2.32813
 Alpha virt. eigenvalues --    2.34172   2.36754   2.38115   2.41524   2.43089
 Alpha virt. eigenvalues --    2.44904   2.46401   2.48599   2.52299   2.53279
 Alpha virt. eigenvalues --    2.56406   2.58035   2.62475   2.63977   2.66757
 Alpha virt. eigenvalues --    2.69073   2.69429   2.69618   2.74206   2.76962
 Alpha virt. eigenvalues --    2.78456   2.80072   2.83328   2.84147   2.89557
 Alpha virt. eigenvalues --    2.93319   2.93615   2.95539   3.03091   3.07621
 Alpha virt. eigenvalues --    3.13008   3.24425   3.31004   3.32451   3.83250
 Alpha virt. eigenvalues --    3.86804   4.09198   4.19694   4.27526   4.34031
 Alpha virt. eigenvalues --    4.37213   4.39598   4.41907   4.48626   4.50102
 Alpha virt. eigenvalues --    4.54729   4.76126   4.80889   4.84694   4.95003
 Alpha virt. eigenvalues --    5.16294   5.21797   5.23686   5.42504   5.44259
 Alpha virt. eigenvalues --    5.48852   5.80187   6.17992   6.38423   6.47284
 Alpha virt. eigenvalues --    6.53311   6.62011   6.64513   6.80758   6.83015
 Alpha virt. eigenvalues --    6.94530   7.16656   7.17898   7.19429   7.22511
 Alpha virt. eigenvalues --    7.24635   7.28115   7.31407   7.34262   7.38608
 Alpha virt. eigenvalues --    7.47834   7.52134   7.61246   7.84155   8.00946
 Alpha virt. eigenvalues --    8.20092   8.50899   8.53528  14.70564  15.33137
          Condensed to atoms (all electrons):
               1          2          3          4          5
     1  O    8.123918  -0.075480   0.244773  -0.010062  -0.021818
     2  O   -0.075480   8.147973   0.002153   0.241131  -0.014064
     3  H    0.244773   0.002153   0.489376   0.000550  -0.002651
     4  H   -0.010062   0.241131   0.000550   0.487257  -0.003618
     5  Kr  -0.021818  -0.014064  -0.002651  -0.003618  36.029649
 Mulliken charges:
               1
     1  O   -0.261331
     2  O   -0.301712
     3  H    0.265799
     4  H    0.284743
     5  Kr   0.012502
 Sum of Mulliken charges =  -0.00000
 Mulliken charges with hydrogens summed into heavy atoms:
               1
     1  O    0.004468
     2  O   -0.016970
     5  Kr   0.012502
         Mulliken charges condensed to fragments:
      1     -0.012502
      2      0.012502
 Electronic spatial extent (au):  <R**2>=            484.1325
 Charge=             -0.0000 electrons
 Dipole moment (field-independent basis, Debye):
    X=              1.8020    Y=             -0.3829    Z=              1.5666  Tot=              2.4182
 Quadrupole moment (field-independent basis, Debye-Ang):
   XX=            -34.9945   YY=            -27.8294   ZZ=            -28.8395
   XY=              2.3599   XZ=             -3.3963   YZ=             -1.9257
 Traceless Quadrupole moment (field-independent basis, Debye-Ang):
   XX=             -4.4401   YY=              2.7251   ZZ=              1.7150
   XY=              2.3599   XZ=             -3.3963   YZ=             -1.9257
 Octapole moment (field-independent basis, Debye-Ang**2):
  XXX=             33.6217  YYY=             -1.0688  ZZZ=              1.3350  XYY=              4.8763
  XXY=             -7.4343  XXZ=              6.7216  XZZ=              4.7973  YZZ=             -1.8974
  YYZ=              2.4113  XYZ=              4.1014
 Hexadecapole moment (field-independent basis, Debye-Ang**3):
 XXXX=           -449.0338 YYYY=            -62.1247 ZZZZ=            -28.8693 XXXY=             16.2905
 XXXZ=            -14.8938 YYYX=              4.3592 YYYZ=             -2.8396 ZZZX=             -3.2746
 ZZZY=             -2.1128 XXYY=            -80.1964 XXZZ=            -70.7193 YYZZ=            -15.4630
 XXYZ=             -8.8503 YYXZ=             -4.9564 ZZXY=              3.7172
 N-N= 1.493716950693D+02 E-N=-7.239074089742D+03  KE= 2.902635043971D+03
 Leave Link  601 at Thu Apr  2 11:12:30 2020, MaxMem=  2147483648 cpu:               0.6 elap:               0.1
 (Enter /usr/local/g16/g16/l122.exe)
 CPIOFr:  IOpCl= 0 IRwI=-1 IRwCP=  731 ICalc= -1 LCPTot=       59414 Len1MO=      159453 IndFrg=       59414
 CPIOFr:  IOpCl= 0 IRwI=-1 IRwCP=  731 ICalc=  0 LCPTot=       59414 Len1MO=      159453 IndFrg=      218867
 Counterpoise: doing calculation for fragment   1 using the basis set of the full-system, NewBq=T
 Leave Link  122 at Thu Apr  2 11:12:30 2020, MaxMem=  2147483648 cpu:               0.0 elap:               0.0
 (Enter /usr/local/g16/g16/l301.exe)
 Basis read from rwf:  (5D, 7F)
 No pseudopotential information found on rwf file.
 There are   229 symmetry adapted cartesian basis functions of A   symmetry.
 There are   197 symmetry adapted basis functions of A   symmetry.
   197 basis functions,   415 primitive gaussians,   229 cartesian basis functions
     9 alpha electrons        9 beta electrons
       nuclear repulsion energy        36.6265005492 Hartrees.
 IExCor=    0 DFT=F Ex=HF Corr=None ExCW=0 ScaHFX=  1.000000
 ScaDFX=  1.000000  1.000000  1.000000  1.000000 ScalE2=  1.000000  1.000000
 IRadAn=      5 IRanWt=     -1 IRanGd=            0 ICorTp=0 IEmpDi=  4
 NAtoms=    5 NActive=    5 NUniq=    5 SFac= 1.00D+00 NAtFMM=   60 NAOKFM=F Big=F
 Integral buffers will be    131072 words long.
 Raffenetti 1 integral format.
 Two-electron integral symmetry is turned on.
 No density basis found on file   718.
 Leave Link  301 at Thu Apr  2 11:12:30 2020, MaxMem=  2147483648 cpu:               0.4 elap:               0.0
 (Enter /usr/local/g16/g16/l302.exe)
 NPDir=0 NMtPBC=     1 NCelOv=     1 NCel=       1 NClECP=     1 NCelD=      1
         NCelK=      1 NCelE2=     1 NClLst=     1 CellRange=     0.0.
 One-electron integrals computed using PRISM.
 One-electron integral symmetry used in STVInt
 NBasis=   197 RedAO= T EigKep=  2.11D-04  NBF=   197
 NBsUse=   197 1.00D-06 EigRej= -1.00D+00 NBFU=   197
 Leave Link  302 at Thu Apr  2 11:12:30 2020, MaxMem=  2147483648 cpu:               1.7 elap:               0.1
 (Enter /usr/local/g16/g16/l303.exe)
 DipDrv:  MaxL=1.
 Leave Link  303 at Thu Apr  2 11:12:30 2020, MaxMem=  2147483648 cpu:               0.4 elap:               0.0
 (Enter /usr/local/g16/g16/l401.exe)
 ExpMin= 2.53D-02 ExpMax= 1.17D+07 ExpMxC= 1.33D+04 IAcc=3 IRadAn=         5 AccDes= 0.00D+00
 Harris functional with IExCor=  205 and IRadAn=       5 diagonalized for initial guess.
 HarFok:  IExCor=  205 AccDes= 0.00D+00 IRadAn=         5 IDoV= 1 UseB2=F ITyADJ=14
 ICtDFT=  3500011 ScaDFX=  1.000000  1.000000  1.000000  1.000000
 FoFCou: FMM=F IPFlag=           0 FMFlag=      100000 FMFlg1=           0
         NFxFlg=           0 DoJE=T BraDBF=F KetDBF=T FulRan=T
         wScrn=  0.000000 ICntrl=       500 IOpCl=  0 I1Cent=   200000004 NGrid=           0
         NMat0=    1 NMatS0=      1 NMatT0=    0 NMatD0=    1 NMtDS0=    0 NMtDT0=    0
 Petite list used in FoFCou.
 Harris En= -150.936331097107    
 JPrj=0 DoOrth=F DoCkMO=F.
 Leave Link  401 at Thu Apr  2 11:12:30 2020, MaxMem=  2147483648 cpu:               3.1 elap:               0.2
 (Enter /usr/local/g16/g16/l502.exe)
 Keep R1 ints in memory in canonical form, NReq=203135247.
 FoFCou: FMM=F IPFlag=           0 FMFlag=           0 FMFlg1=           0
         NFxFlg=           0 DoJE=F BraDBF=F KetDBF=F FulRan=T
         wScrn=  0.000000 ICntrl=       600 IOpCl=  0 I1Cent=           0 NGrid=           0
         NMat0=    1 NMatS0=  19503 NMatT0=    0 NMatD0=    1 NMtDS0=    0 NMtDT0=    0
 Symmetry not used in FoFCou.
 Two-electron integral symmetry not used.
 Closed shell SCF:
 Using DIIS extrapolation, IDIIS=  1040.
 NGot=  2147483648 LenX=  1957179903 LenY=  1957127021
 Requested convergence on RMS density matrix=1.00D-08 within 128 cycles.
 Requested convergence on MAX density matrix=1.00D-06.
 Requested convergence on             energy=1.00D-06.
 No special actions if energy rises.

 Cycle   1  Pass 1  IDiag  1:
 E= -150.773454769037    
 DIIS: error= 2.68D-02 at cycle   1 NSaved=   1.
 NSaved= 1 IEnMin= 1 EnMin= -150.773454769037     IErMin= 1 ErrMin= 2.68D-02
 ErrMax= 2.68D-02  0.00D+00 EMaxC= 1.00D-01 BMatC= 2.28D-01 BMatP= 2.28D-01
 IDIUse=3 WtCom= 7.32D-01 WtEn= 2.68D-01
 Coeff-Com:  0.100D+01
 Coeff-En:   0.100D+01
 Coeff:      0.100D+01
 Gap=     0.726 Goal=   None    Shift=    0.000
 GapD=    0.726 DampG=2.000 DampE=0.500 DampFc=1.0000 IDamp=-1.
 RMSDP=9.14D-04 MaxDP=2.89D-02              OVMax= 6.43D-02

 Cycle   2  Pass 1  IDiag  1:
 E= -150.826368172991     Delta-E=       -0.052913403954 Rises=F Damp=F
 DIIS: error= 7.57D-03 at cycle   2 NSaved=   2.
 NSaved= 2 IEnMin= 2 EnMin= -150.826368172991     IErMin= 2 ErrMin= 7.57D-03
 ErrMax= 7.57D-03  0.00D+00 EMaxC= 1.00D-01 BMatC= 1.61D-02 BMatP= 2.28D-01
 IDIUse=3 WtCom= 9.24D-01 WtEn= 7.57D-02
 Coeff-Com:  0.105D+00 0.895D+00
 Coeff-En:   0.000D+00 0.100D+01
 Coeff:      0.975D-01 0.903D+00
 Gap=     0.552 Goal=   None    Shift=    0.000
 RMSDP=4.94D-04 MaxDP=2.55D-02 DE=-5.29D-02 OVMax= 2.86D-02

 Cycle   3  Pass 1  IDiag  1:
 E= -150.834436606217     Delta-E=       -0.008068433226 Rises=F Damp=F
 DIIS: error= 2.82D-03 at cycle   3 NSaved=   3.
 NSaved= 3 IEnMin= 3 EnMin= -150.834436606217     IErMin= 3 ErrMin= 2.82D-03
 ErrMax= 2.82D-03  0.00D+00 EMaxC= 1.00D-01 BMatC= 2.31D-03 BMatP= 1.61D-02
 IDIUse=3 WtCom= 9.72D-01 WtEn= 2.82D-02
 Coeff-Com: -0.209D-01 0.254D+00 0.767D+00
 Coeff-En:   0.000D+00 0.000D+00 0.100D+01
 Coeff:     -0.203D-01 0.247D+00 0.773D+00
 Gap=     0.523 Goal=   None    Shift=    0.000
 RMSDP=1.11D-04 MaxDP=4.07D-03 DE=-8.07D-03 OVMax= 9.14D-03

 Cycle   4  Pass 1  IDiag  1:
 E= -150.835879063718     Delta-E=       -0.001442457502 Rises=F Damp=F
 DIIS: error= 2.05D-04 at cycle   4 NSaved=   4.
 NSaved= 4 IEnMin= 4 EnMin= -150.835879063718     IErMin= 4 ErrMin= 2.05D-04
 ErrMax= 2.05D-04  0.00D+00 EMaxC= 1.00D-01 BMatC= 1.49D-05 BMatP= 2.31D-03
 IDIUse=3 WtCom= 9.98D-01 WtEn= 2.05D-03
 Coeff-Com: -0.177D-02-0.106D-01 0.818D-02 0.100D+01
 Coeff-En:   0.000D+00 0.000D+00 0.000D+00 0.100D+01
 Coeff:     -0.177D-02-0.106D-01 0.816D-02 0.100D+01
 Gap=     0.524 Goal=   None    Shift=    0.000
 RMSDP=1.63D-05 MaxDP=3.96D-04 DE=-1.44D-03 OVMax= 1.39D-03

 Cycle   5  Pass 1  IDiag  1:
 E= -150.835900943569     Delta-E=       -0.000021879850 Rises=F Damp=F
 DIIS: error= 7.03D-05 at cycle   5 NSaved=   5.
 NSaved= 5 IEnMin= 5 EnMin= -150.835900943569     IErMin= 5 ErrMin= 7.03D-05
 ErrMax= 7.03D-05  0.00D+00 EMaxC= 1.00D-01 BMatC= 1.55D-06 BMatP= 1.49D-05
 IDIUse=1 WtCom= 1.00D+00 WtEn= 0.00D+00
 Coeff-Com:  0.170D-02-0.168D-01-0.580D-01-0.168D+00 0.124D+01
 Coeff:      0.170D-02-0.168D-01-0.580D-01-0.168D+00 0.124D+01
 Gap=     0.525 Goal=   None    Shift=    0.000
 RMSDP=9.31D-06 MaxDP=2.67D-04 DE=-2.19D-05 OVMax= 9.04D-04

 Cycle   6  Pass 1  IDiag  1:
 E= -150.835904921265     Delta-E=       -0.000003977697 Rises=F Damp=F
 DIIS: error= 1.91D-05 at cycle   6 NSaved=   6.
 NSaved= 6 IEnMin= 6 EnMin= -150.835904921265     IErMin= 6 ErrMin= 1.91D-05
 ErrMax= 1.91D-05  0.00D+00 EMaxC= 1.00D-01 BMatC= 9.75D-08 BMatP= 1.55D-06
 IDIUse=1 WtCom= 1.00D+00 WtEn= 0.00D+00
 Coeff-Com: -0.516D-03 0.627D-02 0.221D-01 0.321D-01-0.522D+00 0.146D+01
 Coeff:     -0.516D-03 0.627D-02 0.221D-01 0.321D-01-0.522D+00 0.146D+01
 Gap=     0.525 Goal=   None    Shift=    0.000
 RMSDP=3.35D-06 MaxDP=8.65D-05 DE=-3.98D-06 OVMax= 4.11D-04

 Cycle   7  Pass 1  IDiag  1:
 E= -150.835905277450     Delta-E=       -0.000000356184 Rises=F Damp=F
 DIIS: error= 4.84D-06 at cycle   7 NSaved=   7.
 NSaved= 7 IEnMin= 7 EnMin= -150.835905277450     IErMin= 7 ErrMin= 4.84D-06
 ErrMax= 4.84D-06  0.00D+00 EMaxC= 1.00D-01 BMatC= 8.63D-09 BMatP= 9.75D-08
 IDIUse=1 WtCom= 1.00D+00 WtEn= 0.00D+00
 Coeff-Com:  0.137D-03-0.192D-02-0.739D-02-0.543D-02 0.174D+00-0.670D+00
 Coeff-Com:  0.151D+01
 Coeff:      0.137D-03-0.192D-02-0.739D-02-0.543D-02 0.174D+00-0.670D+00
 Coeff:      0.151D+01
 Gap=     0.525 Goal=   None    Shift=    0.000
 RMSDP=1.05D-06 MaxDP=2.31D-05 DE=-3.56D-07 OVMax= 1.58D-04

 Cycle   8  Pass 1  IDiag  1:
 E= -150.835905315338     Delta-E=       -0.000000037889 Rises=F Damp=F
 DIIS: error= 2.05D-06 at cycle   8 NSaved=   8.
 NSaved= 8 IEnMin= 8 EnMin= -150.835905315338     IErMin= 8 ErrMin= 2.05D-06
 ErrMax= 2.05D-06  0.00D+00 EMaxC= 1.00D-01 BMatC= 1.31D-09 BMatP= 8.63D-09
 IDIUse=1 WtCom= 1.00D+00 WtEn= 0.00D+00
 Coeff-Com:  0.112D-05 0.151D-03 0.981D-03-0.307D-02-0.170D-01 0.161D+00
 Coeff-Com: -0.854D+00 0.171D+01
 Coeff:      0.112D-05 0.151D-03 0.981D-03-0.307D-02-0.170D-01 0.161D+00
 Coeff:     -0.854D+00 0.171D+01
 Gap=     0.525 Goal=   None    Shift=    0.000
 RMSDP=5.03D-07 MaxDP=1.24D-05 DE=-3.79D-08 OVMax= 8.35D-05

 Cycle   9  Pass 1  IDiag  1:
 E= -150.835905321764     Delta-E=       -0.000000006426 Rises=F Damp=F
 DIIS: error= 5.75D-07 at cycle   9 NSaved=   9.
 NSaved= 9 IEnMin= 9 EnMin= -150.835905321764     IErMin= 9 ErrMin= 5.75D-07
 ErrMax= 5.75D-07  0.00D+00 EMaxC= 1.00D-01 BMatC= 1.22D-10 BMatP= 1.31D-09
 IDIUse=1 WtCom= 1.00D+00 WtEn= 0.00D+00
 Coeff-Com: -0.109D-04 0.183D-03 0.782D-03 0.251D-03-0.188D-01 0.878D-01
 Coeff-Com: -0.286D+00 0.336D+00 0.879D+00
 Coeff:     -0.109D-04 0.183D-03 0.782D-03 0.251D-03-0.188D-01 0.878D-01
 Coeff:     -0.286D+00 0.336D+00 0.879D+00
 Gap=     0.525 Goal=   None    Shift=    0.000
 RMSDP=7.91D-08 MaxDP=2.31D-06 DE=-6.43D-09 OVMax= 1.19D-05

 Cycle  10  Pass 1  IDiag  1:
 E= -150.835905322010     Delta-E=       -0.000000000246 Rises=F Damp=F
 DIIS: error= 2.77D-07 at cycle  10 NSaved=  10.
 NSaved=10 IEnMin=10 EnMin= -150.835905322010     IErMin=10 ErrMin= 2.77D-07
 ErrMax= 2.77D-07  0.00D+00 EMaxC= 1.00D-01 BMatC= 2.60D-11 BMatP= 1.22D-10
 IDIUse=1 WtCom= 1.00D+00 WtEn= 0.00D+00
 Coeff-Com: -0.346D-05 0.912D-05-0.528D-04 0.122D-02-0.173D-02-0.171D-01
 Coeff-Com:  0.151D+00-0.367D+00 0.202D+00 0.103D+01
 Coeff:     -0.346D-05 0.912D-05-0.528D-04 0.122D-02-0.173D-02-0.171D-01
 Coeff:      0.151D+00-0.367D+00 0.202D+00 0.103D+01
 Gap=     0.525 Goal=   None    Shift=    0.000
 RMSDP=4.05D-08 MaxDP=1.17D-06 DE=-2.46D-10 OVMax= 5.55D-06

 Cycle  11  Pass 1  IDiag  1:
 E= -150.835905322059     Delta-E=       -0.000000000049 Rises=F Damp=F
 DIIS: error= 4.10D-08 at cycle  11 NSaved=  11.
 NSaved=11 IEnMin=11 EnMin= -150.835905322059     IErMin=11 ErrMin= 4.10D-08
 ErrMax= 4.10D-08  0.00D+00 EMaxC= 1.00D-01 BMatC= 5.66D-13 BMatP= 2.60D-11
 IDIUse=1 WtCom= 1.00D+00 WtEn= 0.00D+00
 Coeff-Com:  0.123D-05-0.153D-04-0.500D-04-0.713D-04 0.125D-02-0.327D-02
 Coeff-Com: -0.138D-02 0.246D-01-0.778D-01-0.108D+00 0.116D+01
 Coeff:      0.123D-05-0.153D-04-0.500D-04-0.713D-04 0.125D-02-0.327D-02
 Coeff:     -0.138D-02 0.246D-01-0.778D-01-0.108D+00 0.116D+01
 Gap=     0.525 Goal=   None    Shift=    0.000
 RMSDP=6.43D-09 MaxDP=1.40D-07 DE=-4.93D-11 OVMax= 6.97D-07

 SCF Done:  E(RHF) =  -150.835905322     A.U. after   11 cycles
            NFock= 11  Conv=0.64D-08     -V/T= 2.0021
 KE= 1.505224955392D+02 PE=-4.314604557647D+02 EE= 9.347555435429D+01
 Leave Link  502 at Thu Apr  2 11:12:33 2020, MaxMem=  2147483648 cpu:              25.8 elap:               3.2
 (Enter /usr/local/g16/g16/l801.exe)
 Windowed orbitals will be sorted by symmetry type.
 ExpMin= 2.53D-02 ExpMax= 1.17D+07 ExpMxC= 1.33D+04 IAcc=3 IRadAn=         5 AccDes= 0.00D+00
 HarFok:  IExCor=  205 AccDes= 0.00D+00 IRadAn=         5 IDoV=-2 UseB2=F ITyADJ=14
 ICtDFT= 12500011 ScaDFX=  1.000000  1.000000  1.000000  1.000000
 Largest valence mixing into a core orbital is  1.19D-04
 Largest core mixing into a valence orbital is  2.06D-05
 Range of M.O.s used for correlation:     3   197
 NBasis=   197 NAE=     9 NBE=     9 NFC=     2 NFV=     0
 NROrb=    195 NOA=     7 NOB=     7 NVA=   188 NVB=   188

 **** Warning!!: The largest alpha MO coefficient is  0.15208284D+02

 Leave Link  801 at Thu Apr  2 11:12:33 2020, MaxMem=  2147483648 cpu:               0.6 elap:               0.0
 (Enter /usr/local/g16/g16/l804.exe)
 Closed-shell transformation, MDV=  2147483648 ITran=4 ISComp=1.
 Semi-Direct transformation.
 ModeAB=           2 MOrb=             7 LenV=    2146281439
 LASXX=     25261509 LTotXX=    25261509 LenRXX=    25261509
 LTotAB=    25646992 MaxLAS=    35947275 LenRXY=    35947275
 NonZer=    50523018 LenScr=    76544000 LnRSAI=           0
 LnScr1=           0 LExtra=           0 Total=    137752784
 MaxDsk=          -1 SrtSym=           F ITran=            4
 DoSDTr:  NPSUse= 16
 JobTyp=0 Pass  1:  I=   1 to   7.
 (rs|ai) integrals will be sorted in core.
 Complete sort for first half transformation.
 First half transformation complete.
 Complete sort for second half transformation.
 Second half transformation complete.
 SymMOI:  orbitals are not symmetric.
 Spin components of T(2) and E(2):
     alpha-alpha T2 =       0.1602684593D-01 E2=     -0.6285484970D-01
     alpha-beta  T2 =       0.9332016776D-01 E2=     -0.3821773105D+00
     beta-beta   T2 =       0.1602684593D-01 E2=     -0.6285484970D-01
 ANorm=    0.1060836396D+01
 E2 =    -0.5078870099D+00 EUMP2 =    -0.15134379233192D+03
 Leave Link  804 at Thu Apr  2 11:12:41 2020, MaxMem=  2147483648 cpu:             118.0 elap:               7.4
 (Enter /usr/local/g16/g16/l913.exe)
 CIDS:  MDV=  2147483648.
 Frozen-core window:  NFC=   2 NFV=   0.
 IFCWin=0 IBDFC=1 NFBD=     0     0 NFCmp=     0     0 NFFFC=     0     0
 Using DD3R+UMP44R for 1st iteration.
 Using DD4RQ for 2nd and later iterations.
 Keep R2 and R3 ints in memory in canonical form, NReq=393333924.
 FoFCou: FMM=F IPFlag=           0 FMFlag=           0 FMFlg1=           0
         NFxFlg=           0 DoJE=F BraDBF=F KetDBF=F FulRan=T
         wScrn=  0.000000 ICntrl=       600 IOpCl=  0 I1Cent=           0 NGrid=           0
         NMat0=    1 NMatS0=  19503 NMatT0=    0 NMatD0=    1 NMtDS0=    0 NMtDT0=    0
 Symmetry not used in FoFCou.
 Two-electron integral symmetry not used.
 CIDS: In Core Option IDoMem=           1.
 MP4(SDTQ)
 =========
 Produce multiple copies of IABC intergrals
 DD1Dir will call FoFMem   1 times, MxPair=        56
 NAB=    28 NAA=     0 NBB=     0.
 MP4(D)= -0.11282181D-01
 MP4(S)= -0.52218994D-02
 MP4(R+Q)=  0.10781862D-01
 T4(AAA)= -0.66117229D-03
 T4(AAB)= -0.10285153D-01
 Time for triples=      369.64 seconds.
 MP4(T)=   -0.21892652D-01
 E3=       -0.20419279D-02        EUMP3=      -0.15134583426D+03
 E4(DQ)=   -0.50031850D-03        UMP4(DQ)=   -0.15134633458D+03
 E4(SDQ)=  -0.57222179D-02        UMP4(SDQ)=  -0.15135155648D+03
 E4(SDTQ)= -0.27614869D-01        UMP4(SDTQ)= -0.15137344913D+03
 VARIATIONAL ENERGIES WITH THE FIRST-ORDER WAVEFUNCTION:
 E(VAR1)=  -0.15128902491D+03     E(CISD,4)=  -0.15129866259D+03
 Largest amplitude= 3.12D-02
 Discarding MO integrals.
 Leave Link  913 at Thu Apr  2 11:13:07 2020, MaxMem=  2147483648 cpu:             424.8 elap:              26.6
 (Enter /usr/local/g16/g16/l601.exe)
 Copying SCF densities to generalized density rwf, IOpCl= 0 IROHF=0.

 **********************************************************************

            Population analysis using the SCF density.

 **********************************************************************

 Orbital symmetries:
       Occupied  (A) (A) (A) (A) (A) (A) (A) (A) (A)
       Virtual   (A) (A) (A) (A) (A) (A) (A) (A) (A) (A) (A) (A)
                 (A) (A) (A) (A) (A) (A) (A) (A) (A) (A) (A) (A)
                 (A) (A) (A) (A) (A) (A) (A) (A) (A) (A) (A) (A)
                 (A) (A) (A) (A) (A) (A) (A) (A) (A) (A) (A) (A)
                 (A) (A) (A) (A) (A) (A) (A) (A) (A) (A) (A) (A)
                 (A) (A) (A) (A) (A) (A) (A) (A) (A) (A) (A) (A)
                 (A) (A) (A) (A) (A) (A) (A) (A) (A) (A) (A) (A)
                 (A) (A) (A) (A) (A) (A) (A) (A) (A) (A) (A) (A)
                 (A) (A) (A) (A) (A) (A) (A) (A) (A) (A) (A) (A)
                 (A) (A) (A) (A) (A) (A) (A) (A) (A) (A) (A) (A)
                 (A) (A) (A) (A) (A) (A) (A) (A) (A) (A) (A) (A)
                 (A) (A) (A) (A) (A) (A) (A) (A) (A) (A) (A) (A)
                 (A) (A) (A) (A) (A) (A) (A) (A) (A) (A) (A) (A)
                 (A) (A) (A) (A) (A) (A) (A) (A) (A) (A) (A) (A)
                 (A) (A) (A) (A) (A) (A) (A) (A) (A) (A) (A) (A)
                 (A) (A) (A) (A) (A) (A) (A) (A)
 The electronic state is 1-A.
 Alpha  occ. eigenvalues --  -20.63386 -20.63358  -1.46994  -1.21988  -0.74154
 Alpha  occ. eigenvalues --   -0.68649  -0.60455  -0.50605  -0.49755
 Alpha virt. eigenvalues --    0.02717   0.04021   0.07275   0.08435   0.10349
 Alpha virt. eigenvalues --    0.11162   0.13228   0.14821   0.17657   0.17992
 Alpha virt. eigenvalues --    0.19075   0.20995   0.23235   0.26793   0.26957
 Alpha virt. eigenvalues --    0.27905   0.31673   0.31841   0.33879   0.34264
 Alpha virt. eigenvalues --    0.34786   0.37475   0.37722   0.41518   0.42736
 Alpha virt. eigenvalues --    0.44486   0.44741   0.48609   0.49519   0.50917
 Alpha virt. eigenvalues --    0.55372   0.58869   0.65236   0.66498   0.70210
 Alpha virt. eigenvalues --    0.75411   0.78690   0.80847   0.81540   0.83946
 Alpha virt. eigenvalues --    0.85090   0.85412   0.91886   0.93098   0.94719
 Alpha virt. eigenvalues --    0.95830   0.96873   0.98128   1.00379   1.02113
 Alpha virt. eigenvalues --    1.02524   1.04298   1.08509   1.13635   1.14205
 Alpha virt. eigenvalues --    1.17545   1.17750   1.23248   1.26657   1.27731
 Alpha virt. eigenvalues --    1.28658   1.30322   1.31663   1.33335   1.34154
 Alpha virt. eigenvalues --    1.35609   1.36613   1.39918   1.43069   1.46378
 Alpha virt. eigenvalues --    1.47645   1.54587   1.54743   1.56205   1.60314
 Alpha virt. eigenvalues --    1.65475   1.70112   1.72214   1.79239   1.87516
 Alpha virt. eigenvalues --    1.89825   1.97109   2.07717   2.10774   2.16641
 Alpha virt. eigenvalues --    2.18708   2.20928   2.30676   2.34191   2.37764
 Alpha virt. eigenvalues --    2.41228   2.44678   2.49849   2.51224   2.52854
 Alpha virt. eigenvalues --    2.63049   2.66243   2.70626   2.75239   2.79045
 Alpha virt. eigenvalues --    2.82573   2.85457   2.96308   3.05907   3.11411
 Alpha virt. eigenvalues --    3.22260   3.25841   3.27459   3.29606   3.32730
 Alpha virt. eigenvalues --    3.44301   3.56886   3.75520   3.77922   3.79025
 Alpha virt. eigenvalues --    3.81187   3.82175   3.82523   3.84094   3.87169
 Alpha virt. eigenvalues --    3.90976   3.92469   3.99159   4.00109   4.02092
 Alpha virt. eigenvalues --    4.09947   4.17814   4.24424   4.32411   4.35277
 Alpha virt. eigenvalues --    4.37990   4.41074   4.48752   4.50267   4.53154
 Alpha virt. eigenvalues --    4.57452   4.77018   4.84831   4.94199   5.16285
 Alpha virt. eigenvalues --    5.21835   5.23587   5.42414   5.44433   5.48912
 Alpha virt. eigenvalues --    5.79863   6.17765   6.37752   6.47122   6.53065
 Alpha virt. eigenvalues --    6.61817   6.64346   6.80575   6.82866   6.94301
 Alpha virt. eigenvalues --    7.16454   7.17629   7.18859   7.22217   7.24410
 Alpha virt. eigenvalues --    7.27800   7.31040   7.33987   7.38304   7.47568
 Alpha virt. eigenvalues --    7.51847   7.60823   7.83878   8.00680   8.19761
 Alpha virt. eigenvalues --    8.50428   8.52677  10.88031  14.69332  14.83169
 Alpha virt. eigenvalues --   14.87714  15.08641  15.33856  29.02900  29.03007
 Alpha virt. eigenvalues --   29.07774  29.13064  29.22788  49.09085 148.31394
 Alpha virt. eigenvalues --  148.38079 148.70297 752.47204
          Condensed to atoms (all electrons):
               1          2          3          4          5
     1  O    8.096697  -0.072973   0.245232  -0.009641  -0.000166
     2  O   -0.072973   8.130460   0.001476   0.235725  -0.001514
     3  H    0.245232   0.001476   0.491336   0.001102  -0.001202
     4  H   -0.009641   0.235725   0.001102   0.490477  -0.003149
     5  Kr  -0.000166  -0.001514  -0.001202  -0.003149   0.001248
 Mulliken charges:
               1
     1  O   -0.259150
     2  O   -0.293174
     3  H    0.262055
     4  H    0.285486
     5  Kr   0.004783
 Sum of Mulliken charges =  -0.00000
 Mulliken charges with hydrogens summed into heavy atoms:
               1
     1  O    0.002905
     2  O   -0.007688
     5  Kr   0.004783
         Mulliken charges condensed to fragments:
      1     -0.004783
      2      0.004783
 Electronic spatial extent (au):  <R**2>=            320.3759
 Charge=             -0.0000 electrons
 Dipole moment (field-independent basis, Debye):
    X=              1.6304    Y=             -0.1749    Z=              1.6795  Tot=              2.3473
 Quadrupole moment (field-independent basis, Debye-Ang):
   XX=            -17.1844   YY=            -10.1480   ZZ=            -11.2046
   XY=              2.5067   XZ=             -3.3118   YZ=             -1.9421
 Traceless Quadrupole moment (field-independent basis, Debye-Ang):
   XX=             -4.3388   YY=              2.6977   ZZ=              1.6411
   XY=              2.5067   XZ=             -3.3118   YZ=             -1.9421
 Octapole moment (field-independent basis, Debye-Ang**2):
  XXX=             84.5889  YYY=             -1.3437  ZZZ=              1.5110  XYY=             22.1202
  XXY=             -7.3500  XXZ=              6.8372  XZZ=             22.1014  YZZ=             -1.9894
  YYZ=              2.4704  XYZ=              4.1070
 Hexadecapole moment (field-independent basis, Debye-Ang**3):
 XXXX=           -326.3540 YYYY=            -43.8242 ZZZZ=            -10.6162 XXXY=             15.9961
 XXXZ=            -14.6796 YYYX=              4.1573 YYYZ=             -2.8703 ZZZX=             -3.1526
 ZZZY=             -2.1421 XXYY=            -56.7711 XXZZ=            -47.4888 YYZZ=             -9.3616
 XXYZ=             -8.8660 YYXZ=             -4.9054 ZZXY=              3.6183
 N-N= 3.662650054916D+01 E-N=-4.314604545175D+02  KE= 1.505224955392D+02
 Leave Link  601 at Thu Apr  2 11:13:08 2020, MaxMem=  2147483648 cpu:               0.5 elap:               0.0
 (Enter /usr/local/g16/g16/l122.exe)
 CPIOFr:  IOpCl= 0 IRwI=-1 IRwCP=  731 ICalc=  1 LCPTot=       59414 Len1MO=      159453 IndFrg=      378320
 Counterpoise: doing calculation for fragment   2 using the basis set of the full-system, NewBq=T
 Leave Link  122 at Thu Apr  2 11:13:08 2020, MaxMem=  2147483648 cpu:               0.0 elap:               0.0
 (Enter /usr/local/g16/g16/l301.exe)
 Basis read from rwf:  (5D, 7F)
 No pseudopotential information found on rwf file.
 There are   229 symmetry adapted cartesian basis functions of A   symmetry.
 There are   197 symmetry adapted basis functions of A   symmetry.
   197 basis functions,   415 primitive gaussians,   229 cartesian basis functions
    18 alpha electrons       18 beta electrons
       nuclear repulsion energy         0.0000000000 Hartrees.
 IExCor=    0 DFT=F Ex=HF Corr=None ExCW=0 ScaHFX=  1.000000
 ScaDFX=  1.000000  1.000000  1.000000  1.000000 ScalE2=  1.000000  1.000000
 IRadAn=      5 IRanWt=     -1 IRanGd=            0 ICorTp=0 IEmpDi=  4
 NAtoms=    5 NActive=    5 NUniq=    5 SFac= 1.00D+00 NAtFMM=   60 NAOKFM=F Big=F
 Integral buffers will be    131072 words long.
 Raffenetti 1 integral format.
 Two-electron integral symmetry is turned on.
 No density basis found on file   718.
 Leave Link  301 at Thu Apr  2 11:13:08 2020, MaxMem=  2147483648 cpu:               0.4 elap:               0.0
 (Enter /usr/local/g16/g16/l302.exe)
 NPDir=0 NMtPBC=     1 NCelOv=     1 NCel=       1 NClECP=     1 NCelD=      1
         NCelK=      1 NCelE2=     1 NClLst=     1 CellRange=     0.0.
 One-electron integrals computed using PRISM.
 One-electron integral symmetry used in STVInt
 NBasis=   197 RedAO= T EigKep=  2.11D-04  NBF=   197
 NBsUse=   197 1.00D-06 EigRej= -1.00D+00 NBFU=   197
 Leave Link  302 at Thu Apr  2 11:13:08 2020, MaxMem=  2147483648 cpu:               1.7 elap:               0.1
 (Enter /usr/local/g16/g16/l303.exe)
 DipDrv:  MaxL=1.
 Leave Link  303 at Thu Apr  2 11:13:08 2020, MaxMem=  2147483648 cpu:               0.4 elap:               0.0
 (Enter /usr/local/g16/g16/l401.exe)
 ExpMin= 2.53D-02 ExpMax= 1.17D+07 ExpMxC= 1.33D+04 IAcc=3 IRadAn=         5 AccDes= 0.00D+00
 Harris functional with IExCor=  205 and IRadAn=       5 diagonalized for initial guess.
 HarFok:  IExCor=  205 AccDes= 0.00D+00 IRadAn=         5 IDoV= 1 UseB2=F ITyADJ=14
 ICtDFT=  3500011 ScaDFX=  1.000000  1.000000  1.000000  1.000000
 FoFCou: FMM=F IPFlag=           0 FMFlag=      100000 FMFlg1=           0
         NFxFlg=           0 DoJE=T BraDBF=F KetDBF=T FulRan=T
         wScrn=  0.000000 ICntrl=       500 IOpCl=  0 I1Cent=   200000004 NGrid=           0
         NMat0=    1 NMatS0=      1 NMatT0=    0 NMatD0=    1 NMtDS0=    0 NMtDT0=    0
 Petite list used in FoFCou.
 Harris En= -2751.06001999451    
 JPrj=0 DoOrth=F DoCkMO=F.
 Leave Link  401 at Thu Apr  2 11:13:08 2020, MaxMem=  2147483648 cpu:               2.9 elap:               0.2
 (Enter /usr/local/g16/g16/l502.exe)
 Keep R1 ints in memory in canonical form, NReq=203135247.
 FoFCou: FMM=F IPFlag=           0 FMFlag=           0 FMFlg1=           0
         NFxFlg=           0 DoJE=F BraDBF=F KetDBF=F FulRan=T
         wScrn=  0.000000 ICntrl=       600 IOpCl=  0 I1Cent=           0 NGrid=           0
         NMat0=    1 NMatS0=  19503 NMatT0=    0 NMatD0=    1 NMtDS0=    0 NMtDT0=    0
 Symmetry not used in FoFCou.
 Two-electron integral symmetry not used.
 Closed shell SCF:
 Using DIIS extrapolation, IDIIS=  1040.
 NGot=  2147483648 LenX=  1957179903 LenY=  1957127021
 Requested convergence on RMS density matrix=1.00D-08 within 128 cycles.
 Requested convergence on MAX density matrix=1.00D-06.
 Requested convergence on             energy=1.00D-06.
 No special actions if energy rises.

 Cycle   1  Pass 1  IDiag  1:
 E= -2752.00364389698    
 DIIS: error= 3.81D-02 at cycle   1 NSaved=   1.
 NSaved= 1 IEnMin= 1 EnMin= -2752.00364389698     IErMin= 1 ErrMin= 3.81D-02
 ErrMax= 3.81D-02  0.00D+00 EMaxC= 1.00D-01 BMatC= 4.27D-01 BMatP= 4.27D-01
 IDIUse=3 WtCom= 6.19D-01 WtEn= 3.81D-01
 Coeff-Com:  0.100D+01
 Coeff-En:   0.100D+01
 Coeff:      0.100D+01
 Gap=     0.631 Goal=   None    Shift=    0.000
 GapD=    0.631 DampG=2.000 DampE=0.500 DampFc=1.0000 IDamp=-1.
 RMSDP=1.73D-03 MaxDP=1.29D-01              OVMax= 2.38D-02

 Cycle   2  Pass 1  IDiag  1:
 E= -2752.04698553076     Delta-E=       -0.043341633781 Rises=F Damp=F
 DIIS: error= 6.16D-03 at cycle   2 NSaved=   2.
 NSaved= 2 IEnMin= 2 EnMin= -2752.04698553076     IErMin= 2 ErrMin= 6.16D-03
 ErrMax= 6.16D-03  0.00D+00 EMaxC= 1.00D-01 BMatC= 1.96D-02 BMatP= 4.27D-01
 IDIUse=3 WtCom= 9.38D-01 WtEn= 6.16D-02
 Coeff-Com:  0.152D+00 0.848D+00
 Coeff-En:   0.000D+00 0.100D+01
 Coeff:      0.143D+00 0.857D+00
 Gap=     0.544 Goal=   None    Shift=    0.000
 RMSDP=5.59D-04 MaxDP=3.47D-02 DE=-4.33D-02 OVMax= 1.31D-02

 Cycle   3  Pass 1  IDiag  1:
 E= -2752.05205912200     Delta-E=       -0.005073591240 Rises=F Damp=F
 DIIS: error= 1.23D-03 at cycle   3 NSaved=   3.
 NSaved= 3 IEnMin= 3 EnMin= -2752.05205912200     IErMin= 3 ErrMin= 1.23D-03
 ErrMax= 1.23D-03  0.00D+00 EMaxC= 1.00D-01 BMatC= 6.94D-04 BMatP= 1.96D-02
 IDIUse=3 WtCom= 9.88D-01 WtEn= 1.23D-02
 Coeff-Com: -0.128D-02 0.153D+00 0.848D+00
 Coeff-En:   0.000D+00 0.000D+00 0.100D+01
 Coeff:     -0.126D-02 0.152D+00 0.850D+00
 Gap=     0.555 Goal=   None    Shift=    0.000
 RMSDP=7.33D-05 MaxDP=4.29D-03 DE=-5.07D-03 OVMax= 2.86D-03

 Cycle   4  Pass 1  IDiag  1:
 E= -2752.05226562305     Delta-E=       -0.000206501050 Rises=F Damp=F
 DIIS: error= 4.26D-05 at cycle   4 NSaved=   4.
 NSaved= 4 IEnMin= 4 EnMin= -2752.05226562305     IErMin= 4 ErrMin= 4.26D-05
 ErrMax= 4.26D-05  0.00D+00 EMaxC= 1.00D-01 BMatC= 7.04D-07 BMatP= 6.94D-04
 IDIUse=1 WtCom= 1.00D+00 WtEn= 0.00D+00
 Coeff-Com: -0.366D-03-0.175D-01-0.597D-01 0.108D+01
 Coeff:     -0.366D-03-0.175D-01-0.597D-01 0.108D+01
 Gap=     0.555 Goal=   None    Shift=    0.000
 RMSDP=5.96D-06 MaxDP=2.87D-04 DE=-2.07D-04 OVMax= 2.69D-04

 Cycle   5  Pass 1  IDiag  1:
 E= -2752.05226605207     Delta-E=       -0.000000429020 Rises=F Damp=F
 DIIS: error= 3.13D-06 at cycle   5 NSaved=   5.
 NSaved= 5 IEnMin= 5 EnMin= -2752.05226605207     IErMin= 5 ErrMin= 3.13D-06
 ErrMax= 3.13D-06  0.00D+00 EMaxC= 1.00D-01 BMatC= 6.02D-09 BMatP= 7.04D-07
 IDIUse=1 WtCom= 1.00D+00 WtEn= 0.00D+00
 Coeff-Com:  0.614D-04 0.234D-04-0.514D-02-0.847D-01 0.109D+01
 Coeff:      0.614D-04 0.234D-04-0.514D-02-0.847D-01 0.109D+01
 Gap=     0.555 Goal=   None    Shift=    0.000
 RMSDP=6.59D-07 MaxDP=2.87D-05 DE=-4.29D-07 OVMax= 2.77D-05

 Cycle   6  Pass 1  IDiag  1:
 E= -2752.05226605789     Delta-E=       -0.000000005821 Rises=F Damp=F
 DIIS: error= 2.57D-07 at cycle   6 NSaved=   6.
 NSaved= 6 IEnMin= 6 EnMin= -2752.05226605789     IErMin= 6 ErrMin= 2.57D-07
 ErrMax= 2.57D-07  0.00D+00 EMaxC= 1.00D-01 BMatC= 4.06D-11 BMatP= 6.02D-09
 IDIUse=1 WtCom= 1.00D+00 WtEn= 0.00D+00
 Coeff-Com: -0.302D-05 0.965D-04 0.867D-03-0.184D-02-0.935D-01 0.109D+01
 Coeff:     -0.302D-05 0.965D-04 0.867D-03-0.184D-02-0.935D-01 0.109D+01
 Gap=     0.555 Goal=   None    Shift=    0.000
 RMSDP=6.47D-08 MaxDP=3.79D-06 DE=-5.82D-09 OVMax= 3.31D-06

 Cycle   7  Pass 1  IDiag  1:
 E= -2752.05226605793     Delta-E=       -0.000000000033 Rises=F Damp=F
 DIIS: error= 1.65D-08 at cycle   7 NSaved=   7.
 NSaved= 7 IEnMin= 7 EnMin= -2752.05226605793     IErMin= 7 ErrMin= 1.65D-08
 ErrMax= 1.65D-08  0.00D+00 EMaxC= 1.00D-01 BMatC= 1.37D-13 BMatP= 4.06D-11
 IDIUse=1 WtCom= 1.00D+00 WtEn= 0.00D+00
 Coeff-Com:  0.824D-07-0.447D-05-0.405D-04 0.242D-03 0.370D-02-0.729D-01
 Coeff-Com:  0.107D+01
 Coeff:      0.824D-07-0.447D-05-0.405D-04 0.242D-03 0.370D-02-0.729D-01
 Coeff:      0.107D+01
 Gap=     0.555 Goal=   None    Shift=    0.000
 RMSDP=5.64D-09 MaxDP=2.08D-07 DE=-3.32D-11 OVMax= 2.29D-07

 SCF Done:  E(RHF) =  -2752.05226606     A.U. after    7 cycles
            NFock=  7  Conv=0.56D-08     -V/T= 2.0000
 KE= 2.752039721824D+03 PE=-6.582554697165D+03 EE= 1.078462709283D+03
 Leave Link  502 at Thu Apr  2 11:13:11 2020, MaxMem=  2147483648 cpu:              25.5 elap:               2.6
 (Enter /usr/local/g16/g16/l801.exe)
 Windowed orbitals will be sorted by symmetry type.
 ExpMin= 2.53D-02 ExpMax= 1.17D+07 ExpMxC= 1.33D+04 IAcc=3 IRadAn=         5 AccDes= 0.00D+00
 HarFok:  IExCor=  205 AccDes= 0.00D+00 IRadAn=         5 IDoV=-2 UseB2=F ITyADJ=14
 ICtDFT= 12500011 ScaDFX=  1.000000  1.000000  1.000000  1.000000
 Largest valence mixing into a core orbital is  9.81D-05
 Largest core mixing into a valence orbital is  3.83D-05
 Range of M.O.s used for correlation:    10   197
 NBasis=   197 NAE=    18 NBE=    18 NFC=     9 NFV=     0
 NROrb=    188 NOA=     9 NOB=     9 NVA=   179 NVB=   179

 **** Warning!!: The largest alpha MO coefficient is  0.14751823D+02

 Leave Link  801 at Thu Apr  2 11:13:11 2020, MaxMem=  2147483648 cpu:               0.6 elap:               0.0
 (Enter /usr/local/g16/g16/l804.exe)
 Closed-shell transformation, MDV=  2147483648 ITran=4 ISComp=1.
 Semi-Direct transformation.
 ModeAB=           2 MOrb=             9 LenV=    2146335930
 LASXX=     28892340 LTotXX=    28892340 LenRXX=    28892340
 LTotAB=    29348001 MaxLAS=    44558820 LenRXY=    44558820
 NonZer=    57784680 LenScr=    87449600 LnRSAI=           0
 LnScr1=           0 LExtra=           0 Total=    160900760
 MaxDsk=          -1 SrtSym=           F ITran=            4
 DoSDTr:  NPSUse= 16
 JobTyp=0 Pass  1:  I=   1 to   9.
 (rs|ai) integrals will be sorted in core.
 Complete sort for first half transformation.
 First half transformation complete.
 Complete sort for second half transformation.
 Second half transformation complete.
 SymMOI:  orbitals are not symmetric.
 Spin components of T(2) and E(2):
     alpha-alpha T2 =       0.9502705868D-02 E2=     -0.3580308656D-01
     alpha-beta  T2 =       0.4817757677D-01 E2=     -0.1723149759D+00
     beta-beta   T2 =       0.9502705868D-02 E2=     -0.3580308656D-01
 ANorm=    0.1033045492D+01
 E2 =    -0.2439211490D+00 EUMP2 =    -0.27522961872070D+04
 Leave Link  804 at Thu Apr  2 11:13:19 2020, MaxMem=  2147483648 cpu:             127.1 elap:               8.0
 (Enter /usr/local/g16/g16/l913.exe)
 CIDS:  MDV=  2147483648.
 Frozen-core window:  NFC=   9 NFV=   0.
 IFCWin=0 IBDFC=1 NFBD=     0     0 NFCmp=     0     0 NFFFC=     0     0
 Using DD3R+UMP44R for 1st iteration.
 Using DD4RQ for 2nd and later iterations.
 Keep R2 and R3 ints in memory in canonical form, NReq=393334514.
 FoFCou: FMM=F IPFlag=           0 FMFlag=           0 FMFlg1=           0
         NFxFlg=           0 DoJE=F BraDBF=F KetDBF=F FulRan=T
         wScrn=  0.000000 ICntrl=       600 IOpCl=  0 I1Cent=           0 NGrid=           0
         NMat0=    1 NMatS0=  19503 NMatT0=    0 NMatD0=    1 NMtDS0=    0 NMtDT0=    0
 Symmetry not used in FoFCou.
 Two-electron integral symmetry not used.
 CIDS: In Core Option IDoMem=           1.
 MP4(SDTQ)
 =========
 Produce multiple copies of IABC intergrals
 DD1Dir will call FoFMem   1 times, MxPair=        90
 NAB=    45 NAA=     0 NBB=     0.
 MP4(D)= -0.37205662D-02
 MP4(S)= -0.10893218D-02
 MP4(R+Q)=  0.42469106D-02
 T4(AAA)= -0.32564687D-03
 T4(AAB)= -0.35631479D-02
 Time for triples=      475.83 seconds.
 MP4(T)=   -0.77775896D-02
 E3=       -0.98620994D-02        EUMP3=      -0.27523060493D+04
 E4(DQ)=    0.52634441D-03        UMP4(DQ)=   -0.27523055230D+04
 E4(SDQ)=  -0.56297742D-03        UMP4(SDQ)=  -0.27523066123D+04
 E4(SDTQ)= -0.83405670D-02        UMP4(SDTQ)= -0.27523143899D+04
 VARIATIONAL ENERGIES WITH THE FIRST-ORDER WAVEFUNCTION:
 E(VAR1)=  -0.27522900727D+04     E(CISD,4)=  -0.27522944718D+04
 Largest amplitude= 1.56D-02
 Discarding MO integrals.
 Leave Link  913 at Thu Apr  2 11:13:53 2020, MaxMem=  2147483648 cpu:             540.9 elap:              33.8
 (Enter /usr/local/g16/g16/l601.exe)
 Copying SCF densities to generalized density rwf, IOpCl= 0 IROHF=0.

 **********************************************************************

            Population analysis using the SCF density.

 **********************************************************************

 Orbital symmetries:
       Occupied  (A) (A) (A) (A) (A) (A) (A) (A) (A) (A) (A) (A)
                 (A) (A) (A) (A) (A) (A)
       Virtual   (A) (A) (A) (A) (A) (A) (A) (A) (A) (A) (A) (A)
                 (A) (A) (A) (A) (A) (A) (A) (A) (A) (A) (A) (A)
                 (A) (A) (A) (A) (A) (A) (A) (A) (A) (A) (A) (A)
                 (A) (A) (A) (A) (A) (A) (A) (A) (A) (A) (A) (A)
                 (A) (A) (A) (A) (A) (A) (A) (A) (A) (A) (A) (A)
                 (A) (A) (A) (A) (A) (A) (A) (A) (A) (A) (A) (A)
                 (A) (A) (A) (A) (A) (A) (A) (A) (A) (A) (A) (A)
                 (A) (A) (A) (A) (A) (A) (A) (A) (A) (A) (A) (A)
                 (A) (A) (A) (A) (A) (A) (A) (A) (A) (A) (A) (A)
                 (A) (A) (A) (A) (A) (A) (A) (A) (A) (A) (A) (A)
                 (A) (A) (A) (A) (A) (A) (A) (A) (A) (A) (A) (A)
                 (A) (A) (A) (A) (A) (A) (A) (A) (A) (A) (A) (A)
                 (A) (A) (A) (A) (A) (A) (A) (A) (A) (A) (A) (A)
                 (A) (A) (A) (A) (A) (A) (A) (A) (A) (A) (A) (A)
                 (A) (A) (A) (A) (A) (A) (A) (A) (A) (A) (A)
 The electronic state is 1-A.
 Alpha  occ. eigenvalues -- -520.16580 -69.90314 -63.00972 -63.00972 -63.00971
 Alpha  occ. eigenvalues --  -10.84954  -8.33154  -8.33154  -8.33153  -3.82531
 Alpha  occ. eigenvalues --   -3.82531  -3.82531  -3.82531  -3.82530  -1.15311
 Alpha  occ. eigenvalues --   -0.52431  -0.52429  -0.52429
 Alpha virt. eigenvalues --    0.03036   0.04962   0.08713   0.09258   0.12071
 Alpha virt. eigenvalues --    0.12406   0.13468   0.13844   0.16360   0.17150
 Alpha virt. eigenvalues --    0.17967   0.19922   0.21387   0.27167   0.28084
 Alpha virt. eigenvalues --    0.29390   0.29609   0.31760   0.34879   0.35027
 Alpha virt. eigenvalues --    0.37491   0.38024   0.39947   0.41187   0.42324
 Alpha virt. eigenvalues --    0.42867   0.44855   0.55566   0.57540   0.59782
 Alpha virt. eigenvalues --    0.62016   0.66992   0.69541   0.70337   0.72845
 Alpha virt. eigenvalues --    0.76710   0.78231   0.79168   0.82459   0.83018
 Alpha virt. eigenvalues --    0.83804   0.85623   0.86263   0.88064   0.89146
 Alpha virt. eigenvalues --    0.90360   0.90873   0.93254   0.93758   0.97712
 Alpha virt. eigenvalues --    0.98945   1.00004   1.01807   1.02193   1.04683
 Alpha virt. eigenvalues --    1.07794   1.10827   1.13297   1.16734   1.16929
 Alpha virt. eigenvalues --    1.19064   1.24253   1.28478   1.30544   1.33621
 Alpha virt. eigenvalues --    1.35188   1.39420   1.40951   1.49604   1.51623
 Alpha virt. eigenvalues --    1.56521   1.58320   1.65695   1.75198   1.76876
 Alpha virt. eigenvalues --    1.81570   1.82924   1.89323   1.99987   2.25833
 Alpha virt. eigenvalues --    2.33384   2.34320   2.37727   2.38432   2.41128
 Alpha virt. eigenvalues --    2.41914   2.44150   2.46393   2.48048   2.51062
 Alpha virt. eigenvalues --    2.54224   2.54873   2.55943   2.58126   2.60266
 Alpha virt. eigenvalues --    2.61810   2.62260   2.65803   2.67605   2.70937
 Alpha virt. eigenvalues --    2.71231   2.73343   2.78791   2.79989   2.82107
 Alpha virt. eigenvalues --    2.84450   2.86662   2.89180   2.92320   2.96287
 Alpha virt. eigenvalues --    3.02006   3.04831   3.07061   3.10968   3.21179
 Alpha virt. eigenvalues --    3.23835   3.26810   3.31307   3.39011   3.48146
 Alpha virt. eigenvalues --    3.61259   3.64885   3.82726   3.86867   4.04083
 Alpha virt. eigenvalues --    4.42424   4.48151   4.55227   4.64177   4.68927
 Alpha virt. eigenvalues --    4.73749   4.88684   4.91222   4.96610   5.02683
 Alpha virt. eigenvalues --    5.16443   5.25411   5.61425   5.63294   5.78977
 Alpha virt. eigenvalues --    5.92547   6.06184   6.06922   6.75810   6.86399
 Alpha virt. eigenvalues --    7.38220   7.48192   7.56469   7.61831   7.76844
 Alpha virt. eigenvalues --    7.79494   7.93337   8.14408   8.16746   8.22001
 Alpha virt. eigenvalues --    8.40279   8.49622   8.56583   8.86202   9.65590
 Alpha virt. eigenvalues --    9.76868   9.83879   9.88086   9.91817   9.99574
 Alpha virt. eigenvalues --   10.14940  10.31700  10.38602  10.97669  11.52648
 Alpha virt. eigenvalues --   11.65398  11.81416  12.07899  12.09057  13.21426
 Alpha virt. eigenvalues --   13.65796  14.51676  62.82699  64.70032
          Condensed to atoms (all electrons):
               1          2          3          4          5
     1  O    0.000604  -0.000731  -0.000304   0.000380  -0.001289
     2  O   -0.000731   0.001996   0.000258  -0.001265  -0.002514
     3  H   -0.000304   0.000258   0.000210  -0.000115  -0.000593
     4  H    0.000380  -0.001265  -0.000115   0.001095  -0.007760
     5  Kr  -0.001289  -0.002514  -0.000593  -0.007760  36.023961
 Mulliken charges:
               1
     1  O    0.001339
     2  O    0.002256
     3  H    0.000544
     4  H    0.007664
     5  Kr  -0.011804
 Sum of Mulliken charges =  -0.00000
 Mulliken charges with hydrogens summed into heavy atoms:
               1
     1  O    0.001884
     2  O    0.009920
     5  Kr  -0.011804
         Mulliken charges condensed to fragments:
      1      0.011804
      2     -0.011804
 Electronic spatial extent (au):  <R**2>=            163.8085
 Charge=              0.0000 electrons
 Dipole moment (field-independent basis, Debye):
    X=             -0.0008    Y=              0.0005    Z=              0.0001  Tot=              0.0010
 Quadrupole moment (field-independent basis, Debye-Ang):
   XX=            -17.7270   YY=            -17.7325   ZZ=            -17.7367
   XY=             -0.0019   XZ=             -0.0008   YZ=             -0.0002
 Traceless Quadrupole moment (field-independent basis, Debye-Ang):
   XX=              0.0051   YY=             -0.0005   ZZ=             -0.0046
   XY=             -0.0019   XZ=             -0.0008   YZ=             -0.0002
 Octapole moment (field-independent basis, Debye-Ang**2):
  XXX=            -52.2814  YYY=              0.5311  ZZZ=              0.0225  XYY=            -17.4339
  XXY=              0.1718  XXZ=              0.0059  XZZ=            -17.4370  YZZ=              0.1773
  YYZ=              0.0076  XYZ=              0.0001
 Hexadecapole moment (field-independent basis, Debye-Ang**3):
 XXXX=           -121.3185 YYYY=            -18.5485 ZZZZ=            -18.5549 XXXY=              0.5109
 XXXZ=              0.0187 YYYX=              0.5137 YYYZ=             -0.0001 ZZZX=              0.0200
 ZZZY=             -0.0000 XXYY=            -23.3175 XXZZ=            -23.3199 YYZZ=             -6.1833
 XXYZ=             -0.0002 YYXZ=              0.0068 ZZXY=              0.1709
 N-N= 0.000000000000D+00 E-N=-6.582554698733D+03  KE= 2.752039721824D+03
 Leave Link  601 at Thu Apr  2 11:13:53 2020, MaxMem=  2147483648 cpu:               0.5 elap:               0.0
 (Enter /usr/local/g16/g16/l122.exe)
 CPIOFr:  IOpCl= 0 IRwI=-1 IRwCP=  731 ICalc=  2 LCPTot=       59414 Len1MO=      159453 IndFrg=      537773
 Counterpoise: doing calculation for fragment   1 using the basis set of the fragment.
 Leave Link  122 at Thu Apr  2 11:13:53 2020, MaxMem=  2147483648 cpu:               0.0 elap:               0.0
 (Enter /usr/local/g16/g16/l301.exe)
 Basis read from rwf:  (5D, 7F)
 No pseudopotential information found on rwf file.
 There are   160 symmetry adapted cartesian basis functions of A   symmetry.
 There are   138 symmetry adapted basis functions of A   symmetry.
   138 basis functions,   198 primitive gaussians,   160 cartesian basis functions
     9 alpha electrons        9 beta electrons
       nuclear repulsion energy        36.6265005492 Hartrees.
 IExCor=    0 DFT=F Ex=HF Corr=None ExCW=0 ScaHFX=  1.000000
 ScaDFX=  1.000000  1.000000  1.000000  1.000000 ScalE2=  1.000000  1.000000
 IRadAn=      5 IRanWt=     -1 IRanGd=            0 ICorTp=0 IEmpDi=  4
 NAtoms=    5 NActive=    4 NUniq=    4 SFac= 1.00D+00 NAtFMM=   60 NAOKFM=F Big=F
 Integral buffers will be    131072 words long.
 Raffenetti 1 integral format.
 Two-electron integral symmetry is turned on.
 No density basis found on file   718.
 Leave Link  301 at Thu Apr  2 11:13:53 2020, MaxMem=  2147483648 cpu:               0.4 elap:               0.0
 (Enter /usr/local/g16/g16/l302.exe)
 NPDir=0 NMtPBC=     1 NCelOv=     1 NCel=       1 NClECP=     1 NCelD=      1
         NCelK=      1 NCelE2=     1 NClLst=     1 CellRange=     0.0.
 One-electron integrals computed using PRISM.
 One-electron integral symmetry used in STVInt
 NBasis=   138 RedAO= T EigKep=  2.56D-04  NBF=   138
 NBsUse=   138 1.00D-06 EigRej= -1.00D+00 NBFU=   138
 Leave Link  302 at Thu Apr  2 11:13:53 2020, MaxMem=  2147483648 cpu:               1.4 elap:               0.1
 (Enter /usr/local/g16/g16/l303.exe)
 DipDrv:  MaxL=1.
 Leave Link  303 at Thu Apr  2 11:13:53 2020, MaxMem=  2147483648 cpu:               0.3 elap:               0.0
 (Enter /usr/local/g16/g16/l401.exe)
 ExpMin= 2.53D-02 ExpMax= 1.53D+04 ExpMxC= 5.22D+02 IAcc=3 IRadAn=         5 AccDes= 0.00D+00
 Harris functional with IExCor=  205 and IRadAn=       5 diagonalized for initial guess.
 HarFok:  IExCor=  205 AccDes= 0.00D+00 IRadAn=         5 IDoV= 1 UseB2=F ITyADJ=14
 ICtDFT=  3500011 ScaDFX=  1.000000  1.000000  1.000000  1.000000
 FoFCou: FMM=F IPFlag=           0 FMFlag=      100000 FMFlg1=           0
         NFxFlg=           0 DoJE=T BraDBF=F KetDBF=T FulRan=T
         wScrn=  0.000000 ICntrl=       500 IOpCl=  0 I1Cent=   200000004 NGrid=           0
         NMat0=    1 NMatS0=      1 NMatT0=    0 NMatD0=    1 NMtDS0=    0 NMtDT0=    0
 Petite list used in FoFCou.
 Harris En= -150.936225394123    
 JPrj=0 DoOrth=F DoCkMO=F.
 Leave Link  401 at Thu Apr  2 11:13:53 2020, MaxMem=  2147483648 cpu:               2.2 elap:               0.1
 (Enter /usr/local/g16/g16/l502.exe)
 Keep R1 ints in memory in canonical form, NReq=53860811.
 FoFCou: FMM=F IPFlag=           0 FMFlag=           0 FMFlg1=           0
         NFxFlg=           0 DoJE=F BraDBF=F KetDBF=F FulRan=T
         wScrn=  0.000000 ICntrl=       600 IOpCl=  0 I1Cent=           0 NGrid=           0
         NMat0=    1 NMatS0=   9591 NMatT0=    0 NMatD0=    1 NMtDS0=    0 NMtDT0=    0
 Symmetry not used in FoFCou.
 Two-electron integral symmetry not used.
 Closed shell SCF:
 Using DIIS extrapolation, IDIIS=  1040.
 NGot=  2147483648 LenX=  2101430001 LenY=  2101403960
 Requested convergence on RMS density matrix=1.00D-08 within 128 cycles.
 Requested convergence on MAX density matrix=1.00D-06.
 Requested convergence on             energy=1.00D-06.
 No special actions if energy rises.

 Cycle   1  Pass 1  IDiag  1:
 E= -150.773392595448    
 DIIS: error= 3.40D-02 at cycle   1 NSaved=   1.
 NSaved= 1 IEnMin= 1 EnMin= -150.773392595448     IErMin= 1 ErrMin= 3.40D-02
 ErrMax= 3.40D-02  0.00D+00 EMaxC= 1.00D-01 BMatC= 2.27D-01 BMatP= 2.27D-01
 IDIUse=3 WtCom= 6.60D-01 WtEn= 3.40D-01
 Coeff-Com:  0.100D+01
 Coeff-En:   0.100D+01
 Coeff:      0.100D+01
 Gap=     0.726 Goal=   None    Shift=    0.000
 GapD=    0.726 DampG=2.000 DampE=0.500 DampFc=1.0000 IDamp=-1.
 RMSDP=1.30D-03 MaxDP=2.86D-02              OVMax= 6.42D-02

 Cycle   2  Pass 1  IDiag  1:
 E= -150.826288036437     Delta-E=       -0.052895440989 Rises=F Damp=F
 DIIS: error= 8.94D-03 at cycle   2 NSaved=   2.
 NSaved= 2 IEnMin= 2 EnMin= -150.826288036437     IErMin= 2 ErrMin= 8.94D-03
 ErrMax= 8.94D-03  0.00D+00 EMaxC= 1.00D-01 BMatC= 1.60D-02 BMatP= 2.27D-01
 IDIUse=3 WtCom= 9.11D-01 WtEn= 8.94D-02
 Coeff-Com:  0.106D+00 0.894D+00
 Coeff-En:   0.000D+00 0.100D+01
 Coeff:      0.963D-01 0.904D+00
 Gap=     0.556 Goal=   None    Shift=    0.000
 RMSDP=6.94D-04 MaxDP=2.49D-02 DE=-5.29D-02 OVMax= 2.87D-02

 Cycle   3  Pass 1  IDiag  1:
 E= -150.834341529860     Delta-E=       -0.008053493423 Rises=F Damp=F
 DIIS: error= 4.00D-03 at cycle   3 NSaved=   3.
 NSaved= 3 IEnMin= 3 EnMin= -150.834341529860     IErMin= 3 ErrMin= 4.00D-03
 ErrMax= 4.00D-03  0.00D+00 EMaxC= 1.00D-01 BMatC= 2.33D-03 BMatP= 1.60D-02
 IDIUse=3 WtCom= 9.60D-01 WtEn= 4.00D-02
 Coeff-Com: -0.209D-01 0.255D+00 0.766D+00
 Coeff-En:   0.000D+00 0.000D+00 0.100D+01
 Coeff:     -0.201D-01 0.245D+00 0.775D+00
 Gap=     0.527 Goal=   None    Shift=    0.000
 RMSDP=1.58D-04 MaxDP=4.00D-03 DE=-8.05D-03 OVMax= 9.21D-03

 Cycle   4  Pass 1  IDiag  1:
 E= -150.835795175761     Delta-E=       -0.001453645901 Rises=F Damp=F
 DIIS: error= 4.28D-04 at cycle   4 NSaved=   4.
 NSaved= 4 IEnMin= 4 EnMin= -150.835795175761     IErMin= 4 ErrMin= 4.28D-04
 ErrMax= 4.28D-04  0.00D+00 EMaxC= 1.00D-01 BMatC= 1.58D-05 BMatP= 2.33D-03
 IDIUse=3 WtCom= 9.96D-01 WtEn= 4.28D-03
 Coeff-Com: -0.178D-02-0.113D-01 0.126D-01 0.100D+01
 Coeff-En:   0.000D+00 0.000D+00 0.000D+00 0.100D+01
 Coeff:     -0.177D-02-0.113D-01 0.126D-01 0.100D+01
 Gap=     0.528 Goal=   None    Shift=    0.000
 RMSDP=2.30D-05 MaxDP=4.11D-04 DE=-1.45D-03 OVMax= 1.41D-03

 Cycle   5  Pass 1  IDiag  1:
 E= -150.835817539061     Delta-E=       -0.000022363300 Rises=F Damp=F
 DIIS: error= 1.30D-04 at cycle   5 NSaved=   5.
 NSaved= 5 IEnMin= 5 EnMin= -150.835817539061     IErMin= 5 ErrMin= 1.30D-04
 ErrMax= 1.30D-04  0.00D+00 EMaxC= 1.00D-01 BMatC= 1.55D-06 BMatP= 1.58D-05
 IDIUse=3 WtCom= 9.99D-01 WtEn= 1.30D-03
 Coeff-Com:  0.170D-02-0.167D-01-0.587D-01-0.168D+00 0.124D+01
 Coeff-En:   0.000D+00 0.000D+00 0.000D+00 0.000D+00 0.100D+01
 Coeff:      0.170D-02-0.167D-01-0.586D-01-0.167D+00 0.124D+01
 Gap=     0.528 Goal=   None    Shift=    0.000
 RMSDP=1.33D-05 MaxDP=2.46D-04 DE=-2.24D-05 OVMax= 9.03D-04

 Cycle   6  Pass 1  IDiag  1:
 E= -150.835821511622     Delta-E=       -0.000003972561 Rises=F Damp=F
[...]
 Closed shell SCF:
 Using DIIS extrapolation, IDIIS=  1040.
 NGot=  2147483648 LenX=  2101430001 LenY=  2101403960
 Requested convergence on RMS density matrix=1.00D-08 within 128 cycles.
 Requested convergence on MAX density matrix=1.00D-06.
 Requested convergence on             energy=1.00D-06.
 No special actions if energy rises.

 Cycle   1  Pass 1  IDiag  1:
 E= -150.835821912204    
 DIIS: error= 8.82D-11 at cycle   1 NSaved=   1.
 NSaved= 1 IEnMin= 1 EnMin= -150.835821912204     IErMin= 1 ErrMin= 8.82D-11
 ErrMax= 8.82D-11  0.00D+00 EMaxC= 1.00D-01 BMatC= 1.42D-18 BMatP= 1.42D-18
 IDIUse=1 WtCom= 1.00D+00 WtEn= 0.00D+00
 Coeff-Com:  0.100D+01
 Coeff:      0.100D+01
 Gap=     0.907 Goal=   None    Shift=    0.000
 RMSDP=6.73D-12 MaxDP=1.98D-10              OVMax= 4.41D-10

 SCF Done:  E(RHF) =  -150.835821912     A.U. after    1 cycles
            NFock=  1  Conv=0.67D-11     -V/T= 2.0021
 KE= 1.505227946550D+02 PE=-4.314594741262D+02 EE= 9.347435700986D+01
 Leave Link  502 at Thu Apr  2 12:29:51 2020, MaxMem=  2147483648 cpu:               7.1 elap:               0.5
 (Enter /usr/local/g16/g16/l801.exe)
 Windowed orbitals will be sorted by symmetry type.
 ExpMin= 2.53D-02 ExpMax= 1.53D+04 ExpMxC= 5.22D+02 IAcc=3 IRadAn=         5 AccDes= 0.00D+00
 HarFok:  IExCor=  205 AccDes= 0.00D+00 IRadAn=         5 IDoV=-2 UseB2=F ITyADJ=14
 ICtDFT= 12500011 ScaDFX=  1.000000  1.000000  1.000000  1.000000
 Largest valence mixing into a core orbital is  1.19D-04
 Largest core mixing into a valence orbital is  2.06D-05
 Range of M.O.s used for correlation:     3   138
 NBasis=   138 NAE=     9 NBE=     9 NFC=     2 NFV=     0
 NROrb=    136 NOA=     7 NOB=     7 NVA=   129 NVB=   129

 **** Warning!!: The largest alpha MO coefficient is  0.14627957D+02

 Leave Link  801 at Thu Apr  2 12:29:51 2020, MaxMem=  2147483648 cpu:               0.6 elap:               0.0
 (Enter /usr/local/g16/g16/l804.exe)
 Closed-shell transformation, MDV=  2147483648 ITran=4 ISComp=1.
 Semi-Direct transformation.
 ModeAB=           2 MOrb=             7 LenV=    2146849405
 LASXX=      8463147 LTotXX=     8463147 LenRXX=     8463147
 LTotAB=     8647912 MaxLAS=    12261760 LenRXY=    12261760
 NonZer=    16926294 LenScr=    26146816 LnRSAI=           0
 LnScr1=           0 LExtra=           0 Total=     46871723
 MaxDsk=          -1 SrtSym=           F ITran=            4
 DoSDTr:  NPSUse= 16
 JobTyp=0 Pass  1:  I=   1 to   7.
 (rs|ai) integrals will be sorted in core.
 Complete sort for first half transformation.
 First half transformation complete.
 Complete sort for second half transformation.
 Second half transformation complete.
 SymMOI:  orbitals are not symmetric.
 Spin components of T(2) and E(2):
     alpha-alpha T2 =       0.1602646415D-01 E2=     -0.6284776937D-01
     alpha-beta  T2 =       0.9331432809D-01 E2=     -0.3819967922D+00
     beta-beta   T2 =       0.1602646415D-01 E2=     -0.6284776937D-01
 ANorm=    0.1060833284D+01
 E2 =    -0.5076923310D+00 EUMP2 =    -0.15134351424318D+03
 Leave Link  804 at Thu Apr  2 12:29:53 2020, MaxMem=  2147483648 cpu:              28.0 elap:               1.8
 (Enter /usr/local/g16/g16/l913.exe)
 CIDS:  MDV=  2147483648.
 Frozen-core window:  NFC=   2 NFV=   0.
 IFCWin=0 IBDFC=1 NFBD=     0     0 NFCmp=     0     0 NFFFC=     0     0
 Using DD3R+UMP44R for 1st iteration.
 Using DD4RQ for 2nd and later iterations.
 Keep R2 and R3 ints in memory in canonical form, NReq=99863705.
 FoFCou: FMM=F IPFlag=           0 FMFlag=           0 FMFlg1=           0
         NFxFlg=           0 DoJE=F BraDBF=F KetDBF=F FulRan=T
         wScrn=  0.000000 ICntrl=       600 IOpCl=  0 I1Cent=           0 NGrid=           0
         NMat0=    1 NMatS0=   9591 NMatT0=    0 NMatD0=    1 NMtDS0=    0 NMtDT0=    0
 Symmetry not used in FoFCou.
 Two-electron integral symmetry not used.
 CIDS: In Core Option IDoMem=           1.
 MP4(SDTQ)
 =========
 Produce multiple copies of IABC intergrals
 DD1Dir will call FoFMem   1 times, MxPair=        56
 NAB=    28 NAA=     0 NBB=     0.
 MP4(D)= -0.11279782D-01
 MP4(S)= -0.52209115D-02
 MP4(R+Q)=  0.10772819D-01
 T4(AAA)= -0.66053546D-03
 T4(AAB)= -0.10275626D-01
 Time for triples=       94.32 seconds.
 MP4(T)=   -0.21872322D-01
 E3=       -0.20379447D-02        EUMP3=      -0.15134555219D+03
 E4(DQ)=   -0.50696246D-03        UMP4(DQ)=   -0.15134605915D+03
 E4(SDQ)=  -0.57278740D-02        UMP4(SDQ)=  -0.15135128006D+03
 E4(SDTQ)= -0.27600196D-01        UMP4(SDTQ)= -0.15137315238D+03
 VARIATIONAL ENERGIES WITH THE FIRST-ORDER WAVEFUNCTION:
 E(VAR1)=  -0.15128876763D+03     E(CISD,4)=  -0.15129840489D+03
 Largest amplitude= 3.88D-02
 Discarding MO integrals.
 Leave Link  913 at Thu Apr  2 12:30:01 2020, MaxMem=  2147483648 cpu:             117.9 elap:               7.4
 (Enter /usr/local/g16/g16/l122.exe)
 CPIOFr:  IOpCl= 0 IRwI=-1 IRwCP=  731 ICalc=  3 LCPTot=       59414 Len1MO=      159453 IndFrg=      697226
 Restoring MOs from calculation   5 to rwf and chk.
 CPIOFr:  IOpCl= 0 IRwI=-2 IRwCP=20731 ICalc=  4 LCPTot=       59414 Len1MO=      159453 IndFrg=      856679
 CPIOFr:  IOpCl= 0 IRwI= 4 IRwCP=20731 ICalc=  4 LCPTot=       59414 Len1MO=      159453 IndFrg=      856679
 Counterpoise: doing calculation for fragment   2 using the basis set of the fragment.
 Leave Link  122 at Thu Apr  2 12:30:01 2020, MaxMem=  2147483648 cpu:               0.0 elap:               0.0
 (Enter /usr/local/g16/g16/l301.exe)
 Basis read from rwf:  (5D, 7F)
 No pseudopotential information found on rwf file.
 There are    69 symmetry adapted cartesian basis functions of A   symmetry.
 There are    59 symmetry adapted basis functions of A   symmetry.
    59 basis functions,   217 primitive gaussians,    69 cartesian basis functions
    18 alpha electrons       18 beta electrons
       nuclear repulsion energy         0.0000000000 Hartrees.
 IExCor=    0 DFT=F Ex=HF Corr=None ExCW=0 ScaHFX=  1.000000
 ScaDFX=  1.000000  1.000000  1.000000  1.000000 ScalE2=  1.000000  1.000000
 IRadAn=      5 IRanWt=     -1 IRanGd=            0 ICorTp=0 IEmpDi=  4
 NAtoms=    5 NActive=    1 NUniq=    1 SFac= 1.00D+00 NAtFMM=   60 NAOKFM=F Big=F
 Integral buffers will be    131072 words long.
 Raffenetti 1 integral format.
 Two-electron integral symmetry is turned on.
 No density basis found on file   718.
 Leave Link  301 at Thu Apr  2 12:30:01 2020, MaxMem=  2147483648 cpu:               0.5 elap:               0.0
 (Enter /usr/local/g16/g16/l302.exe)
 NPDir=0 NMtPBC=     1 NCelOv=     1 NCel=       1 NClECP=     1 NCelD=      1
         NCelK=      1 NCelE2=     1 NClLst=     1 CellRange=     0.0.
 One-electron integrals computed using PRISM.
 One-electron integral symmetry used in STVInt
 NBasis=    59 RedAO= T EigKep=  1.06D-02  NBF=    59
 NBsUse=    59 1.00D-06 EigRej= -1.00D+00 NBFU=    59
 Leave Link  302 at Thu Apr  2 12:30:01 2020, MaxMem=  2147483648 cpu:               1.3 elap:               0.1
 (Enter /usr/local/g16/g16/l303.exe)
 DipDrv:  MaxL=1.
 Leave Link  303 at Thu Apr  2 12:30:01 2020, MaxMem=  2147483648 cpu:               0.3 elap:               0.0
 (Enter /usr/local/g16/g16/l401.exe)
 Initial guess from the checkpoint file:  "/mnt/driveB/scratch/matheus/Gau-13440.chk"
 B after Tr=     0.062989    0.000232    0.000009
         Rot=    1.000000    0.000000    0.000000    0.000000 Ang=   0.00 deg.
 Guess basis will be translated and rotated to current coordinates.
 JPrj=2 DoOrth=T DoCkMO=T.
 Generating alternative initial guess.
 ExpMin= 4.00D-02 ExpMax= 1.17D+07 ExpMxC= 1.33D+04 IAcc=3 IRadAn=         5 AccDes= 0.00D+00
 Harris functional with IExCor=  205 and IRadAn=       5 diagonalized for initial guess.
 HarFok:  IExCor=  205 AccDes= 0.00D+00 IRadAn=         5 IDoV= 1 UseB2=F ITyADJ=14
 ICtDFT=  3500011 ScaDFX=  1.000000  1.000000  1.000000  1.000000
 FoFCou: FMM=F IPFlag=           0 FMFlag=      100000 FMFlg1=           0
         NFxFlg=           0 DoJE=T BraDBF=F KetDBF=T FulRan=T
         wScrn=  0.000000 ICntrl=       500 IOpCl=  0 I1Cent=   200000004 NGrid=           0
         NMat0=    1 NMatS0=      1 NMatT0=    0 NMatD0=    1 NMtDS0=    0 NMtDT0=    0
 Petite list used in FoFCou.
 Harris En= -2751.05937170533    
 Leave Link  401 at Thu Apr  2 12:30:01 2020, MaxMem=  2147483648 cpu:               2.7 elap:               0.2
 (Enter /usr/local/g16/g16/l502.exe)
 Keep R1 ints in memory in canonical form, NReq=14291944.
 FoFCou: FMM=F IPFlag=           0 FMFlag=           0 FMFlg1=           0
         NFxFlg=           0 DoJE=F BraDBF=F KetDBF=F FulRan=T
         wScrn=  0.000000 ICntrl=       600 IOpCl=  0 I1Cent=           0 NGrid=           0
         NMat0=    1 NMatS0=   1770 NMatT0=    0 NMatD0=    1 NMtDS0=    0 NMtDT0=    0
 Symmetry not used in FoFCou.
 Two-electron integral symmetry not used.
 Closed shell SCF:
 Using DIIS extrapolation, IDIIS=  1040.
 NGot=  2147483648 LenX=  2145904888 LenY=  2145899686
 Requested convergence on RMS density matrix=1.00D-08 within 128 cycles.
 Requested convergence on MAX density matrix=1.00D-06.
 Requested convergence on             energy=1.00D-06.
 No special actions if energy rises.

 Cycle   1  Pass 1  IDiag  1:
 E= -2752.05222307625    
 DIIS: error= 1.65D-13 at cycle   1 NSaved=   1.
 NSaved= 1 IEnMin= 1 EnMin= -2752.05222307625     IErMin= 1 ErrMin= 1.65D-13
 ErrMax= 1.65D-13  0.00D+00 EMaxC= 1.00D-01 BMatC= 1.67D-24 BMatP= 1.67D-24
 IDIUse=1 WtCom= 1.00D+00 WtEn= 0.00D+00
 Coeff-Com:  0.100D+01
 Coeff:      0.100D+01
 Gap=     0.719 Goal=   None    Shift=    0.000
 RMSDP=9.95D-15 MaxDP=2.38D-13              OVMax= 6.55D-14

 SCF Done:  E(RHF) =  -2752.05222308     A.U. after    1 cycles
            NFock=  1  Conv=0.10D-13     -V/T= 2.0000
 KE= 2.752048106937D+03 PE=-6.582565276257D+03 EE= 1.078464946243D+03
 Leave Link  502 at Thu Apr  2 12:30:02 2020, MaxMem=  2147483648 cpu:               9.5 elap:               0.6
 (Enter /usr/local/g16/g16/l801.exe)
 Windowed orbitals will be sorted by symmetry type.
 ExpMin= 4.00D-02 ExpMax= 1.17D+07 ExpMxC= 1.33D+04 IAcc=3 IRadAn=         5 AccDes= 0.00D+00
 HarFok:  IExCor=  205 AccDes= 0.00D+00 IRadAn=         5 IDoV=-2 UseB2=F ITyADJ=14
 ICtDFT= 12500011 ScaDFX=  1.000000  1.000000  1.000000  1.000000
 DSYEVD-2 returned Info=          89 IAlg= 4 N=    59 NDim=    59 NE2=    36397550 trying  DSYEV.
 Largest valence mixing into a core orbital is  9.79D-05
 Largest core mixing into a valence orbital is  3.83D-05
 Range of M.O.s used for correlation:    10    59
 NBasis=    59 NAE=    18 NBE=    18 NFC=     9 NFV=     0
 NROrb=     50 NOA=     9 NOB=     9 NVA=    41 NVB=    41
 Leave Link  801 at Thu Apr  2 12:30:02 2020, MaxMem=  2147483648 cpu:               0.6 elap:               0.0
 (Enter /usr/local/g16/g16/l804.exe)
 Closed-shell transformation, MDV=  2147483648 ITran=4 ISComp=1.
 Semi-Direct transformation.
 ModeAB=           2 MOrb=             9 LenV=    2147140326
 LASXX=       482211 LTotXX=      482211 LenRXX=      482211
 LTotAB=      511245 MaxLAS=     1086750 LenRXY=     1086750
 NonZer=     1162350 LenScr=     2357760 LnRSAI=           0
 LnScr1=           0 LExtra=           0 Total=      3926721
 MaxDsk=          -1 SrtSym=           F ITran=            4
 DoSDTr:  NPSUse= 16
 JobTyp=0 Pass  1:  I=   1 to   9.
 (rs|ai) integrals will be sorted in core.
 Complete sort for first half transformation.
 First half transformation complete.
 Complete sort for second half transformation.
 Second half transformation complete.
 SymMOI:  orbitals are not symmetric.
 Spin components of T(2) and E(2):
     alpha-alpha T2 =       0.9484485167D-02 E2=     -0.3552398032D-01
     alpha-beta  T2 =       0.4799866946D-01 E2=     -0.1708433112D+00
     beta-beta   T2 =       0.9484485167D-02 E2=     -0.3552398032D-01
 ANorm=    0.1032941257D+01
 E2 =    -0.2418912719D+00 EUMP2 =    -0.27522941143481D+04
 Leave Link  804 at Thu Apr  2 12:30:02 2020, MaxMem=  2147483648 cpu:               5.0 elap:               0.3
 (Enter /usr/local/g16/g16/l913.exe)
 CIDS:  MDV=  2147483648.
 Frozen-core window:  NFC=   9 NFV=   0.
 IFCWin=0 IBDFC=1 NFBD=     0     0 NFCmp=     0     0 NFFFC=     0     0
 Using DD3R+UMP44R for 1st iteration.
 Using DD4RQ for 2nd and later iterations.
 Keep R2 and R3 ints in memory in canonical form, NReq=15862484.
 FoFCou: FMM=F IPFlag=           0 FMFlag=           0 FMFlg1=           0
         NFxFlg=           0 DoJE=F BraDBF=F KetDBF=F FulRan=T
         wScrn=  0.000000 ICntrl=       600 IOpCl=  0 I1Cent=           0 NGrid=           0
         NMat0=    1 NMatS0=   1770 NMatT0=    0 NMatD0=    1 NMtDS0=    0 NMtDT0=    0
 Symmetry not used in FoFCou.
 Two-electron integral symmetry not used.
 CIDS: In Core Option IDoMem=           1.
 MP4(SDTQ)
 =========
 Produce multiple copies of IABC intergrals
 DD1Dir will call FoFMem   1 times, MxPair=        90
 NAB=    45 NAA=     0 NBB=     0.
 MP4(D)= -0.36913093D-02
 MP4(S)= -0.10734540D-02
 MP4(R+Q)=  0.42077927D-02
 T4(AAA)= -0.32336090D-03
 T4(AAB)= -0.35259699D-02
 Time for triples=        3.43 seconds.
 MP4(T)=   -0.76986616D-02
 E3=       -0.99406389D-02        EUMP3=      -0.27523040550D+04
 E4(DQ)=    0.51648341D-03        UMP4(DQ)=   -0.27523035385D+04
 E4(SDQ)=  -0.55697064D-03        UMP4(SDQ)=  -0.27523046120D+04
 E4(SDTQ)= -0.82556322D-02        UMP4(SDTQ)= -0.27523123106D+04
 VARIATIONAL ENERGIES WITH THE FIRST-ORDER WAVEFUNCTION:
 E(VAR1)=  -0.27522882489D+04     E(CISD,4)=  -0.27522926209D+04
 Largest amplitude= 2.28D-02
 Discarding MO integrals.
 Leave Link  913 at Thu Apr  2 12:30:03 2020, MaxMem=  2147483648 cpu:              13.5 elap:               0.8
 (Enter /usr/local/g16/g16/l122.exe)
 CPIOFr:  IOpCl= 0 IRwI=-1 IRwCP=  731 ICalc=  4 LCPTot=       59414 Len1MO=      159453 IndFrg=      856679
 Restoring MOs from calculation   1 to rwf.
 CPIOFr:  IOpCl= 0 IRwI=-2 IRwCP=  731 ICalc=  0 LCPTot=       59414 Len1MO=      159453 IndFrg=      218867
 Counterpoise corrected energy =   -2903.685731707445
                   BSSE energy =       0.000219893554
              sum of fragments =   -2903.685463003203
           complexation energy =      -0.31 kcal/mole (raw)
           complexation energy =      -0.17 kcal/mole (corrected)
 Leave Link  122 at Thu Apr  2 12:30:03 2020, MaxMem=  2147483648 cpu:               0.1 elap:               0.0
 (Enter /usr/local/g16/g16/l108.exe)
 Scan completed.
 
 Summary of the potential surface scan, energies are +2752 a.u.:
   N      R1          SCF          MP2          MP3         MP4DQ       MP4SDQ       MP4SDTQ  
 ----  ---------  -----------  -----------  -----------  -----------  -----------  -----------
    1     3.0000     -0.05222     -0.29411     -0.30405     -0.30354     -0.30461     -0.31231
    2     3.1000     -0.05222     -0.29411     -0.30405     -0.30354     -0.30461     -0.31231
    3     3.2000     -0.05222     -0.29411     -0.30405     -0.30354     -0.30461     -0.31231
    4     3.3000     -0.05222     -0.29411     -0.30405     -0.30354     -0.30461     -0.31231
    5     3.4000     -0.05222     -0.29411     -0.30405     -0.30354     -0.30461     -0.31231
    6     3.5000     -0.05222     -0.29411     -0.30405     -0.30354     -0.30461     -0.31231
    7     3.6000     -0.05222     -0.29411     -0.30405     -0.30354     -0.30461     -0.31231
    8     3.7000     -0.05222     -0.29411     -0.30405     -0.30354     -0.30461     -0.31231
    9     3.8000     -0.05222     -0.29411     -0.30405     -0.30354     -0.30461     -0.31231
   10     3.9000     -0.05222     -0.29411     -0.30405     -0.30354     -0.30461     -0.31231
   11     4.0000     -0.05222     -0.29411     -0.30405     -0.30354     -0.30461     -0.31231
   12     4.1000     -0.05222     -0.29411     -0.30405     -0.30354     -0.30461     -0.31231
   13     4.2000     -0.05222     -0.29411     -0.30405     -0.30354     -0.30461     -0.31231
   14     4.3000     -0.05222     -0.29411     -0.30405     -0.30354     -0.30461     -0.31231
   15     4.4000     -0.05222     -0.29411     -0.30405     -0.30354     -0.30461     -0.31231
   16     4.5000     -0.05222     -0.29411     -0.30405     -0.30354     -0.30461     -0.31231
   17     4.6000     -0.05222     -0.29411     -0.30405     -0.30354     -0.30461     -0.31231
   18     4.7000     -0.05222     -0.29411     -0.30405     -0.30354     -0.30461     -0.31231
   19     4.8000     -0.05222     -0.29411     -0.30405     -0.30354     -0.30461     -0.31231
   20     4.9000     -0.05222     -0.29411     -0.30405     -0.30354     -0.30461     -0.31231
   21     5.0000     -0.05222     -0.29411     -0.30405     -0.30354     -0.30461     -0.31231
 ----  ---------  -----------  -----------  -----------  -----------  -----------  -----------
  
 Leave Link  108 at Thu Apr  2 12:30:03 2020, MaxMem=  2147483648 cpu:               0.2 elap:               0.0
 (Enter /usr/local/g16/g16/l9999.exe)
 1\1\GINC-ARTHUR-MS-7B09\Scan\RMP4SDTQ-FC\Aug-CC-pVTZ\H2Kr1O2\MATHEUS\0
 2-Apr-2020\1\\#p mp4/aug-cc-PVTz int=ultrafine counterpoise=2 Scan\\PT
 CC\\0,1\O,0,0.,0.,0.725\O,0,0.,0.,-0.725\H,0,-0.9187205947,0.,1.023510
 4166\H,0,0.,0.9187205947,-1.0235104166\Kr,0,0.,R1,0.\\R1=3.,s,20,0.1\\
 Version=ES64L-G16RevA.03\HF=-2752.0522231,-2752.0522231,-2752.0522231,
 -2752.0522231,-2752.0522231,-2752.0522231,-2752.0522231,-2752.0522231,
 -2752.0522231,-2752.0522231,-2752.0522231,-2752.0522231,-2752.0522231,
 -2752.0522231,-2752.0522231,-2752.0522231,-2752.0522231,-2752.0522231,
 -2752.0522231,-2752.0522231,-2752.0522231\MP2=-2752.2941143,-2752.2941
 143,-2752.2941143,-2752.2941143,-2752.2941143,-2752.2941143,-2752.2941
 143,-2752.2941143,-2752.2941143,-2752.2941143,-2752.2941143,-2752.2941
 143,-2752.2941143,-2752.2941143,-2752.2941143,-2752.2941143,-2752.2941
 143,-2752.2941143,-2752.2941143,-2752.2941143,-2752.2941143\MP3=-2752.
 304055,-2752.304055,-2752.304055,-2752.304055,-2752.304055,-2752.30405
 5,-2752.304055,-2752.304055,-2752.304055,-2752.304055,-2752.304055,-27
 52.304055,-2752.304055,-2752.304055,-2752.304055,-2752.304055,-2752.30
 4055,-2752.304055,-2752.304055,-2752.304055,-2752.304055\MP4D=-2752.30
 77463,-2752.3077463,-2752.3077463,-2752.3077463,-2752.3077463,-2752.30
 77463,-2752.3077463,-2752.3077463,-2752.3077463,-2752.3077463,-2752.30
 77463,-2752.3077463,-2752.3077463,-2752.3077463,-2752.3077463,-2752.30
 77463,-2752.3077463,-2752.3077463,-2752.3077463,-2752.3077463,-2752.30
 77463\MP4DQ=-2752.3035385,-2752.3035385,-2752.3035385,-2752.3035385,-2
 752.3035385,-2752.3035385,-2752.3035385,-2752.3035385,-2752.3035385,-2
 752.3035385,-2752.3035385,-2752.3035385,-2752.3035385,-2752.3035385,-2
 752.3035385,-2752.3035385,-2752.3035385,-2752.3035385,-2752.3035385,-2
 752.3035385,-2752.3035385\MP4SDQ=-2752.304612,-2752.304612,-2752.30461
 2,-2752.304612,-2752.304612,-2752.304612,-2752.304612,-2752.304612,-27
 52.304612,-2752.304612,-2752.304612,-2752.304612,-2752.304612,-2752.30
 4612,-2752.304612,-2752.304612,-2752.304612,-2752.304612,-2752.304612,
 -2752.304612,-2752.304612\MP4SDTQ=-2752.3123106,-2752.3123106,-2752.31
 23106,-2752.3123106,-2752.3123106,-2752.3123106,-2752.3123106,-2752.31
 23106,-2752.3123106,-2752.3123106,-2752.3123106,-2752.3123106,-2752.31
 23106,-2752.3123106,-2752.3123106,-2752.3123106,-2752.3123106,-2752.31
 23106,-2752.3123106,-2752.3123106,-2752.3123106\RMSD=9.887e-10,1.149e-
 10,2.884e-11,7.211e-12,1.875e-12,4.654e-13,1.358e-13,3.422e-14,1.855e-
 14,1.251e-14,5.573e-15,5.454e-15,4.405e-15,1.667e-14,1.354e-14,6.492e-
 15,7.445e-15,5.675e-15,6.664e-15,8.370e-15,9.951e-15\PG=C01 [X(H2Kr1O2
 )]\\@



 WE LOSE BECAUSE WE WIN

 GAMBLERS,

 RECOLLECTING WHICH,

 TOSS THEIR DICE AGAIN....


                          EMILY DICKINSON  BOLTS OF MELODY NO. 533
 Job cpu time:       0 days 20 hours 46 minutes  4.2 seconds.
 Elapsed time:       0 days  1 hours 19 minutes  6.3 seconds.
 File lengths (MBytes):  RWF=   4070 Int=      0 D2E=      0 Chk=     12 Scr=      1
 Normal termination of Gaussian 16 at Thu Apr  2 12:30:03 2020.
