 Entering Gaussian System, Link 0=g16
 Input=Inputs/H2O2-Kr_23.com
 Output=Logs/H2O2-Kr_23.log
 Initial command:
 /usr/local/g16/g16/l1.exe "/mnt/driveB/scratch/matheus/Gau-80492.inp" -scrdir="/mnt/driveB/scratch/matheus/"
 Entering Link 1 = /usr/local/g16/g16/l1.exe PID=     80494.
  
 Copyright (c) 1988,1990,1992,1993,1995,1998,2003,2009,2016,
            Gaussian, Inc.  All Rights Reserved.
  
 This is part of the Gaussian(R) 16 program.  It is based on
 the Gaussian(R) 09 system (copyright 2009, Gaussian, Inc.),
 the Gaussian(R) 03 system (copyright 2003, Gaussian, Inc.),
 the Gaussian(R) 98 system (copyright 1998, Gaussian, Inc.),
 the Gaussian(R) 94 system (copyright 1995, Gaussian, Inc.),
 the Gaussian 92(TM) system (copyright 1992, Gaussian, Inc.),
 the Gaussian 90(TM) system (copyright 1990, Gaussian, Inc.),
 the Gaussian 88(TM) system (copyright 1988, Gaussian, Inc.),
 the Gaussian 86(TM) system (copyright 1986, Carnegie Mellon
 University), and the Gaussian 82(TM) system (copyright 1983,
 Carnegie Mellon University). Gaussian is a federally registered
 trademark of Gaussian, Inc.
  
 This software contains proprietary and confidential information,
 including trade secrets, belonging to Gaussian, Inc.
  
 This software is provided under written license and may be
 used, copied, transmitted, or stored only in accord with that
 written license.
  
 The following legend is applicable only to US Government
 contracts under FAR:
  
                    RESTRICTED RIGHTS LEGEND
  
 Use, reproduction and disclosure by the US Government is
 subject to restrictions as set forth in subparagraphs (a)
 and (c) of the Commercial Computer Software - Restricted
 Rights clause in FAR 52.227-19.
  
 Gaussian, Inc.
 340 Quinnipiac St., Bldg. 40, Wallingford CT 06492
  
  
 ---------------------------------------------------------------
 Warning -- This program may not be used in any manner that
 competes with the business of Gaussian, Inc. or will provide
 assistance to any competitor of Gaussian, Inc.  The licensee
 of this program is prohibited from giving any competitor of
 Gaussian, Inc. access to this program.  By using this program,
 the user acknowledges that Gaussian, Inc. is engaged in the
 business of creating and licensing software in the field of
 computational chemistry and represents and warrants to the
 licensee that it is not a competitor of Gaussian, Inc. and that
 it will not use this program in any manner prohibited above.
 ---------------------------------------------------------------
  

 Cite this work as:
 Gaussian 16, Revision A.03,
 M. J. Frisch, G. W. Trucks, H. B. Schlegel, G. E. Scuseria, 
 M. A. Robb, J. R. Cheeseman, G. Scalmani, V. Barone, 
 G. A. Petersson, H. Nakatsuji, X. Li, M. Caricato, A. V. Marenich, 
 J. Bloino, B. G. Janesko, R. Gomperts, B. Mennucci, H. P. Hratchian, 
 J. V. Ortiz, A. F. Izmaylov, J. L. Sonnenberg, D. Williams-Young, 
 F. Ding, F. Lipparini, F. Egidi, J. Goings, B. Peng, A. Petrone, 
 T. Henderson, D. Ranasinghe, V. G. Zakrzewski, J. Gao, N. Rega, 
 G. Zheng, W. Liang, M. Hada, M. Ehara, K. Toyota, R. Fukuda, 
 J. Hasegawa, M. Ishida, T. Nakajima, Y. Honda, O. Kitao, H. Nakai, 
 T. Vreven, K. Throssell, J. A. Montgomery, Jr., J. E. Peralta, 
 F. Ogliaro, M. J. Bearpark, J. J. Heyd, E. N. Brothers, K. N. Kudin, 
 V. N. Staroverov, T. A. Keith, R. Kobayashi, J. Normand, 
 K. Raghavachari, A. P. Rendell, J. C. Burant, S. S. Iyengar, 
 J. Tomasi, M. Cossi, J. M. Millam, M. Klene, C. Adamo, R. Cammi, 
 J. W. Ochterski, R. L. Martin, K. Morokuma, O. Farkas, 
 J. B. Foresman, and D. J. Fox, Gaussian, Inc., Wallingford CT, 2016.
 
 ******************************************
 Gaussian 16:  ES64L-G16RevA.03 25-Dec-2016
                 2-Apr-2020 
 ******************************************
 %mem=16GB
 %nproc=16
 Will use up to   16 processors via shared memory.
 ----------------------------------------------------
 #p mp4/aug-cc-PVTz int=ultrafine counterpoise=2 Scan
 ----------------------------------------------------
 1/38=1,60=1,62=2,172=1/1,8;
 2/12=2,17=6,18=5,29=3,40=1/2;
 1/38=1,53=2,62=2,63=1/22;
 3/5=16,6=1,7=10,11=9,25=1,30=1,75=-5/1,2,3;
 4//1;
 5/5=2,38=5/2;
 8/6=4,9=120000,10=1/1,4;
 9/5=5/13;
 6/7=2,8=2,9=2,10=2,18=1/1;
 1/53=2,62=2,63=1/22;
 3/5=7,6=11,7=10,11=9,25=1,30=1,75=-5,82=7/1,2,3;
 4//1;
 5/5=2,38=5/2;
 8/6=4,9=120000,10=1/1,4;
 9/5=5/13;
 6/7=2,8=2,9=2,10=2,18=1/1;
 1/53=2,62=2,63=1/22(-6);
 1/60=1,62=2/8(1);
 99/9=1/99;
 2/29=3/2;
 1/53=3,62=2,63=1/22;
 3/5=7,6=11,7=10,11=9,25=1,30=1,75=-5,82=7/1,2,3;
 4/5=5,16=3,69=1/1;
 5/5=2,38=5/2;
 8/6=4,9=120000,10=1/1,4;
 9/5=5/13;
 1/53=3,62=2,63=1/22(-5);
 1/60=1,62=2/8(-8);
 99/9=1/99;
 Leave Link    1 at Thu Apr  2 05:30:40 2020, MaxMem=  2147483648 cpu:               0.3 elap:               0.0
 (Enter /usr/local/g16/g16/l101.exe)
 ----
 PTCC
 ----
 Symbolic Z-matrix:
 Charge =  0 Multiplicity = 1 in supermolecule
 Charge =  0 Multiplicity = 1 in fragment      1.
 Charge =  0 Multiplicity = 1 in fragment      2.
 O(Fragment=1)         0.        0.        0.725 
 O(Fragment=1)         0.        0.       -0.725 
 H(Fragment=1)        -0.70378  -0.59054   1.02351 
 H(Fragment=1)         0.        0.91872  -1.02351 
 Kr(Fragment=2)        0.       R1        0. 
       Variables:
  R1                    3.     Scan 20    0.1    
 
 ITRead=  0  0  0  0  0
 MicOpt= -1 -1 -1 -1 -1
 NAtoms=      5 NQM=        5 NQMF=       0 NMMI=      0 NMMIF=      0
                NMic=       0 NMicF=      0.
                    Isotopes and Nuclear Properties:
 (Nuclear quadrupole moments (NQMom) in fm**2, nuclear magnetic moments (NMagM)
  in nuclear magnetons)

  Atom         1           2           3           4           5
 IAtWgt=          16          16           1           1          84
 AtmWgt=  15.9949146  15.9949146   1.0078250   1.0078250  83.9115064
 NucSpn=           0           0           1           1           0
 AtZEff=  -0.0000000  -0.0000000  -0.0000000  -0.0000000  -0.0000000
 NQMom=    0.0000000   0.0000000   0.0000000   0.0000000   0.0000000
 NMagM=    0.0000000   0.0000000   2.7928460   2.7928460   0.0000000
 AtZNuc=   8.0000000   8.0000000   1.0000000   1.0000000  36.0000000
 Leave Link  101 at Thu Apr  2 05:30:40 2020, MaxMem=  2147483648 cpu:               1.4 elap:               0.1
 (Enter /usr/local/g16/g16/l108.exe)
 Scan the potential surface.
 Variable   Value     No. Steps Step-Size
 -------- ----------- --------- ---------
     1       3.000000      20      0.1000
 A total of     21 points will be computed.
 Leave Link  108 at Thu Apr  2 05:30:40 2020, MaxMem=  2147483648 cpu:               0.0 elap:               0.0
 (Enter /usr/local/g16/g16/l202.exe)
 ---------------------------------------------------------------------------------------------------
                            Z-MATRIX (ANGSTROMS AND DEGREES)
   CD    Cent   Atom    N1       Length/X        N2       Alpha/Y        N3        Beta/Z          J
 ---------------------------------------------------------------------------------------------------
      1      1  O        0   0.000000          0.000000          0.725000
      2      2  O        0   0.000000          0.000000         -0.725000
      3      3  H        0  -0.703781         -0.590542          1.023510
      4      4  H        0   0.000000          0.918721         -1.023510
      5      5  Kr       0   0.000000          3.000000          0.000000
 ---------------------------------------------------------------------------------------------------
                         Z-Matrix orientation:                         
 ---------------------------------------------------------------------
 Center     Atomic      Atomic             Coordinates (Angstroms)
 Number     Number       Type             X           Y           Z
 ---------------------------------------------------------------------
      1          8           0        0.000000    0.000000    0.725000
      2          8           0        0.000000    0.000000   -0.725000
      3          1           0       -0.703781   -0.590542    1.023510
      4          1           0        0.000000    0.918721   -1.023510
      5         36           0        0.000000    3.000000    0.000000
 ---------------------------------------------------------------------
                    Distance matrix (angstroms):
                    1          2          3          4          5
     1  O    0.000000
     2  O    1.450000   0.000000
     3  H    0.966000   1.975180   0.000000
     4  H    1.975180   0.966000   2.638840   0.000000
     5  Kr   3.086361   3.086361   3.799326   2.319331   0.000000
 Stoichiometry    H2KrO2
 Framework group  C1[X(H2KrO2)]
 Deg. of freedom     9
 Full point group                 C1      NOp   1
 Largest Abelian subgroup         C1      NOp   1
 Largest concise Abelian subgroup C1      NOp   1
                         Standard orientation:                         
 ---------------------------------------------------------------------
 Center     Atomic      Atomic             Coordinates (Angstroms)
 Number     Number       Type             X           Y           Z
 ---------------------------------------------------------------------
      1          8           0       -2.016888   -0.687971   -0.094863
      2          8           0       -1.993721    0.758416    0.004771
      3          1           0       -2.624080   -1.023798    0.577220
      4          1           0       -1.070483    1.040460    0.039958
      5         36           0        0.993873   -0.016117    0.002877
 ---------------------------------------------------------------------
 Rotational constants (GHZ):          26.0617961           2.3176349           2.1364645
 Leave Link  202 at Thu Apr  2 05:30:40 2020, MaxMem=  2147483648 cpu:               0.0 elap:               0.0
 (Enter /usr/local/g16/g16/l122.exe)
 Counterpoise: doing full-system calculation.
 Leave Link  122 at Thu Apr  2 05:30:40 2020, MaxMem=  2147483648 cpu:               0.0 elap:               0.0
 (Enter /usr/local/g16/g16/l301.exe)
 Standard basis: Aug-CC-pVTZ (5D, 7F)
 Ernie: Thresh=  0.10000D-02 Tol=  0.10000D-05 Strict=F.
 Ernie:  38 primitive shells out of 205 were deleted.
 There are   229 symmetry adapted cartesian basis functions of A   symmetry.
 There are   197 symmetry adapted basis functions of A   symmetry.
   197 basis functions,   415 primitive gaussians,   229 cartesian basis functions
    27 alpha electrons       27 beta electrons
       nuclear repulsion energy       148.5957053096 Hartrees.
 IExCor=    0 DFT=F Ex=HF Corr=None ExCW=0 ScaHFX=  1.000000
 ScaDFX=  1.000000  1.000000  1.000000  1.000000 ScalE2=  1.000000  1.000000
 IRadAn=      5 IRanWt=     -1 IRanGd=            0 ICorTp=0 IEmpDi=  4
 NAtoms=    5 NActive=    5 NUniq=    5 SFac= 1.00D+00 NAtFMM=   60 NAOKFM=F Big=F
 Integral buffers will be    131072 words long.
 Raffenetti 1 integral format.
 Two-electron integral symmetry is turned on.
 Leave Link  301 at Thu Apr  2 05:30:40 2020, MaxMem=  2147483648 cpu:               0.4 elap:               0.0
 (Enter /usr/local/g16/g16/l302.exe)
 NPDir=0 NMtPBC=     1 NCelOv=     1 NCel=       1 NClECP=     1 NCelD=      1
         NCelK=      1 NCelE2=     1 NClLst=     1 CellRange=     0.0.
 One-electron integrals computed using PRISM.
 One-electron integral symmetry used in STVInt
 NBasis=   197 RedAO= T EigKep=  2.08D-04  NBF=   197
 NBsUse=   197 1.00D-06 EigRej= -1.00D+00 NBFU=   197
 Leave Link  302 at Thu Apr  2 05:30:40 2020, MaxMem=  2147483648 cpu:               1.7 elap:               0.1
 (Enter /usr/local/g16/g16/l303.exe)
 DipDrv:  MaxL=1.
 Leave Link  303 at Thu Apr  2 05:30:40 2020, MaxMem=  2147483648 cpu:               0.4 elap:               0.0
 (Enter /usr/local/g16/g16/l401.exe)
 ExpMin= 2.53D-02 ExpMax= 1.17D+07 ExpMxC= 1.33D+04 IAcc=3 IRadAn=         5 AccDes= 0.00D+00
 Harris functional with IExCor=  205 and IRadAn=       5 diagonalized for initial guess.
 HarFok:  IExCor=  205 AccDes= 0.00D+00 IRadAn=         5 IDoV= 1 UseB2=F ITyADJ=14
 ICtDFT=  3500011 ScaDFX=  1.000000  1.000000  1.000000  1.000000
 FoFCou: FMM=F IPFlag=           0 FMFlag=      100000 FMFlg1=           0
         NFxFlg=           0 DoJE=T BraDBF=F KetDBF=T FulRan=T
         wScrn=  0.000000 ICntrl=       500 IOpCl=  0 I1Cent=   200000004 NGrid=           0
         NMat0=    1 NMatS0=      1 NMatT0=    0 NMatD0=    1 NMtDS0=    0 NMtDT0=    0
 Petite list used in FoFCou.
 Harris En= -2901.99265198453    
 JPrj=0 DoOrth=F DoCkMO=F.
 Leave Link  401 at Thu Apr  2 05:30:41 2020, MaxMem=  2147483648 cpu:               3.2 elap:               0.2
 (Enter /usr/local/g16/g16/l502.exe)
 Keep R1 ints in memory in canonical form, NReq=203133300.
 FoFCou: FMM=F IPFlag=           0 FMFlag=           0 FMFlg1=           0
         NFxFlg=           0 DoJE=F BraDBF=F KetDBF=F FulRan=T
         wScrn=  0.000000 ICntrl=       600 IOpCl=  0 I1Cent=           0 NGrid=           0
         NMat0=    1 NMatS0=  19503 NMatT0=    0 NMatD0=    1 NMtDS0=    0 NMtDT0=    0
 Symmetry not used in FoFCou.
 Two-electron integral symmetry not used.
 Closed shell SCF:
 Using DIIS extrapolation, IDIIS=  1040.
 NGot=  2147483648 LenX=  1957179903 LenY=  1957127021
 Requested convergence on RMS density matrix=1.00D-08 within 128 cycles.
 Requested convergence on MAX density matrix=1.00D-06.
 Requested convergence on             energy=1.00D-06.
 No special actions if energy rises.

 Cycle   1  Pass 1  IDiag  1:
 E= -2902.76857704366    
 DIIS: error= 3.33D-02 at cycle   1 NSaved=   1.
 NSaved= 1 IEnMin= 1 EnMin= -2902.76857704366     IErMin= 1 ErrMin= 3.33D-02
 ErrMax= 3.33D-02  0.00D+00 EMaxC= 1.00D-01 BMatC= 6.56D-01 BMatP= 6.56D-01
 IDIUse=3 WtCom= 6.67D-01 WtEn= 3.33D-01
 Coeff-Com:  0.100D+01
 Coeff-En:   0.100D+01
 Coeff:      0.100D+01
 Gap=     0.694 Goal=   None    Shift=    0.000
 GapD=    0.694 DampG=2.000 DampE=0.500 DampFc=1.0000 IDamp=-1.
 RMSDP=2.00D-03 MaxDP=1.30D-01              OVMax= 5.55D-02

 Cycle   2  Pass 1  IDiag  1:
 E= -2902.86475407540     Delta-E=       -0.096177031739 Rises=F Damp=F
 DIIS: error= 7.38D-03 at cycle   2 NSaved=   2.
 NSaved= 2 IEnMin= 2 EnMin= -2902.86475407540     IErMin= 2 ErrMin= 7.38D-03
 ErrMax= 7.38D-03  0.00D+00 EMaxC= 1.00D-01 BMatC= 3.52D-02 BMatP= 6.56D-01
 IDIUse=3 WtCom= 9.26D-01 WtEn= 7.38D-02
 Coeff-Com:  0.136D+00 0.864D+00
 Coeff-En:   0.000D+00 0.100D+01
 Coeff:      0.126D+00 0.874D+00
 Gap=     0.529 Goal=   None    Shift=    0.000
 RMSDP=7.40D-04 MaxDP=3.64D-02 DE=-9.62D-02 OVMax= 2.60D-02

 Cycle   3  Pass 1  IDiag  1:
 E= -2902.87762228327     Delta-E=       -0.012868207871 Rises=F Damp=F
 DIIS: error= 2.42D-03 at cycle   3 NSaved=   3.
 NSaved= 3 IEnMin= 3 EnMin= -2902.87762228327     IErMin= 3 ErrMin= 2.42D-03
 ErrMax= 2.42D-03  0.00D+00 EMaxC= 1.00D-01 BMatC= 2.61D-03 BMatP= 3.52D-02
 IDIUse=3 WtCom= 9.76D-01 WtEn= 2.42D-02
 Coeff-Com: -0.655D-02 0.192D+00 0.815D+00
 Coeff-En:   0.000D+00 0.000D+00 0.100D+01
 Coeff:     -0.639D-02 0.187D+00 0.819D+00
 Gap=     0.504 Goal=   None    Shift=    0.000
 RMSDP=1.30D-04 MaxDP=4.90D-03 DE=-1.29D-02 OVMax= 8.01D-03

 Cycle   4  Pass 1  IDiag  1:
 E= -2902.87893225964     Delta-E=       -0.001309976370 Rises=F Damp=F
 DIIS: error= 3.65D-04 at cycle   4 NSaved=   4.
 NSaved= 4 IEnMin= 4 EnMin= -2902.87893225964     IErMin= 4 ErrMin= 3.65D-04
 ErrMax= 3.65D-04  0.00D+00 EMaxC= 1.00D-01 BMatC= 4.32D-05 BMatP= 2.61D-03
 IDIUse=3 WtCom= 9.96D-01 WtEn= 3.65D-03
 Coeff-Com: -0.394D-02 0.123D-01 0.136D+00 0.856D+00
 Coeff-En:   0.000D+00 0.000D+00 0.000D+00 0.100D+01
 Coeff:     -0.393D-02 0.123D-01 0.135D+00 0.856D+00
 Gap=     0.507 Goal=   None    Shift=    0.000
 RMSDP=2.10D-05 MaxDP=6.35D-04 DE=-1.31D-03 OVMax= 1.64D-03

 Cycle   5  Pass 1  IDiag  1:
 E= -2902.87896948206     Delta-E=       -0.000037222418 Rises=F Damp=F
 DIIS: error= 1.22D-04 at cycle   5 NSaved=   5.
 NSaved= 5 IEnMin= 5 EnMin= -2902.87896948206     IErMin= 5 ErrMin= 1.22D-04
 ErrMax= 1.22D-04  0.00D+00 EMaxC= 1.00D-01 BMatC= 3.39D-06 BMatP= 4.32D-05
 IDIUse=3 WtCom= 9.99D-01 WtEn= 1.22D-03
 Coeff-Com:  0.833D-03-0.161D-01-0.682D-01 0.685D-02 0.108D+01
 Coeff-En:   0.000D+00 0.000D+00 0.000D+00 0.000D+00 0.100D+01
 Coeff:      0.832D-03-0.161D-01-0.681D-01 0.684D-02 0.108D+01
 Gap=     0.506 Goal=   None    Shift=    0.000
 RMSDP=1.03D-05 MaxDP=3.06D-04 DE=-3.72D-05 OVMax= 7.69D-04

 Cycle   6  Pass 1  IDiag  1:
 E= -2902.87897469446     Delta-E=       -0.000005212402 Rises=F Damp=F
 DIIS: error= 2.72D-05 at cycle   6 NSaved=   6.
 NSaved= 6 IEnMin= 6 EnMin= -2902.87897469446     IErMin= 6 ErrMin= 2.72D-05
 ErrMax= 2.72D-05  0.00D+00 EMaxC= 1.00D-01 BMatC= 2.52D-07 BMatP= 3.39D-06
 IDIUse=1 WtCom= 1.00D+00 WtEn= 0.00D+00
 Coeff-Com:  0.190D-03-0.206D-03-0.729D-02-0.594D-01-0.431D-02 0.107D+01
 Coeff:      0.190D-03-0.206D-03-0.729D-02-0.594D-01-0.431D-02 0.107D+01
 Gap=     0.506 Goal=   None    Shift=    0.000
 RMSDP=3.30D-06 MaxDP=1.00D-04 DE=-5.21D-06 OVMax= 3.30D-04

 Cycle   7  Pass 1  IDiag  1:
 E= -2902.87897523399     Delta-E=       -0.000000539530 Rises=F Damp=F
 DIIS: error= 1.61D-05 at cycle   7 NSaved=   7.
 NSaved= 7 IEnMin= 7 EnMin= -2902.87897523399     IErMin= 7 ErrMin= 1.61D-05
 ErrMax= 1.61D-05  0.00D+00 EMaxC= 1.00D-01 BMatC= 4.17D-08 BMatP= 2.52D-07
 IDIUse=1 WtCom= 1.00D+00 WtEn= 0.00D+00
 Coeff-Com: -0.387D-04 0.143D-02 0.498D-02-0.105D-01-0.976D-01 0.145D+00
 Coeff-Com:  0.957D+00
 Coeff:     -0.387D-04 0.143D-02 0.498D-02-0.105D-01-0.976D-01 0.145D+00
 Coeff:      0.957D+00
 Gap=     0.506 Goal=   None    Shift=    0.000
 RMSDP=1.35D-06 MaxDP=4.57D-05 DE=-5.40D-07 OVMax= 1.64D-04

 Cycle   8  Pass 1  IDiag  1:
 E= -2902.87897532645     Delta-E=       -0.000000092452 Rises=F Damp=F
 DIIS: error= 6.21D-06 at cycle   8 NSaved=   8.
 NSaved= 8 IEnMin= 8 EnMin= -2902.87897532645     IErMin= 8 ErrMin= 6.21D-06
 ErrMax= 6.21D-06  0.00D+00 EMaxC= 1.00D-01 BMatC= 1.18D-08 BMatP= 4.17D-08
 IDIUse=1 WtCom= 1.00D+00 WtEn= 0.00D+00
 Coeff-Com: -0.366D-04 0.326D-03 0.233D-02 0.805D-02-0.225D-01-0.162D+00
 Coeff-Com:  0.260D+00 0.913D+00
 Coeff:     -0.366D-04 0.326D-03 0.233D-02 0.805D-02-0.225D-01-0.162D+00
 Coeff:      0.260D+00 0.913D+00
 Gap=     0.507 Goal=   None    Shift=    0.000
 RMSDP=7.65D-07 MaxDP=1.78D-05 DE=-9.25D-08 OVMax= 1.05D-04

 Cycle   9  Pass 1  IDiag  1:
 E= -2902.87897535436     Delta-E=       -0.000000027916 Rises=F Damp=F
 DIIS: error= 3.30D-06 at cycle   9 NSaved=   9.
 NSaved= 9 IEnMin= 9 EnMin= -2902.87897535436     IErMin= 9 ErrMin= 3.30D-06
 ErrMax= 3.30D-06  0.00D+00 EMaxC= 1.00D-01 BMatC= 2.03D-09 BMatP= 1.18D-08
 IDIUse=1 WtCom= 1.00D+00 WtEn= 0.00D+00
 Coeff-Com:  0.164D-04-0.377D-03-0.168D-02-0.720D-03 0.256D-01 0.342D-01
 Coeff-Com: -0.285D+00-0.377D+00 0.161D+01
 Coeff:      0.164D-04-0.377D-03-0.168D-02-0.720D-03 0.256D-01 0.342D-01
 Coeff:     -0.285D+00-0.377D+00 0.161D+01
 Gap=     0.507 Goal=   None    Shift=    0.000
 RMSDP=6.10D-07 MaxDP=1.46D-05 DE=-2.79D-08 OVMax= 9.78D-05

 Cycle  10  Pass 1  IDiag  1:
 E= -2902.87897536506     Delta-E=       -0.000000010697 Rises=F Damp=F
 DIIS: error= 1.06D-06 at cycle  10 NSaved=  10.
 NSaved=10 IEnMin=10 EnMin= -2902.87897536506     IErMin=10 ErrMin= 1.06D-06
 ErrMax= 1.06D-06  0.00D+00 EMaxC= 1.00D-01 BMatC= 2.55D-10 BMatP= 2.03D-09
 IDIUse=1 WtCom= 1.00D+00 WtEn= 0.00D+00
 Coeff-Com:  0.903D-06 0.104D-03 0.247D-03-0.143D-02-0.590D-02 0.152D-01
 Coeff-Com:  0.755D-01-0.309D-02-0.695D+00 0.161D+01
 Coeff:      0.903D-06 0.104D-03 0.247D-03-0.143D-02-0.590D-02 0.152D-01
 Coeff:      0.755D-01-0.309D-02-0.695D+00 0.161D+01
 Gap=     0.506 Goal=   None    Shift=    0.000
 RMSDP=2.68D-07 MaxDP=6.51D-06 DE=-1.07D-08 OVMax= 4.36D-05

 Cycle  11  Pass 1  IDiag  1:
 E= -2902.87897536648     Delta-E=       -0.000000001416 Rises=F Damp=F
 DIIS: error= 2.15D-07 at cycle  11 NSaved=  11.
 NSaved=11 IEnMin=11 EnMin= -2902.87897536648     IErMin=11 ErrMin= 2.15D-07
 ErrMax= 2.15D-07  0.00D+00 EMaxC= 1.00D-01 BMatC= 1.20D-11 BMatP= 2.55D-10
 IDIUse=1 WtCom= 1.00D+00 WtEn= 0.00D+00
 Coeff-Com: -0.174D-05-0.155D-04 0.378D-04 0.845D-03-0.543D-04-0.109D-01
 Coeff-Com: -0.991D-03 0.433D-01 0.946D-01-0.524D+00 0.140D+01
 Coeff:     -0.174D-05-0.155D-04 0.378D-04 0.845D-03-0.543D-04-0.109D-01
 Coeff:     -0.991D-03 0.433D-01 0.946D-01-0.524D+00 0.140D+01
 Gap=     0.506 Goal=   None    Shift=    0.000
 RMSDP=4.14D-08 MaxDP=8.82D-07 DE=-1.42D-09 OVMax= 5.74D-06

 Cycle  12  Pass 1  IDiag  1:
 E= -2902.87897536651     Delta-E=       -0.000000000033 Rises=F Damp=F
 DIIS: error= 5.00D-08 at cycle  12 NSaved=  12.
 NSaved=12 IEnMin=12 EnMin= -2902.87897536651     IErMin=12 ErrMin= 5.00D-08
 ErrMax= 5.00D-08  0.00D+00 EMaxC= 1.00D-01 BMatC= 5.60D-13 BMatP= 1.20D-11
 IDIUse=1 WtCom= 1.00D+00 WtEn= 0.00D+00
 Coeff-Com:  0.671D-07-0.597D-05-0.211D-04 0.644D-04 0.413D-03-0.809D-03
 Coeff-Com: -0.410D-02 0.929D-03 0.283D-01-0.562D-01-0.101D+00 0.113D+01
 Coeff:      0.671D-07-0.597D-05-0.211D-04 0.644D-04 0.413D-03-0.809D-03
 Coeff:     -0.410D-02 0.929D-03 0.283D-01-0.562D-01-0.101D+00 0.113D+01
 Gap=     0.506 Goal=   None    Shift=    0.000
 RMSDP=6.68D-09 MaxDP=1.31D-07 DE=-3.27D-11 OVMax= 7.40D-07

 SCF Done:  E(RHF) =  -2902.87897537     A.U. after   12 cycles
            NFock= 12  Conv=0.67D-08     -V/T= 2.0001
 KE= 2.902626886931D+03 PE=-7.237748088634D+03 EE= 1.283646521026D+03
 Leave Link  502 at Thu Apr  2 05:30:44 2020, MaxMem=  2147483648 cpu:              26.4 elap:               3.5
 (Enter /usr/local/g16/g16/l801.exe)
 Windowed orbitals will be sorted by symmetry type.
 ExpMin= 2.53D-02 ExpMax= 1.17D+07 ExpMxC= 1.33D+04 IAcc=3 IRadAn=         5 AccDes= 0.00D+00
 HarFok:  IExCor=  205 AccDes= 0.00D+00 IRadAn=         5 IDoV=-2 UseB2=F ITyADJ=14
 ICtDFT= 12500011 ScaDFX=  1.000000  1.000000  1.000000  1.000000
 Largest valence mixing into a core orbital is  1.16D-04
 Largest core mixing into a valence orbital is  3.82D-05
 Range of M.O.s used for correlation:    12   197
 NBasis=   197 NAE=    27 NBE=    27 NFC=    11 NFV=     0
 NROrb=    186 NOA=    16 NOB=    16 NVA=   170 NVB=   170

 **** Warning!!: The largest alpha MO coefficient is  0.12392843D+02

 Leave Link  801 at Thu Apr  2 05:30:44 2020, MaxMem=  2147483648 cpu:               0.6 elap:               0.0
 (Enter /usr/local/g16/g16/l804.exe)
 Closed-shell transformation, MDV=  2147483648 ITran=4 ISComp=1.
 Unit  1 TFree=       1248993 TCopy=        808885.
 Semi-Direct transformation.
 ModeAB=           2 MOrb=            16 LenV=    2146362278
 LASXX=     48528660 LTotXX=    48528660 LenRXX=    48528660
 LTotAB=    49298776 MaxLAS=    78372960 LenRXY=    78372960
 NonZer=    97057320 LenScr=   146313216 LnRSAI=           0
 LnScr1=           0 LExtra=           0 Total=    273214836
 MaxDsk=          -1 SrtSym=           F ITran=            4
 DoSDTr:  NPSUse= 16
 JobTyp=0 Pass  1:  I=   1 to  16.
 (rs|ai) integrals will be sorted in core.
 Complete sort for first half transformation.
 First half transformation complete.
 Begin second half transformation for I=  10.
 Begin second half transformation for I=  10.
 Complete sort for second half transformation.
 Second half transformation complete.
 SymMOI:  orbitals are not symmetric.
 Spin components of T(2) and E(2):
     alpha-alpha T2 =       0.2596585655D-01 E2=     -0.9996637260D-01
     alpha-beta  T2 =       0.1419397644D+00 E2=     -0.5566317827D+00
     beta-beta   T2 =       0.2596585655D-01 E2=     -0.9996637260D-01
 ANorm=    0.1092644259D+01
 E2 =    -0.7565645279D+00 EUMP2 =    -0.29036355398944D+04
 Leave Link  804 at Thu Apr  2 05:30:55 2020, MaxMem=  2147483648 cpu:             174.1 elap:              10.9
 (Enter /usr/local/g16/g16/l913.exe)
 CIDS:  MDV=  2147483648.
 Frozen-core window:  NFC=  11 NFV=   0.
 IFCWin=0 IBDFC=1 NFBD=     0     0 NFCmp=     0     0 NFFFC=     0     0
 Using DD3R+UMP44R for 1st iteration.
 Using DD4RQ for 2nd and later iterations.
 Keep R2 and R3 ints in memory in canonical form, NReq=393334785.
 FoFCou: FMM=F IPFlag=           0 FMFlag=           0 FMFlg1=           0
         NFxFlg=           0 DoJE=F BraDBF=F KetDBF=F FulRan=T
         wScrn=  0.000000 ICntrl=       600 IOpCl=  0 I1Cent=           0 NGrid=           0
         NMat0=    1 NMatS0=  19503 NMatT0=    0 NMatD0=    1 NMtDS0=    0 NMtDT0=    0
 Symmetry not used in FoFCou.
 Two-electron integral symmetry not used.
 CIDS: In Core Option IDoMem=           1.
 MP4(SDTQ)
 =========
 Produce multiple copies of IABC intergrals
 DD1Dir will call FoFMem   1 times, MxPair=       272
 NAB=   136 NAA=     0 NBB=     0.
 MP4(D)= -0.14971316D-01
 MP4(S)= -0.64553465D-02
 MP4(R+Q)=  0.15394682D-01
 T4(AAA)= -0.10430792D-02
 T4(AAB)= -0.14177181D-01
 Time for triples=     1768.19 seconds.
 MP4(T)=   -0.30440519D-01
 E3=       -0.11251532D-01        EUMP3=      -0.29036467914D+04
 E4(DQ)=    0.42336608D-03        UMP4(DQ)=   -0.29036463681D+04
 E4(SDQ)=  -0.60319804D-02        UMP4(SDQ)=  -0.29036528234D+04
 E4(SDTQ)= -0.36472500D-01        UMP4(SDTQ)= -0.29036832639D+04
 VARIATIONAL ENERGIES WITH THE FIRST-ORDER WAVEFUNCTION:
 E(VAR1)=  -0.29035221066D+04     E(CISD,4)=  -0.29035215418D+04
 Largest amplitude= 2.58D-02
 Discarding MO integrals.
 Leave Link  913 at Thu Apr  2 05:32:54 2020, MaxMem=  2147483648 cpu:            1891.4 elap:             118.4
 (Enter /usr/local/g16/g16/l601.exe)
 Copying SCF densities to generalized density rwf, IOpCl= 0 IROHF=0.

 **********************************************************************

            Population analysis using the SCF density.

 **********************************************************************

 Orbital symmetries:
       Occupied  (A) (A) (A) (A) (A) (A) (A) (A) (A) (A) (A) (A)
                 (A) (A) (A) (A) (A) (A) (A) (A) (A) (A) (A) (A)
                 (A) (A) (A)
       Virtual   (A) (A) (A) (A) (A) (A) (A) (A) (A) (A) (A) (A)
                 (A) (A) (A) (A) (A) (A) (A) (A) (A) (A) (A) (A)
                 (A) (A) (A) (A) (A) (A) (A) (A) (A) (A) (A) (A)
                 (A) (A) (A) (A) (A) (A) (A) (A) (A) (A) (A) (A)
                 (A) (A) (A) (A) (A) (A) (A) (A) (A) (A) (A) (A)
                 (A) (A) (A) (A) (A) (A) (A) (A) (A) (A) (A) (A)
                 (A) (A) (A) (A) (A) (A) (A) (A) (A) (A) (A) (A)
                 (A) (A) (A) (A) (A) (A) (A) (A) (A) (A) (A) (A)
                 (A) (A) (A) (A) (A) (A) (A) (A) (A) (A) (A) (A)
                 (A) (A) (A) (A) (A) (A) (A) (A) (A) (A) (A) (A)
                 (A) (A) (A) (A) (A) (A) (A) (A) (A) (A) (A) (A)
                 (A) (A) (A) (A) (A) (A) (A) (A) (A) (A) (A) (A)
                 (A) (A) (A) (A) (A) (A) (A) (A) (A) (A) (A) (A)
                 (A) (A) (A) (A) (A) (A) (A) (A) (A) (A) (A) (A)
                 (A) (A)
 The electronic state is 1-A.
 Alpha  occ. eigenvalues -- -520.17402 -69.91157 -63.01815 -63.01813 -63.01809
 Alpha  occ. eigenvalues --  -20.62865 -20.62548 -10.85821  -8.34044  -8.34019
 Alpha  occ. eigenvalues --   -8.34002  -3.83425  -3.83420  -3.83397  -3.83371
 Alpha  occ. eigenvalues --   -3.83367  -1.46572  -1.21740  -1.16411  -0.71781
 Alpha  occ. eigenvalues --   -0.70726  -0.61268  -0.54171  -0.53335  -0.52862
 Alpha  occ. eigenvalues --   -0.51146  -0.47119
 Alpha virt. eigenvalues --    0.03530   0.04510   0.08912   0.10271   0.11537
 Alpha virt. eigenvalues --    0.12488   0.15064   0.15795   0.17383   0.18587
 Alpha virt. eigenvalues --    0.19258   0.21350   0.23697   0.25898   0.26653
 Alpha virt. eigenvalues --    0.28176   0.28571   0.31423   0.34186   0.36070
 Alpha virt. eigenvalues --    0.36618   0.36967   0.38262   0.41953   0.42618
 Alpha virt. eigenvalues --    0.44754   0.46024   0.51796   0.56892   0.59959
 Alpha virt. eigenvalues --    0.61104   0.63958   0.67645   0.71813   0.72502
 Alpha virt. eigenvalues --    0.76699   0.77389   0.77648   0.79781   0.81572
 Alpha virt. eigenvalues --    0.83306   0.84542   0.85681   0.87367   0.87935
 Alpha virt. eigenvalues --    0.91045   0.91341   0.93068   0.95443   0.97777
 Alpha virt. eigenvalues --    0.99543   1.00718   1.02282   1.02818   1.05921
 Alpha virt. eigenvalues --    1.08727   1.08864   1.13129   1.14794   1.17519
 Alpha virt. eigenvalues --    1.18013   1.21220   1.23587   1.25935   1.30344
 Alpha virt. eigenvalues --    1.32713   1.39815   1.42300   1.47874   1.50528
 Alpha virt. eigenvalues --    1.52318   1.59084   1.62218   1.64219   1.69884
 Alpha virt. eigenvalues --    1.75216   1.87289   1.96578   1.99924   2.08016
 Alpha virt. eigenvalues --    2.13333   2.16856   2.23485   2.28056   2.31141
 Alpha virt. eigenvalues --    2.34266   2.37572   2.38946   2.40580   2.41026
 Alpha virt. eigenvalues --    2.43032   2.47285   2.52688   2.53444   2.54198
 Alpha virt. eigenvalues --    2.55212   2.57246   2.61745   2.64200   2.67453
 Alpha virt. eigenvalues --    2.69584   2.69920   2.71003   2.75316   2.75728
 Alpha virt. eigenvalues --    2.78695   2.80113   2.82320   2.85021   2.87909
 Alpha virt. eigenvalues --    2.92850   2.95901   3.00030   3.03137   3.07271
 Alpha virt. eigenvalues --    3.09431   3.24777   3.29914   3.33836   3.83532
 Alpha virt. eigenvalues --    3.88462   4.13319   4.19961   4.22882   4.26978
 Alpha virt. eigenvalues --    4.34523   4.39415   4.42266   4.47660   4.50300
 Alpha virt. eigenvalues --    4.66890   4.71516   4.80265   4.84331   5.00443
 Alpha virt. eigenvalues --    5.14695   5.23594   5.32486   5.35444   5.37837
 Alpha virt. eigenvalues --    5.51635   5.80403   6.16837   6.40192   6.41688
 Alpha virt. eigenvalues --    6.45135   6.65446   6.69937   6.75419   6.88243
 Alpha virt. eigenvalues --    6.98307   7.13999   7.15634   7.20268   7.22446
 Alpha virt. eigenvalues --    7.23842   7.27353   7.29022   7.33720   7.40681
 Alpha virt. eigenvalues --    7.43878   7.58764   7.63705   7.79354   8.16730
 Alpha virt. eigenvalues --    8.17882   8.47341   8.52622  14.59777  15.30718
          Condensed to atoms (all electrons):
               1          2          3          4          5
     1  O    8.113359  -0.072994   0.256820  -0.013646  -0.026443
     2  O   -0.072994   8.139119  -0.001309   0.254300  -0.011151
     3  H    0.256820  -0.001309   0.474115   0.003286   0.001889
     4  H   -0.013646   0.254300   0.003286   0.471560  -0.004299
     5  Kr  -0.026443  -0.011151   0.001889  -0.004299  36.028942
 Mulliken charges:
               1
     1  O   -0.257096
     2  O   -0.307965
     3  H    0.265200
     4  H    0.288799
     5  Kr   0.011062
 Sum of Mulliken charges =  -0.00000
 Mulliken charges with hydrogens summed into heavy atoms:
               1
     1  O    0.008104
     2  O   -0.019166
     5  Kr   0.011062
         Mulliken charges condensed to fragments:
      1     -0.011062
      2      0.011062
 Electronic spatial extent (au):  <R**2>=            489.4561
 Charge=             -0.0000 electrons
 Dipole moment (field-independent basis, Debye):
    X=              0.7084    Y=             -0.3522    Z=              1.2481  Tot=              1.4777
 Quadrupole moment (field-independent basis, Debye-Ang):
   XX=            -29.7324   YY=            -28.0811   ZZ=            -29.5679
   XY=              3.5658   XZ=             -3.5377   YZ=             -1.3974
 Traceless Quadrupole moment (field-independent basis, Debye-Ang):
   XX=             -0.6053   YY=              1.0460   ZZ=             -0.4407
   XY=              3.5658   XZ=             -3.5377   YZ=             -1.3974
 Octapole moment (field-independent basis, Debye-Ang**2):
  XXX=             13.4992  YYY=             -0.8744  ZZZ=              0.8314  XYY=              4.0055
  XXY=            -13.7318  XXZ=              9.5477  XZZ=              5.7727  YZZ=             -1.1925
  YYZ=              1.7025  XYZ=              3.8833
 Hexadecapole moment (field-independent basis, Debye-Ang**3):
 XXXX=           -391.2689 YYYY=            -62.7229 ZZZZ=            -29.0805 XXXY=             39.0803
 XXXZ=            -26.6607 YYYX=              5.7220 YYYZ=             -1.8862 ZZZX=             -2.5185
 ZZZY=             -1.1746 XXYY=            -75.8873 XXZZ=            -72.6973 YYZZ=            -16.2958
 XXYZ=            -10.6616 YYXZ=             -4.4824 ZZXY=              2.7207
 N-N= 1.485957053096D+02 E-N=-7.237748091560D+03  KE= 2.902626886931D+03
 Leave Link  601 at Thu Apr  2 05:32:54 2020, MaxMem=  2147483648 cpu:               0.5 elap:               0.0
 (Enter /usr/local/g16/g16/l122.exe)
 CPIOFr:  IOpCl= 0 IRwI=-1 IRwCP=  731 ICalc= -1 LCPTot=       59414 Len1MO=      159453 IndFrg=       59414
 CPIOFr:  IOpCl= 0 IRwI=-1 IRwCP=  731 ICalc=  0 LCPTot=       59414 Len1MO=      159453 IndFrg=      218867
 Counterpoise: doing calculation for fragment   1 using the basis set of the full-system, NewBq=T
 Leave Link  122 at Thu Apr  2 05:32:54 2020, MaxMem=  2147483648 cpu:               0.0 elap:               0.0
 (Enter /usr/local/g16/g16/l301.exe)
 Basis read from rwf:  (5D, 7F)
 No pseudopotential information found on rwf file.
 There are   229 symmetry adapted cartesian basis functions of A   symmetry.
 There are   197 symmetry adapted basis functions of A   symmetry.
   197 basis functions,   415 primitive gaussians,   229 cartesian basis functions
     9 alpha electrons        9 beta electrons
       nuclear repulsion energy        36.6087756861 Hartrees.
 IExCor=    0 DFT=F Ex=HF Corr=None ExCW=0 ScaHFX=  1.000000
 ScaDFX=  1.000000  1.000000  1.000000  1.000000 ScalE2=  1.000000  1.000000
 IRadAn=      5 IRanWt=     -1 IRanGd=            0 ICorTp=0 IEmpDi=  4
 NAtoms=    5 NActive=    5 NUniq=    5 SFac= 1.00D+00 NAtFMM=   60 NAOKFM=F Big=F
 Integral buffers will be    131072 words long.
 Raffenetti 1 integral format.
 Two-electron integral symmetry is turned on.
 No density basis found on file   718.
 Leave Link  301 at Thu Apr  2 05:32:54 2020, MaxMem=  2147483648 cpu:               0.4 elap:               0.0
 (Enter /usr/local/g16/g16/l302.exe)
 NPDir=0 NMtPBC=     1 NCelOv=     1 NCel=       1 NClECP=     1 NCelD=      1
         NCelK=      1 NCelE2=     1 NClLst=     1 CellRange=     0.0.
 One-electron integrals computed using PRISM.
 One-electron integral symmetry used in STVInt
 NBasis=   197 RedAO= T EigKep=  2.08D-04  NBF=   197
 NBsUse=   197 1.00D-06 EigRej= -1.00D+00 NBFU=   197
 Leave Link  302 at Thu Apr  2 05:32:54 2020, MaxMem=  2147483648 cpu:               1.9 elap:               0.1
 (Enter /usr/local/g16/g16/l303.exe)
 DipDrv:  MaxL=1.
 Leave Link  303 at Thu Apr  2 05:32:54 2020, MaxMem=  2147483648 cpu:               0.4 elap:               0.0
 (Enter /usr/local/g16/g16/l401.exe)
 ExpMin= 2.53D-02 ExpMax= 1.17D+07 ExpMxC= 1.33D+04 IAcc=3 IRadAn=         5 AccDes= 0.00D+00
 Harris functional with IExCor=  205 and IRadAn=       5 diagonalized for initial guess.
 HarFok:  IExCor=  205 AccDes= 0.00D+00 IRadAn=         5 IDoV= 1 UseB2=F ITyADJ=14
 ICtDFT=  3500011 ScaDFX=  1.000000  1.000000  1.000000  1.000000
 FoFCou: FMM=F IPFlag=           0 FMFlag=      100000 FMFlg1=           0
         NFxFlg=           0 DoJE=T BraDBF=F KetDBF=T FulRan=T
         wScrn=  0.000000 ICntrl=       500 IOpCl=  0 I1Cent=   200000004 NGrid=           0
         NMat0=    1 NMatS0=      1 NMatT0=    0 NMatD0=    1 NMtDS0=    0 NMtDT0=    0
 Petite list used in FoFCou.
 Harris En= -150.935131150534    
 JPrj=0 DoOrth=F DoCkMO=F.
 Leave Link  401 at Thu Apr  2 05:32:55 2020, MaxMem=  2147483648 cpu:               3.1 elap:               0.2
 (Enter /usr/local/g16/g16/l502.exe)
 Keep R1 ints in memory in canonical form, NReq=203133300.
 FoFCou: FMM=F IPFlag=           0 FMFlag=           0 FMFlg1=           0
         NFxFlg=           0 DoJE=F BraDBF=F KetDBF=F FulRan=T
         wScrn=  0.000000 ICntrl=       600 IOpCl=  0 I1Cent=           0 NGrid=           0
         NMat0=    1 NMatS0=  19503 NMatT0=    0 NMatD0=    1 NMtDS0=    0 NMtDT0=    0
 Symmetry not used in FoFCou.
 Two-electron integral symmetry not used.
 Closed shell SCF:
 Using DIIS extrapolation, IDIIS=  1040.
 NGot=  2147483648 LenX=  1957179903 LenY=  1957127021
 Requested convergence on RMS density matrix=1.00D-08 within 128 cycles.
 Requested convergence on MAX density matrix=1.00D-06.
 Requested convergence on             energy=1.00D-06.
 No special actions if energy rises.

 Cycle   1  Pass 1  IDiag  1:
 E= -150.773665001834    
 DIIS: error= 2.03D-02 at cycle   1 NSaved=   1.
 NSaved= 1 IEnMin= 1 EnMin= -150.773665001834     IErMin= 1 ErrMin= 2.03D-02
 ErrMax= 2.03D-02  0.00D+00 EMaxC= 1.00D-01 BMatC= 2.27D-01 BMatP= 2.27D-01
 IDIUse=3 WtCom= 7.97D-01 WtEn= 2.03D-01
 Coeff-Com:  0.100D+01
 Coeff-En:   0.100D+01
 Coeff:      0.100D+01
 Gap=     0.697 Goal=   None    Shift=    0.000
 GapD=    0.697 DampG=2.000 DampE=0.500 DampFc=1.0000 IDamp=-1.
 RMSDP=9.35D-04 MaxDP=2.91D-02              OVMax= 6.45D-02

 Cycle   2  Pass 1  IDiag  1:
 E= -150.825920771038     Delta-E=       -0.052255769204 Rises=F Damp=F
 DIIS: error= 6.97D-03 at cycle   2 NSaved=   2.
 NSaved= 2 IEnMin= 2 EnMin= -150.825920771038     IErMin= 2 ErrMin= 6.97D-03
 ErrMax= 6.97D-03  0.00D+00 EMaxC= 1.00D-01 BMatC= 1.54D-02 BMatP= 2.27D-01
 IDIUse=3 WtCom= 9.30D-01 WtEn= 6.97D-02
 Coeff-Com:  0.101D+00 0.899D+00
 Coeff-En:   0.000D+00 0.100D+01
 Coeff:      0.941D-01 0.906D+00
 Gap=     0.531 Goal=   None    Shift=    0.000
 RMSDP=4.70D-04 MaxDP=2.49D-02 DE=-5.23D-02 OVMax= 2.78D-02

 Cycle   3  Pass 1  IDiag  1:
 E= -150.833563817602     Delta-E=       -0.007643046564 Rises=F Damp=F
 DIIS: error= 2.61D-03 at cycle   3 NSaved=   3.
 NSaved= 3 IEnMin= 3 EnMin= -150.833563817602     IErMin= 3 ErrMin= 2.61D-03
 ErrMax= 2.61D-03  0.00D+00 EMaxC= 1.00D-01 BMatC= 2.19D-03 BMatP= 1.54D-02
 IDIUse=3 WtCom= 9.74D-01 WtEn= 2.61D-02
 Coeff-Com: -0.207D-01 0.253D+00 0.768D+00
 Coeff-En:   0.000D+00 0.000D+00 0.100D+01
 Coeff:     -0.201D-01 0.246D+00 0.774D+00
 Gap=     0.503 Goal=   None    Shift=    0.000
 RMSDP=1.05D-04 MaxDP=3.67D-03 DE=-7.64D-03 OVMax= 8.86D-03

 Cycle   4  Pass 1  IDiag  1:
 E= -150.834921215161     Delta-E=       -0.001357397559 Rises=F Damp=F
 DIIS: error= 2.24D-04 at cycle   4 NSaved=   4.
 NSaved= 4 IEnMin= 4 EnMin= -150.834921215161     IErMin= 4 ErrMin= 2.24D-04
 ErrMax= 2.24D-04  0.00D+00 EMaxC= 1.00D-01 BMatC= 1.43D-05 BMatP= 2.19D-03
 IDIUse=3 WtCom= 9.98D-01 WtEn= 2.24D-03
 Coeff-Com: -0.170D-02-0.108D-01 0.782D-02 0.100D+01
 Coeff-En:   0.000D+00 0.000D+00 0.000D+00 0.100D+01
 Coeff:     -0.169D-02-0.107D-01 0.781D-02 0.100D+01
 Gap=     0.504 Goal=   None    Shift=    0.000
 RMSDP=1.54D-05 MaxDP=3.81D-04 DE=-1.36D-03 OVMax= 1.29D-03

 Cycle   5  Pass 1  IDiag  1:
 E= -150.834941884137     Delta-E=       -0.000020668976 Rises=F Damp=F
 DIIS: error= 8.31D-05 at cycle   5 NSaved=   5.
 NSaved= 5 IEnMin= 5 EnMin= -150.834941884137     IErMin= 5 ErrMin= 8.31D-05
 ErrMax= 8.31D-05  0.00D+00 EMaxC= 1.00D-01 BMatC= 1.45D-06 BMatP= 1.43D-05
 IDIUse=1 WtCom= 1.00D+00 WtEn= 0.00D+00
 Coeff-Com:  0.164D-02-0.165D-01-0.571D-01-0.170D+00 0.124D+01
 Coeff:      0.164D-02-0.165D-01-0.571D-01-0.170D+00 0.124D+01
 Gap=     0.504 Goal=   None    Shift=    0.000
 RMSDP=8.66D-06 MaxDP=2.31D-04 DE=-2.07D-05 OVMax= 7.59D-04

 Cycle   6  Pass 1  IDiag  1:
 E= -150.834945481014     Delta-E=       -0.000003596877 Rises=F Damp=F
 DIIS: error= 1.69D-05 at cycle   6 NSaved=   6.
 NSaved= 6 IEnMin= 6 EnMin= -150.834945481014     IErMin= 6 ErrMin= 1.69D-05
 ErrMax= 1.69D-05  0.00D+00 EMaxC= 1.00D-01 BMatC= 8.33D-08 BMatP= 1.45D-06
 IDIUse=1 WtCom= 1.00D+00 WtEn= 0.00D+00
 Coeff-Com: -0.457D-03 0.572D-02 0.202D-01 0.264D-01-0.472D+00 0.142D+01
 Coeff:     -0.457D-03 0.572D-02 0.202D-01 0.264D-01-0.472D+00 0.142D+01
 Gap=     0.504 Goal=   None    Shift=    0.000
 RMSDP=2.85D-06 MaxDP=7.36D-05 DE=-3.60D-06 OVMax= 3.52D-04

 Cycle   7  Pass 1  IDiag  1:
 E= -150.834945776066     Delta-E=       -0.000000295052 Rises=F Damp=F
 DIIS: error= 6.49D-06 at cycle   7 NSaved=   7.
 NSaved= 7 IEnMin= 7 EnMin= -150.834945776066     IErMin= 7 ErrMin= 6.49D-06
 ErrMax= 6.49D-06  0.00D+00 EMaxC= 1.00D-01 BMatC= 8.54D-09 BMatP= 8.33D-08
 IDIUse=1 WtCom= 1.00D+00 WtEn= 0.00D+00
 Coeff-Com:  0.108D-03-0.159D-02-0.625D-02-0.406D-02 0.147D+00-0.636D+00
 Coeff-Com:  0.150D+01
 Coeff:      0.108D-03-0.159D-02-0.625D-02-0.406D-02 0.147D+00-0.636D+00
 Coeff:      0.150D+01
 Gap=     0.504 Goal=   None    Shift=    0.000
 RMSDP=1.06D-06 MaxDP=2.49D-05 DE=-2.95D-07 OVMax= 1.62D-04

 Cycle   8  Pass 1  IDiag  1:
 E= -150.834945816078     Delta-E=       -0.000000040012 Rises=F Damp=F
 DIIS: error= 3.05D-06 at cycle   8 NSaved=   8.
 NSaved= 8 IEnMin= 8 EnMin= -150.834945816078     IErMin= 8 ErrMin= 3.05D-06
 ErrMax= 3.05D-06  0.00D+00 EMaxC= 1.00D-01 BMatC= 1.68D-09 BMatP= 8.54D-09
 IDIUse=1 WtCom= 1.00D+00 WtEn= 0.00D+00
 Coeff-Com:  0.468D-05 0.135D-03 0.101D-02-0.358D-02-0.168D-01 0.206D+00
 Coeff-Com: -0.110D+01 0.192D+01
 Coeff:      0.468D-05 0.135D-03 0.101D-02-0.358D-02-0.168D-01 0.206D+00
 Coeff:     -0.110D+01 0.192D+01
 Gap=     0.504 Goal=   None    Shift=    0.000
 RMSDP=6.81D-07 MaxDP=1.75D-05 DE=-4.00D-08 OVMax= 1.13D-04

 Cycle   9  Pass 1  IDiag  1:
 E= -150.834945825878     Delta-E=       -0.000000009800 Rises=F Damp=F
 DIIS: error= 6.16D-07 at cycle   9 NSaved=   9.
 NSaved= 9 IEnMin= 9 EnMin= -150.834945825878     IErMin= 9 ErrMin= 6.16D-07
 ErrMax= 6.16D-07  0.00D+00 EMaxC= 1.00D-01 BMatC= 9.49D-11 BMatP= 1.68D-09
 IDIUse=1 WtCom= 1.00D+00 WtEn= 0.00D+00
 Coeff-Com: -0.136D-04 0.136D-03 0.417D-03 0.237D-02-0.152D-01 0.169D-01
 Coeff-Com:  0.152D+00-0.521D+00 0.136D+01
 Coeff:     -0.136D-04 0.136D-03 0.417D-03 0.237D-02-0.152D-01 0.169D-01
 Coeff:      0.152D+00-0.521D+00 0.136D+01
 Gap=     0.504 Goal=   None    Shift=    0.000
 RMSDP=1.31D-07 MaxDP=3.00D-06 DE=-9.80D-09 OVMax= 2.04D-05

 Cycle  10  Pass 1  IDiag  1:
 E= -150.834945826255     Delta-E=       -0.000000000376 Rises=F Damp=F
 DIIS: error= 2.26D-07 at cycle  10 NSaved=  10.
 NSaved=10 IEnMin=10 EnMin= -150.834945826255     IErMin=10 ErrMin= 2.26D-07
 ErrMax= 2.26D-07  0.00D+00 EMaxC= 1.00D-01 BMatC= 1.24D-11 BMatP= 9.49D-11
 IDIUse=1 WtCom= 1.00D+00 WtEn= 0.00D+00
 Coeff-Com: -0.380D-05 0.203D-04 0.132D-04 0.110D-02-0.291D-02-0.119D-01
 Coeff-Com:  0.128D+00-0.283D+00 0.313D+00 0.857D+00
 Coeff:     -0.380D-05 0.203D-04 0.132D-04 0.110D-02-0.291D-02-0.119D-01
 Coeff:      0.128D+00-0.283D+00 0.313D+00 0.857D+00
 Gap=     0.504 Goal=   None    Shift=    0.000
 RMSDP=2.17D-08 MaxDP=6.30D-07 DE=-3.76D-10 OVMax= 2.86D-06

 Cycle  11  Pass 1  IDiag  1:
 E= -150.834945826272     Delta-E=       -0.000000000018 Rises=F Damp=F
 DIIS: error= 7.97D-08 at cycle  11 NSaved=  11.
 NSaved=11 IEnMin=11 EnMin= -150.834945826272     IErMin=11 ErrMin= 7.97D-08
 ErrMax= 7.97D-08  0.00D+00 EMaxC= 1.00D-01 BMatC= 1.72D-12 BMatP= 1.24D-11
 IDIUse=1 WtCom= 1.00D+00 WtEn= 0.00D+00
 Coeff-Com:  0.141D-05-0.186D-04-0.663D-04-0.675D-04 0.161D-02-0.456D-02
 Coeff-Com: -0.458D-03 0.289D-01-0.159D+00 0.224D+00 0.910D+00
 Coeff:      0.141D-05-0.186D-04-0.663D-04-0.675D-04 0.161D-02-0.456D-02
 Coeff:     -0.458D-03 0.289D-01-0.159D+00 0.224D+00 0.910D+00
 Gap=     0.504 Goal=   None    Shift=    0.000
 RMSDP=6.74D-09 MaxDP=1.30D-07 DE=-1.78D-11 OVMax= 7.23D-07

 SCF Done:  E(RHF) =  -150.834945826     A.U. after   11 cycles
            NFock= 11  Conv=0.67D-08     -V/T= 2.0021
 KE= 1.505168037229D+02 PE=-4.314492545070D+02 EE= 9.348872927179D+01
 Leave Link  502 at Thu Apr  2 05:32:58 2020, MaxMem=  2147483648 cpu:              26.4 elap:               3.3
 (Enter /usr/local/g16/g16/l801.exe)
 Windowed orbitals will be sorted by symmetry type.
 ExpMin= 2.53D-02 ExpMax= 1.17D+07 ExpMxC= 1.33D+04 IAcc=3 IRadAn=         5 AccDes= 0.00D+00
 HarFok:  IExCor=  205 AccDes= 0.00D+00 IRadAn=         5 IDoV=-2 UseB2=F ITyADJ=14
 ICtDFT= 12500011 ScaDFX=  1.000000  1.000000  1.000000  1.000000
 Largest valence mixing into a core orbital is  1.19D-04
 Largest core mixing into a valence orbital is  2.03D-05
 Range of M.O.s used for correlation:     3   197
 NBasis=   197 NAE=     9 NBE=     9 NFC=     2 NFV=     0
 NROrb=    195 NOA=     7 NOB=     7 NVA=   188 NVB=   188

 **** Warning!!: The largest alpha MO coefficient is  0.14677829D+02

 Leave Link  801 at Thu Apr  2 05:32:58 2020, MaxMem=  2147483648 cpu:               0.6 elap:               0.0
 (Enter /usr/local/g16/g16/l804.exe)
 Closed-shell transformation, MDV=  2147483648 ITran=4 ISComp=1.
 Semi-Direct transformation.
 ModeAB=           2 MOrb=             7 LenV=    2146282295
 LASXX=     25261509 LTotXX=    25261509 LenRXX=    25261509
 LTotAB=    25646992 MaxLAS=    35947275 LenRXY=    35947275
 NonZer=    50523018 LenScr=    76544000 LnRSAI=           0
 LnScr1=           0 LExtra=           0 Total=    137752784
 MaxDsk=          -1 SrtSym=           F ITran=            4
 DoSDTr:  NPSUse= 16
 JobTyp=0 Pass  1:  I=   1 to   7.
 (rs|ai) integrals will be sorted in core.
 Complete sort for first half transformation.
 First half transformation complete.
 Complete sort for second half transformation.
 Second half transformation complete.
 SymMOI:  orbitals are not symmetric.
 Spin components of T(2) and E(2):
     alpha-alpha T2 =       0.1595798989D-01 E2=     -0.6275781115D-01
     alpha-beta  T2 =       0.9307681162D-01 E2=     -0.3817674440D+00
     beta-beta   T2 =       0.1595798989D-01 E2=     -0.6275781115D-01
 ANorm=    0.1060656774D+01
 E2 =    -0.5072830663D+00 EUMP2 =    -0.15134222889259D+03
 Leave Link  804 at Thu Apr  2 05:33:06 2020, MaxMem=  2147483648 cpu:             119.4 elap:               7.5
 (Enter /usr/local/g16/g16/l913.exe)
 CIDS:  MDV=  2147483648.
 Frozen-core window:  NFC=   2 NFV=   0.
 IFCWin=0 IBDFC=1 NFBD=     0     0 NFCmp=     0     0 NFFFC=     0     0
 Using DD3R+UMP44R for 1st iteration.
 Using DD4RQ for 2nd and later iterations.
 Keep R2 and R3 ints in memory in canonical form, NReq=393331977.
 FoFCou: FMM=F IPFlag=           0 FMFlag=           0 FMFlg1=           0
         NFxFlg=           0 DoJE=F BraDBF=F KetDBF=F FulRan=T
         wScrn=  0.000000 ICntrl=       600 IOpCl=  0 I1Cent=           0 NGrid=           0
         NMat0=    1 NMatS0=  19503 NMatT0=    0 NMatD0=    1 NMtDS0=    0 NMtDT0=    0
 Symmetry not used in FoFCou.
 Two-electron integral symmetry not used.
 CIDS: In Core Option IDoMem=           1.
 MP4(SDTQ)
 =========
 Produce multiple copies of IABC intergrals
 DD1Dir will call FoFMem   1 times, MxPair=        56
 NAB=    28 NAA=     0 NBB=     0.
 MP4(D)= -0.11263440D-01
 MP4(S)= -0.51745344D-02
 MP4(R+Q)=  0.10732410D-01
 T4(AAA)= -0.65560513D-03
 T4(AAB)= -0.10229048D-01
 Time for triples=      373.42 seconds.
 MP4(T)=   -0.21769306D-01
 E3=       -0.21789755D-02        EUMP3=      -0.15134440787D+03
 E4(DQ)=   -0.53103036D-03        UMP4(DQ)=   -0.15134493890D+03
 E4(SDQ)=  -0.57055647D-02        UMP4(SDQ)=  -0.15135011343D+03
 E4(SDTQ)= -0.27474871D-01        UMP4(SDTQ)= -0.15137188274D+03
 VARIATIONAL ENERGIES WITH THE FIRST-ORDER WAVEFUNCTION:
 E(VAR1)=  -0.15128780388D+03     E(CISD,4)=  -0.15129743912D+03
 Largest amplitude= 2.04D-02
 Discarding MO integrals.
 Leave Link  913 at Thu Apr  2 05:33:33 2020, MaxMem=  2147483648 cpu:             431.4 elap:              27.0
 (Enter /usr/local/g16/g16/l601.exe)
 Copying SCF densities to generalized density rwf, IOpCl= 0 IROHF=0.

 **********************************************************************

            Population analysis using the SCF density.

 **********************************************************************

 Orbital symmetries:
       Occupied  (A) (A) (A) (A) (A) (A) (A) (A) (A)
       Virtual   (A) (A) (A) (A) (A) (A) (A) (A) (A) (A) (A) (A)
                 (A) (A) (A) (A) (A) (A) (A) (A) (A) (A) (A) (A)
                 (A) (A) (A) (A) (A) (A) (A) (A) (A) (A) (A) (A)
                 (A) (A) (A) (A) (A) (A) (A) (A) (A) (A) (A) (A)
                 (A) (A) (A) (A) (A) (A) (A) (A) (A) (A) (A) (A)
                 (A) (A) (A) (A) (A) (A) (A) (A) (A) (A) (A) (A)
                 (A) (A) (A) (A) (A) (A) (A) (A) (A) (A) (A) (A)
                 (A) (A) (A) (A) (A) (A) (A) (A) (A) (A) (A) (A)
                 (A) (A) (A) (A) (A) (A) (A) (A) (A) (A) (A) (A)
                 (A) (A) (A) (A) (A) (A) (A) (A) (A) (A) (A) (A)
                 (A) (A) (A) (A) (A) (A) (A) (A) (A) (A) (A) (A)
                 (A) (A) (A) (A) (A) (A) (A) (A) (A) (A) (A) (A)
                 (A) (A) (A) (A) (A) (A) (A) (A) (A) (A) (A) (A)
                 (A) (A) (A) (A) (A) (A) (A) (A) (A) (A) (A) (A)
                 (A) (A) (A) (A) (A) (A) (A) (A) (A) (A) (A) (A)
                 (A) (A) (A) (A) (A) (A) (A) (A)
 The electronic state is 1-A.
 Alpha  occ. eigenvalues --  -20.63117 -20.63089  -1.46750  -1.21898  -0.71777
 Alpha  occ. eigenvalues --   -0.70428  -0.61401  -0.51857  -0.47433
 Alpha virt. eigenvalues --    0.03005   0.03950   0.07432   0.08801   0.10334
 Alpha virt. eigenvalues --    0.11446   0.13245   0.14998   0.17388   0.17564
 Alpha virt. eigenvalues --    0.19477   0.21135   0.23940   0.26320   0.27093
 Alpha virt. eigenvalues --    0.28240   0.31588   0.32554   0.33440   0.34164
 Alpha virt. eigenvalues --    0.35562   0.38529   0.38903   0.41918   0.42995
 Alpha virt. eigenvalues --    0.43326   0.45173   0.49034   0.49716   0.51269
 Alpha virt. eigenvalues --    0.56835   0.58869   0.63780   0.67373   0.72661
 Alpha virt. eigenvalues --    0.75502   0.78350   0.78789   0.80908   0.81871
 Alpha virt. eigenvalues --    0.84113   0.86165   0.91501   0.93998   0.94515
 Alpha virt. eigenvalues --    0.95332   0.97471   0.99834   1.02085   1.03103
 Alpha virt. eigenvalues --    1.03891   1.07377   1.09412   1.12007   1.14853
 Alpha virt. eigenvalues --    1.15623   1.17857   1.19571   1.26707   1.28845
 Alpha virt. eigenvalues --    1.29509   1.31816   1.33416   1.34181   1.35112
 Alpha virt. eigenvalues --    1.35405   1.37511   1.39259   1.40213   1.43153
 Alpha virt. eigenvalues --    1.49139   1.53799   1.58369   1.60104   1.61025
 Alpha virt. eigenvalues --    1.65185   1.69641   1.72548   1.76224   1.88000
 Alpha virt. eigenvalues --    1.91479   1.97938   2.00449   2.09426   2.15028
 Alpha virt. eigenvalues --    2.21727   2.25172   2.29474   2.32150   2.36312
 Alpha virt. eigenvalues --    2.42814   2.43876   2.45408   2.50352   2.58716
 Alpha virt. eigenvalues --    2.60338   2.66680   2.68620   2.77815   2.80140
 Alpha virt. eigenvalues --    2.82675   2.89111   3.00577   3.04731   3.06044
 Alpha virt. eigenvalues --    3.24057   3.26033   3.26463   3.28744   3.33468
 Alpha virt. eigenvalues --    3.44781   3.57939   3.78829   3.79066   3.80012
 Alpha virt. eigenvalues --    3.81883   3.82535   3.83194   3.83683   3.88378
 Alpha virt. eigenvalues --    3.90483   3.93049   3.96885   4.00886   4.03124
 Alpha virt. eigenvalues --    4.14881   4.17107   4.22921   4.24319   4.32502
 Alpha virt. eigenvalues --    4.38071   4.43225   4.46683   4.47837   4.52595
 Alpha virt. eigenvalues --    4.67392   4.72920   4.83201   5.00268   5.15021
 Alpha virt. eigenvalues --    5.23172   5.32385   5.35515   5.37695   5.51753
 Alpha virt. eigenvalues --    5.80049   6.16484   6.40039   6.41535   6.44637
 Alpha virt. eigenvalues --    6.65337   6.69821   6.75230   6.88081   6.98110
 Alpha virt. eigenvalues --    7.13766   7.15365   7.20089   7.21959   7.23617
 Alpha virt. eigenvalues --    7.26928   7.28747   7.33393   7.40446   7.43619
 Alpha virt. eigenvalues --    7.58533   7.63104   7.79170   8.16487   8.17621
 Alpha virt. eigenvalues --    8.47117   8.51828  10.90299  14.59393  14.83506
 Alpha virt. eigenvalues --   14.87826  15.07237  15.33219  29.03271  29.03711
 Alpha virt. eigenvalues --   29.08201  29.13824  29.23311  49.11013 148.31574
 Alpha virt. eigenvalues --  148.38664 148.71085 752.51325
          Condensed to atoms (all electrons):
               1          2          3          4          5
     1  O    8.094361  -0.069783   0.254139  -0.014331   0.000110
     2  O   -0.069783   8.120738  -0.002244   0.248413  -0.001286
     3  H    0.254139  -0.002244   0.476362   0.004166  -0.000406
     4  H   -0.014331   0.248413   0.004166   0.476949  -0.003692
     5  Kr   0.000110  -0.001286  -0.000406  -0.003692   0.001418
 Mulliken charges:
               1
     1  O   -0.264496
     2  O   -0.295838
     3  H    0.267984
     4  H    0.288495
     5  Kr   0.003856
 Sum of Mulliken charges =  -0.00000
 Mulliken charges with hydrogens summed into heavy atoms:
               1
     1  O    0.003488
     2  O   -0.007344
     5  Kr   0.003856
         Mulliken charges condensed to fragments:
      1     -0.003856
      2      0.003856
 Electronic spatial extent (au):  <R**2>=            322.8857
 Charge=              0.0000 electrons
 Dipole moment (field-independent basis, Debye):
    X=              0.5787    Y=             -0.0981    Z=              1.2937  Tot=              1.4206
 Quadrupole moment (field-independent basis, Debye-Ang):
   XX=            -11.8549   YY=            -10.4006   ZZ=            -11.9324
   XY=              3.7501   XZ=             -3.4988   YZ=             -1.3985
 Traceless Quadrupole moment (field-independent basis, Debye-Ang):
   XX=             -0.4589   YY=              0.9954   ZZ=             -0.5365
   XY=              3.7501   XZ=             -3.4988   YZ=             -1.3985
 Octapole moment (field-independent basis, Debye-Ang**2):
  XXX=             65.2465  YYY=             -1.3973  ZZZ=              1.0646  XYY=             21.4744
  XXY=            -13.7019  XXZ=              9.6562  XZZ=             23.3025  YZZ=             -1.3632
  YYZ=              1.7774  XYZ=              3.8838
 Hexadecapole moment (field-independent basis, Debye-Ang**3):
 XXXX=           -265.9561 YYYY=            -44.4006 ZZZZ=            -10.8196 XXXY=             38.5606
 XXXZ=            -26.4233 YYYX=              5.2595 YYYZ=             -1.8906 ZZZX=             -2.2972
 ZZZY=             -1.1795 XXYY=            -52.0393 XXZZ=            -49.0402 YYZZ=            -10.1929
 XXYZ=            -10.6708 YYXZ=             -4.4015 ZZXY=              2.5282
 N-N= 3.660877568608D+01 E-N=-4.314492529253D+02  KE= 1.505168037229D+02
 Leave Link  601 at Thu Apr  2 05:33:33 2020, MaxMem=  2147483648 cpu:               0.5 elap:               0.0
 (Enter /usr/local/g16/g16/l122.exe)
 CPIOFr:  IOpCl= 0 IRwI=-1 IRwCP=  731 ICalc=  1 LCPTot=       59414 Len1MO=      159453 IndFrg=      378320
 Counterpoise: doing calculation for fragment   2 using the basis set of the full-system, NewBq=T
 Leave Link  122 at Thu Apr  2 05:33:33 2020, MaxMem=  2147483648 cpu:               0.0 elap:               0.0
 (Enter /usr/local/g16/g16/l301.exe)
 Basis read from rwf:  (5D, 7F)
 No pseudopotential information found on rwf file.
 There are   229 symmetry adapted cartesian basis functions of A   symmetry.
 There are   197 symmetry adapted basis functions of A   symmetry.
   197 basis functions,   415 primitive gaussians,   229 cartesian basis functions
    18 alpha electrons       18 beta electrons
       nuclear repulsion energy         0.0000000000 Hartrees.
 IExCor=    0 DFT=F Ex=HF Corr=None ExCW=0 ScaHFX=  1.000000
 ScaDFX=  1.000000  1.000000  1.000000  1.000000 ScalE2=  1.000000  1.000000
 IRadAn=      5 IRanWt=     -1 IRanGd=            0 ICorTp=0 IEmpDi=  4
 NAtoms=    5 NActive=    5 NUniq=    5 SFac= 1.00D+00 NAtFMM=   60 NAOKFM=F Big=F
 Integral buffers will be    131072 words long.
 Raffenetti 1 integral format.
 Two-electron integral symmetry is turned on.
 No density basis found on file   718.
 Leave Link  301 at Thu Apr  2 05:33:33 2020, MaxMem=  2147483648 cpu:               0.4 elap:               0.0
 (Enter /usr/local/g16/g16/l302.exe)
 NPDir=0 NMtPBC=     1 NCelOv=     1 NCel=       1 NClECP=     1 NCelD=      1
         NCelK=      1 NCelE2=     1 NClLst=     1 CellRange=     0.0.
 One-electron integrals computed using PRISM.
 One-electron integral symmetry used in STVInt
 NBasis=   197 RedAO= T EigKep=  2.08D-04  NBF=   197
 NBsUse=   197 1.00D-06 EigRej= -1.00D+00 NBFU=   197
 Leave Link  302 at Thu Apr  2 05:33:33 2020, MaxMem=  2147483648 cpu:               1.8 elap:               0.1
 (Enter /usr/local/g16/g16/l303.exe)
 DipDrv:  MaxL=1.
 Leave Link  303 at Thu Apr  2 05:33:33 2020, MaxMem=  2147483648 cpu:               0.6 elap:               0.0
 (Enter /usr/local/g16/g16/l401.exe)
 ExpMin= 2.53D-02 ExpMax= 1.17D+07 ExpMxC= 1.33D+04 IAcc=3 IRadAn=         5 AccDes= 0.00D+00
 Harris functional with IExCor=  205 and IRadAn=       5 diagonalized for initial guess.
 HarFok:  IExCor=  205 AccDes= 0.00D+00 IRadAn=         5 IDoV= 1 UseB2=F ITyADJ=14
 ICtDFT=  3500011 ScaDFX=  1.000000  1.000000  1.000000  1.000000
 FoFCou: FMM=F IPFlag=           0 FMFlag=      100000 FMFlg1=           0
         NFxFlg=           0 DoJE=T BraDBF=F KetDBF=T FulRan=T
         wScrn=  0.000000 ICntrl=       500 IOpCl=  0 I1Cent=   200000004 NGrid=           0
         NMat0=    1 NMatS0=      1 NMatT0=    0 NMatD0=    1 NMtDS0=    0 NMtDT0=    0
 Petite list used in FoFCou.
 Harris En= -2751.06002664855    
 JPrj=0 DoOrth=F DoCkMO=F.
 Leave Link  401 at Thu Apr  2 05:33:33 2020, MaxMem=  2147483648 cpu:               3.0 elap:               0.2
 (Enter /usr/local/g16/g16/l502.exe)
 Keep R1 ints in memory in canonical form, NReq=203133300.
 FoFCou: FMM=F IPFlag=           0 FMFlag=           0 FMFlg1=           0
         NFxFlg=           0 DoJE=F BraDBF=F KetDBF=F FulRan=T
         wScrn=  0.000000 ICntrl=       600 IOpCl=  0 I1Cent=           0 NGrid=           0
         NMat0=    1 NMatS0=  19503 NMatT0=    0 NMatD0=    1 NMtDS0=    0 NMtDT0=    0
 Symmetry not used in FoFCou.
 Two-electron integral symmetry not used.
 Closed shell SCF:
 Using DIIS extrapolation, IDIIS=  1040.
 NGot=  2147483648 LenX=  1957179903 LenY=  1957127021
 Requested convergence on RMS density matrix=1.00D-08 within 128 cycles.
 Requested convergence on MAX density matrix=1.00D-06.
 Requested convergence on             energy=1.00D-06.
 No special actions if energy rises.

 Cycle   1  Pass 1  IDiag  1:
 E= -2752.00363524862    
 DIIS: error= 3.30D-02 at cycle   1 NSaved=   1.
 NSaved= 1 IEnMin= 1 EnMin= -2752.00363524862     IErMin= 1 ErrMin= 3.30D-02
 ErrMax= 3.30D-02  0.00D+00 EMaxC= 1.00D-01 BMatC= 4.28D-01 BMatP= 4.28D-01
 IDIUse=3 WtCom= 6.70D-01 WtEn= 3.30D-01
 Coeff-Com:  0.100D+01
 Coeff-En:   0.100D+01
 Coeff:      0.100D+01
 Gap=     0.630 Goal=   None    Shift=    0.000
 GapD=    0.630 DampG=2.000 DampE=0.500 DampFc=1.0000 IDamp=-1.
 RMSDP=1.75D-03 MaxDP=1.29D-01              OVMax= 2.38D-02

 Cycle   2  Pass 1  IDiag  1:
 E= -2752.04698465899     Delta-E=       -0.043349410370 Rises=F Damp=F
 DIIS: error= 7.04D-03 at cycle   2 NSaved=   2.
 NSaved= 2 IEnMin= 2 EnMin= -2752.04698465899     IErMin= 2 ErrMin= 7.04D-03
 ErrMax= 7.04D-03  0.00D+00 EMaxC= 1.00D-01 BMatC= 1.97D-02 BMatP= 4.28D-01
 IDIUse=3 WtCom= 9.30D-01 WtEn= 7.04D-02
 Coeff-Com:  0.152D+00 0.848D+00
 Coeff-En:   0.000D+00 0.100D+01
 Coeff:      0.141D+00 0.859D+00
 Gap=     0.544 Goal=   None    Shift=    0.000
 RMSDP=5.69D-04 MaxDP=3.48D-02 DE=-4.33D-02 OVMax= 1.31D-02

 Cycle   3  Pass 1  IDiag  1:
 E= -2752.05205466322     Delta-E=       -0.005070004232 Rises=F Damp=F
 DIIS: error= 1.44D-03 at cycle   3 NSaved=   3.
 NSaved= 3 IEnMin= 3 EnMin= -2752.05205466322     IErMin= 3 ErrMin= 1.44D-03
 ErrMax= 1.44D-03  0.00D+00 EMaxC= 1.00D-01 BMatC= 7.09D-04 BMatP= 1.97D-02
 IDIUse=3 WtCom= 9.86D-01 WtEn= 1.44D-02
 Coeff-Com: -0.128D-02 0.155D+00 0.846D+00
 Coeff-En:   0.000D+00 0.000D+00 0.100D+01
 Coeff:     -0.126D-02 0.153D+00 0.849D+00
 Gap=     0.554 Goal=   None    Shift=    0.000
 RMSDP=7.46D-05 MaxDP=4.36D-03 DE=-5.07D-03 OVMax= 2.88D-03

 Cycle   4  Pass 1  IDiag  1:
 E= -2752.05226525410     Delta-E=       -0.000210590877 Rises=F Damp=F
 DIIS: error= 3.36D-05 at cycle   4 NSaved=   4.
 NSaved= 4 IEnMin= 4 EnMin= -2752.05226525410     IErMin= 4 ErrMin= 3.36D-05
 ErrMax= 3.36D-05  0.00D+00 EMaxC= 1.00D-01 BMatC= 7.34D-07 BMatP= 7.09D-04
 IDIUse=1 WtCom= 1.00D+00 WtEn= 0.00D+00
 Coeff-Com: -0.365D-03-0.177D-01-0.590D-01 0.108D+01
 Coeff:     -0.365D-03-0.177D-01-0.590D-01 0.108D+01
 Gap=     0.554 Goal=   None    Shift=    0.000
 RMSDP=6.08D-06 MaxDP=2.88D-04 DE=-2.11D-04 OVMax= 2.71D-04

 Cycle   5  Pass 1  IDiag  1:
 E= -2752.05226569243     Delta-E=       -0.000000438331 Rises=F Damp=F
 DIIS: error= 3.53D-06 at cycle   5 NSaved=   5.
 NSaved= 5 IEnMin= 5 EnMin= -2752.05226569243     IErMin= 5 ErrMin= 3.53D-06
 ErrMax= 3.53D-06  0.00D+00 EMaxC= 1.00D-01 BMatC= 6.02D-09 BMatP= 7.34D-07
 IDIUse=1 WtCom= 1.00D+00 WtEn= 0.00D+00
 Coeff-Com:  0.614D-04 0.213D-04-0.517D-02-0.848D-01 0.109D+01
 Coeff:      0.614D-04 0.213D-04-0.517D-02-0.848D-01 0.109D+01
 Gap=     0.554 Goal=   None    Shift=    0.000
 RMSDP=6.63D-07 MaxDP=2.88D-05 DE=-4.38D-07 OVMax= 2.77D-05

 Cycle   6  Pass 1  IDiag  1:
 E= -2752.05226569827     Delta-E=       -0.000000005843 Rises=F Damp=F
 DIIS: error= 2.96D-07 at cycle   6 NSaved=   6.
 NSaved= 6 IEnMin= 6 EnMin= -2752.05226569827     IErMin= 6 ErrMin= 2.96D-07
 ErrMax= 2.96D-07  0.00D+00 EMaxC= 1.00D-01 BMatC= 4.08D-11 BMatP= 6.02D-09
 IDIUse=1 WtCom= 1.00D+00 WtEn= 0.00D+00
 Coeff-Com: -0.301D-05 0.982D-04 0.865D-03-0.186D-02-0.932D-01 0.109D+01
 Coeff:     -0.301D-05 0.982D-04 0.865D-03-0.186D-02-0.932D-01 0.109D+01
 Gap=     0.554 Goal=   None    Shift=    0.000
 RMSDP=6.66D-08 MaxDP=3.79D-06 DE=-5.84D-09 OVMax= 3.31D-06

 Cycle   7  Pass 1  IDiag  1:
 E= -2752.05226569830     Delta-E=       -0.000000000028 Rises=F Damp=F
 DIIS: error= 1.81D-08 at cycle   7 NSaved=   7.
 NSaved= 7 IEnMin= 7 EnMin= -2752.05226569830     IErMin= 7 ErrMin= 1.81D-08
 ErrMax= 1.81D-08  0.00D+00 EMaxC= 1.00D-01 BMatC= 1.39D-13 BMatP= 4.08D-11
 IDIUse=1 WtCom= 1.00D+00 WtEn= 0.00D+00
 Coeff-Com:  0.689D-07-0.418D-05-0.368D-04 0.237D-03 0.330D-02-0.686D-01
 Coeff-Com:  0.107D+01
 Coeff:      0.689D-07-0.418D-05-0.368D-04 0.237D-03 0.330D-02-0.686D-01
 Coeff:      0.107D+01
 Gap=     0.554 Goal=   None    Shift=    0.000
 RMSDP=5.81D-09 MaxDP=2.02D-07 DE=-2.77D-11 OVMax= 2.32D-07

 SCF Done:  E(RHF) =  -2752.05226570     A.U. after    7 cycles
            NFock=  7  Conv=0.58D-08     -V/T= 2.0000
 KE= 2.752039773072D+03 PE=-6.582554765795D+03 EE= 1.078462727024D+03
 Leave Link  502 at Thu Apr  2 05:33:36 2020, MaxMem=  2147483648 cpu:              24.9 elap:               2.6
 (Enter /usr/local/g16/g16/l801.exe)
 Windowed orbitals will be sorted by symmetry type.
 ExpMin= 2.53D-02 ExpMax= 1.17D+07 ExpMxC= 1.33D+04 IAcc=3 IRadAn=         5 AccDes= 0.00D+00
 HarFok:  IExCor=  205 AccDes= 0.00D+00 IRadAn=         5 IDoV=-2 UseB2=F ITyADJ=14
 ICtDFT= 12500011 ScaDFX=  1.000000  1.000000  1.000000  1.000000
 Largest valence mixing into a core orbital is  9.81D-05
 Largest core mixing into a valence orbital is  3.83D-05
 Range of M.O.s used for correlation:    10   197
 NBasis=   197 NAE=    18 NBE=    18 NFC=     9 NFV=     0
 NROrb=    188 NOA=     9 NOB=     9 NVA=   179 NVB=   179

 **** Warning!!: The largest alpha MO coefficient is  0.14981269D+02

 Leave Link  801 at Thu Apr  2 05:33:36 2020, MaxMem=  2147483648 cpu:               0.5 elap:               0.0
 (Enter /usr/local/g16/g16/l804.exe)
 Closed-shell transformation, MDV=  2147483648 ITran=4 ISComp=1.
 Semi-Direct transformation.
 ModeAB=           2 MOrb=             9 LenV=    2146336786
 LASXX=     28892340 LTotXX=    28892340 LenRXX=    28892340
 LTotAB=    29348001 MaxLAS=    44558820 LenRXY=    44558820
 NonZer=    57784680 LenScr=    87449600 LnRSAI=           0
 LnScr1=           0 LExtra=           0 Total=    160900760
 MaxDsk=          -1 SrtSym=           F ITran=            4
 DoSDTr:  NPSUse= 16
 JobTyp=0 Pass  1:  I=   1 to   9.
 (rs|ai) integrals will be sorted in core.
 Complete sort for first half transformation.
 First half transformation complete.
 Complete sort for second half transformation.
 Second half transformation complete.
 SymMOI:  orbitals are not symmetric.
 Spin components of T(2) and E(2):
     alpha-alpha T2 =       0.9502343408D-02 E2=     -0.3580105178D-01
     alpha-beta  T2 =       0.4817544474D-01 E2=     -0.1723035380D+00
     beta-beta   T2 =       0.9502343408D-02 E2=     -0.3580105178D-01
 ANorm=    0.1033044109D+01
 E2 =    -0.2439056415D+00 EUMP2 =    -0.27522961713398D+04
 Leave Link  804 at Thu Apr  2 05:33:44 2020, MaxMem=  2147483648 cpu:             131.5 elap:               8.2
 (Enter /usr/local/g16/g16/l913.exe)
 CIDS:  MDV=  2147483648.
 Frozen-core window:  NFC=   9 NFV=   0.
 IFCWin=0 IBDFC=1 NFBD=     0     0 NFCmp=     0     0 NFFFC=     0     0
 Using DD3R+UMP44R for 1st iteration.
 Using DD4RQ for 2nd and later iterations.
 Keep R2 and R3 ints in memory in canonical form, NReq=393332567.
 FoFCou: FMM=F IPFlag=           0 FMFlag=           0 FMFlg1=           0
         NFxFlg=           0 DoJE=F BraDBF=F KetDBF=F FulRan=T
         wScrn=  0.000000 ICntrl=       600 IOpCl=  0 I1Cent=           0 NGrid=           0
         NMat0=    1 NMatS0=  19503 NMatT0=    0 NMatD0=    1 NMtDS0=    0 NMtDT0=    0
 Symmetry not used in FoFCou.
 Two-electron integral symmetry not used.
 CIDS: In Core Option IDoMem=           1.
 MP4(SDTQ)
 =========
 Produce multiple copies of IABC intergrals
 DD1Dir will call FoFMem   1 times, MxPair=        90
 NAB=    45 NAA=     0 NBB=     0.
 MP4(D)= -0.37204717D-02
 MP4(S)= -0.10891587D-02
 MP4(R+Q)=  0.42464668D-02
 T4(AAA)= -0.32559604D-03
 T4(AAB)= -0.35625553D-02
 Time for triples=      486.10 seconds.
 MP4(T)=   -0.77763027D-02
 E3=       -0.98649595D-02        EUMP3=      -0.27523060363D+04
 E4(DQ)=    0.52599506D-03        UMP4(DQ)=   -0.27523055103D+04
 E4(SDQ)=  -0.56316366D-03        UMP4(SDQ)=  -0.27523065995D+04
 E4(SDTQ)= -0.83394664D-02        UMP4(SDTQ)= -0.27523143758D+04
 VARIATIONAL ENERGIES WITH THE FIRST-ORDER WAVEFUNCTION:
 E(VAR1)=  -0.27522900612D+04     E(CISD,4)=  -0.27522944603D+04
 Largest amplitude= 1.36D-02
 Discarding MO integrals.
 Leave Link  913 at Thu Apr  2 05:34:19 2020, MaxMem=  2147483648 cpu:             553.4 elap:              34.6
 (Enter /usr/local/g16/g16/l601.exe)
 Copying SCF densities to generalized density rwf, IOpCl= 0 IROHF=0.

 **********************************************************************

            Population analysis using the SCF density.

 **********************************************************************

 Orbital symmetries:
       Occupied  (A) (A) (A) (A) (A) (A) (A) (A) (A) (A) (A) (A)
                 (A) (A) (A) (A) (A) (A)
       Virtual   (A) (A) (A) (A) (A) (A) (A) (A) (A) (A) (A) (A)
                 (A) (A) (A) (A) (A) (A) (A) (A) (A) (A) (A) (A)
                 (A) (A) (A) (A) (A) (A) (A) (A) (A) (A) (A) (A)
                 (A) (A) (A) (A) (A) (A) (A) (A) (A) (A) (A) (A)
                 (A) (A) (A) (A) (A) (A) (A) (A) (A) (A) (A) (A)
                 (A) (A) (A) (A) (A) (A) (A) (A) (A) (A) (A) (A)
                 (A) (A) (A) (A) (A) (A) (A) (A) (A) (A) (A) (A)
                 (A) (A) (A) (A) (A) (A) (A) (A) (A) (A) (A) (A)
                 (A) (A) (A) (A) (A) (A) (A) (A) (A) (A) (A) (A)
                 (A) (A) (A) (A) (A) (A) (A) (A) (A) (A) (A) (A)
                 (A) (A) (A) (A) (A) (A) (A) (A) (A) (A) (A) (A)
                 (A) (A) (A) (A) (A) (A) (A) (A) (A) (A) (A) (A)
                 (A) (A) (A) (A) (A) (A) (A) (A) (A) (A) (A) (A)
                 (A) (A) (A) (A) (A) (A) (A) (A) (A) (A) (A) (A)
                 (A) (A) (A) (A) (A) (A) (A) (A) (A) (A) (A)
 The electronic state is 1-A.
 Alpha  occ. eigenvalues -- -520.16580 -69.90314 -63.00972 -63.00972 -63.00971
 Alpha  occ. eigenvalues --  -10.84954  -8.33154  -8.33154  -8.33153  -3.82531
 Alpha  occ. eigenvalues --   -3.82531  -3.82531  -3.82530  -3.82530  -1.15311
 Alpha  occ. eigenvalues --   -0.52431  -0.52429  -0.52429
 Alpha virt. eigenvalues --    0.02964   0.04929   0.08618   0.09569   0.11458
 Alpha virt. eigenvalues --    0.12333   0.13321   0.14180   0.16711   0.17254
 Alpha virt. eigenvalues --    0.17796   0.20013   0.21565   0.26702   0.28338
 Alpha virt. eigenvalues --    0.29337   0.29581   0.32552   0.34797   0.36002
 Alpha virt. eigenvalues --    0.37763   0.38240   0.38777   0.40547   0.42505
 Alpha virt. eigenvalues --    0.43165   0.44880   0.56601   0.57286   0.59274
 Alpha virt. eigenvalues --    0.61866   0.66754   0.67820   0.71394   0.74339
 Alpha virt. eigenvalues --    0.76194   0.78561   0.79734   0.81195   0.81694
 Alpha virt. eigenvalues --    0.84302   0.85112   0.85952   0.87939   0.88225
 Alpha virt. eigenvalues --    0.90430   0.90776   0.91885   0.93772   0.97698
 Alpha virt. eigenvalues --    0.99232   1.01348   1.01900   1.05762   1.06421
 Alpha virt. eigenvalues --    1.08677   1.11024   1.12581   1.15382   1.17273
 Alpha virt. eigenvalues --    1.19854   1.23964   1.25593   1.26793   1.29717
 Alpha virt. eigenvalues --    1.37010   1.38017   1.42972   1.49528   1.51172
 Alpha virt. eigenvalues --    1.57188   1.61410   1.65055   1.73122   1.79739
 Alpha virt. eigenvalues --    1.80974   1.85113   1.89963   1.94753   2.26532
 Alpha virt. eigenvalues --    2.30939   2.34585   2.37630   2.39497   2.41288
 Alpha virt. eigenvalues --    2.44301   2.45396   2.48021   2.48281   2.52892
 Alpha virt. eigenvalues --    2.54169   2.54899   2.57067   2.57478   2.58955
 Alpha virt. eigenvalues --    2.60195   2.62627   2.65174   2.67408   2.69530
 Alpha virt. eigenvalues --    2.70982   2.71069   2.73917   2.78883   2.80104
 Alpha virt. eigenvalues --    2.82860   2.86060   2.91152   2.92277   2.93620
 Alpha virt. eigenvalues --    2.97602   3.01739   3.07535   3.14207   3.19834
 Alpha virt. eigenvalues --    3.23627   3.27816   3.34409   3.35818   3.51551
 Alpha virt. eigenvalues --    3.61601   3.67125   3.82763   3.87421   4.03846
 Alpha virt. eigenvalues --    4.48021   4.49378   4.53078   4.58115   4.71137
 Alpha virt. eigenvalues --    4.75214   4.87814   4.89353   4.94768   5.07346
 Alpha virt. eigenvalues --    5.16938   5.19095   5.59561   5.64058   5.79058
 Alpha virt. eigenvalues --    5.98871   6.01213   6.17429   6.76121   6.88743
 Alpha virt. eigenvalues --    7.35308   7.39474   7.62409   7.65778   7.70466
 Alpha virt. eigenvalues --    7.86834   7.96407   8.10688   8.17769   8.21679
 Alpha virt. eigenvalues --    8.38903   8.42531   8.62423   8.88265   9.62813
 Alpha virt. eigenvalues --    9.72051   9.81590   9.88761   9.95829  10.02171
 Alpha virt. eigenvalues --   10.15570  10.28318  10.43906  10.95306  11.51360
 Alpha virt. eigenvalues --   11.63320  11.67050  12.04610  12.08318  13.26830
 Alpha virt. eigenvalues --   13.61668  14.53776  62.69824  64.61228
          Condensed to atoms (all electrons):
               1          2          3          4          5
     1  O    0.001783  -0.000971  -0.001214   0.000514  -0.006200
     2  O   -0.000971   0.002152   0.000323  -0.001227  -0.002181
     3  H   -0.001214   0.000323   0.000983  -0.000181   0.002838
     4  H    0.000514  -0.001227  -0.000181   0.001010  -0.007893
     5  Kr  -0.006200  -0.002181   0.002838  -0.007893  36.026460
 Mulliken charges:
               1
     1  O    0.006089
     2  O    0.001904
     3  H   -0.002748
     4  H    0.007778
     5  Kr  -0.013023
 Sum of Mulliken charges =  -0.00000
 Mulliken charges with hydrogens summed into heavy atoms:
               1
     1  O    0.003341
     2  O    0.009682
     5  Kr  -0.013023
         Mulliken charges condensed to fragments:
      1      0.013023
      2     -0.013023
 Electronic spatial extent (au):  <R**2>=            166.5725
 Charge=              0.0000 electrons
 Dipole moment (field-independent basis, Debye):
    X=             -0.0009    Y=              0.0005    Z=              0.0001  Tot=              0.0010
 Quadrupole moment (field-independent basis, Debye-Ang):
   XX=            -17.7279   YY=            -17.7322   ZZ=            -17.7362
   XY=             -0.0024   XZ=              0.0002   YZ=              0.0003
 Traceless Quadrupole moment (field-independent basis, Debye-Ang):
   XX=              0.0042   YY=             -0.0001   ZZ=             -0.0041
   XY=             -0.0024   XZ=              0.0002   YZ=              0.0003
 Octapole moment (field-independent basis, Debye-Ang**2):
  XXX=            -52.8581  YYY=              0.8594  ZZZ=             -0.1523  XYY=            -17.6252
  XXY=              0.2803  XXZ=             -0.0509  XZZ=            -17.6280  YZZ=              0.2870
  YYZ=             -0.0504  XYZ=              0.0002
 Hexadecapole moment (field-independent basis, Debye-Ang**3):
 XXXX=           -123.5990 YYYY=            -18.5630 ZZZZ=            -18.5522 XXXY=              0.8395
 XXXZ=             -0.1512 YYYX=              0.8447 YYYZ=              0.0023 ZZZX=             -0.1515
 ZZZY=              0.0034 XXYY=            -23.6994 XXZZ=            -23.6993 YYZZ=             -6.1851
 XXYZ=              0.0014 YYXZ=             -0.0505 ZZXY=              0.2807
 N-N= 0.000000000000D+00 E-N=-6.582554767337D+03  KE= 2.752039773072D+03
 Leave Link  601 at Thu Apr  2 05:34:19 2020, MaxMem=  2147483648 cpu:               0.5 elap:               0.0
 (Enter /usr/local/g16/g16/l122.exe)
 CPIOFr:  IOpCl= 0 IRwI=-1 IRwCP=  731 ICalc=  2 LCPTot=       59414 Len1MO=      159453 IndFrg=      537773
 Counterpoise: doing calculation for fragment   1 using the basis set of the fragment.
 Leave Link  122 at Thu Apr  2 05:34:19 2020, MaxMem=  2147483648 cpu:               0.0 elap:               0.0
 (Enter /usr/local/g16/g16/l301.exe)
 Basis read from rwf:  (5D, 7F)
 No pseudopotential information found on rwf file.
 There are   160 symmetry adapted cartesian basis functions of A   symmetry.
 There are   138 symmetry adapted basis functions of A   symmetry.
   138 basis functions,   198 primitive gaussians,   160 cartesian basis functions
     9 alpha electrons        9 beta electrons
       nuclear repulsion energy        36.6087756861 Hartrees.
 IExCor=    0 DFT=F Ex=HF Corr=None ExCW=0 ScaHFX=  1.000000
 ScaDFX=  1.000000  1.000000  1.000000  1.000000 ScalE2=  1.000000  1.000000
 IRadAn=      5 IRanWt=     -1 IRanGd=            0 ICorTp=0 IEmpDi=  4
 NAtoms=    5 NActive=    4 NUniq=    4 SFac= 1.00D+00 NAtFMM=   60 NAOKFM=F Big=F
 Integral buffers will be    131072 words long.
 Raffenetti 1 integral format.
 Two-electron integral symmetry is turned on.
 No density basis found on file   718.
 Leave Link  301 at Thu Apr  2 05:34:19 2020, MaxMem=  2147483648 cpu:               0.5 elap:               0.0
 (Enter /usr/local/g16/g16/l302.exe)
 NPDir=0 NMtPBC=     1 NCelOv=     1 NCel=       1 NClECP=     1 NCelD=      1
         NCelK=      1 NCelE2=     1 NClLst=     1 CellRange=     0.0.
 One-electron integrals computed using PRISM.
 One-electron integral symmetry used in STVInt
 NBasis=   138 RedAO= T EigKep=  2.49D-04  NBF=   138
 NBsUse=   138 1.00D-06 EigRej= -1.00D+00 NBFU=   138
 Leave Link  302 at Thu Apr  2 05:34:19 2020, MaxMem=  2147483648 cpu:               1.5 elap:               0.1
 (Enter /usr/local/g16/g16/l303.exe)
 DipDrv:  MaxL=1.
 Leave Link  303 at Thu Apr  2 05:34:19 2020, MaxMem=  2147483648 cpu:               0.3 elap:               0.0
 (Enter /usr/local/g16/g16/l401.exe)
 ExpMin= 2.53D-02 ExpMax= 1.53D+04 ExpMxC= 5.22D+02 IAcc=3 IRadAn=         5 AccDes= 0.00D+00
 Harris functional with IExCor=  205 and IRadAn=       5 diagonalized for initial guess.
 HarFok:  IExCor=  205 AccDes= 0.00D+00 IRadAn=         5 IDoV= 1 UseB2=F ITyADJ=14
 ICtDFT=  3500011 ScaDFX=  1.000000  1.000000  1.000000  1.000000
 FoFCou: FMM=F IPFlag=           0 FMFlag=      100000 FMFlg1=           0
         NFxFlg=           0 DoJE=T BraDBF=F KetDBF=T FulRan=T
         wScrn=  0.000000 ICntrl=       500 IOpCl=  0 I1Cent=   200000004 NGrid=           0
         NMat0=    1 NMatS0=      1 NMatT0=    0 NMatD0=    1 NMtDS0=    0 NMtDT0=    0
 Petite list used in FoFCou.
 Harris En= -150.935039993643    
 JPrj=0 DoOrth=F DoCkMO=F.
 Leave Link  401 at Thu Apr  2 05:34:20 2020, MaxMem=  2147483648 cpu:               2.3 elap:               0.1
 (Enter /usr/local/g16/g16/l502.exe)
 Keep R1 ints in memory in canonical form, NReq=53860811.
 FoFCou: FMM=F IPFlag=           0 FMFlag=           0 FMFlg1=           0
         NFxFlg=           0 DoJE=F BraDBF=F KetDBF=F FulRan=T
         wScrn=  0.000000 ICntrl=       600 IOpCl=  0 I1Cent=           0 NGrid=           0
         NMat0=    1 NMatS0=   9591 NMatT0=    0 NMatD0=    1 NMtDS0=    0 NMtDT0=    0
 Symmetry not used in FoFCou.
 Two-electron integral symmetry not used.
 Closed shell SCF:
 Using DIIS extrapolation, IDIIS=  1040.
 NGot=  2147483648 LenX=  2101430001 LenY=  2101403960
 Requested convergence on RMS density matrix=1.00D-08 within 128 cycles.
 Requested convergence on MAX density matrix=1.00D-06.
 Requested convergence on             energy=1.00D-06.
 No special actions if energy rises.

 Cycle   1  Pass 1  IDiag  1:
 E= -150.773611533947    
 DIIS: error= 3.19D-02 at cycle   1 NSaved=   1.
 NSaved= 1 IEnMin= 1 EnMin= -150.773611533947     IErMin= 1 ErrMin= 3.19D-02
 ErrMax= 3.19D-02  0.00D+00 EMaxC= 1.00D-01 BMatC= 2.26D-01 BMatP= 2.26D-01
 IDIUse=3 WtCom= 6.81D-01 WtEn= 3.19D-01
 Coeff-Com:  0.100D+01
 Coeff-En:   0.100D+01
 Coeff:      0.100D+01
 Gap=     0.697 Goal=   None    Shift=    0.000
 GapD=    0.697 DampG=2.000 DampE=0.500 DampFc=1.0000 IDamp=-1.
 RMSDP=1.33D-03 MaxDP=2.89D-02              OVMax= 6.44D-02

 Cycle   2  Pass 1  IDiag  1:
 E= -150.825850526140     Delta-E=       -0.052238992194 Rises=F Damp=F
 DIIS: error= 9.26D-03 at cycle   2 NSaved=   2.
 NSaved= 2 IEnMin= 2 EnMin= -150.825850526140     IErMin= 2 ErrMin= 9.26D-03
 ErrMax= 9.26D-03  0.00D+00 EMaxC= 1.00D-01 BMatC= 1.54D-02 BMatP= 2.26D-01
 IDIUse=3 WtCom= 9.07D-01 WtEn= 9.26D-02
 Coeff-Com:  0.101D+00 0.899D+00
 Coeff-En:   0.000D+00 0.100D+01
 Coeff:      0.920D-01 0.908D+00
 Gap=     0.535 Goal=   None    Shift=    0.000
 RMSDP=6.70D-04 MaxDP=2.46D-02 DE=-5.22D-02 OVMax= 2.78D-02

 Cycle   3  Pass 1  IDiag  1:
 E= -150.833470395721     Delta-E=       -0.007619869580 Rises=F Damp=F
 DIIS: error= 4.58D-03 at cycle   3 NSaved=   3.
 NSaved= 3 IEnMin= 3 EnMin= -150.833470395721     IErMin= 3 ErrMin= 4.58D-03
 ErrMax= 4.58D-03  0.00D+00 EMaxC= 1.00D-01 BMatC= 2.22D-03 BMatP= 1.54D-02
 IDIUse=3 WtCom= 9.54D-01 WtEn= 4.58D-02
 Coeff-Com: -0.207D-01 0.255D+00 0.766D+00
 Coeff-En:   0.000D+00 0.000D+00 0.100D+01
 Coeff:     -0.198D-01 0.243D+00 0.777D+00
 Gap=     0.506 Goal=   None    Shift=    0.000
 RMSDP=1.51D-04 MaxDP=3.69D-03 DE=-7.62D-03 OVMax= 8.98D-03

 Cycle   4  Pass 1  IDiag  1:
 E= -150.834846812279     Delta-E=       -0.001376416558 Rises=F Damp=F
 DIIS: error= 3.40D-04 at cycle   4 NSaved=   4.
 NSaved= 4 IEnMin= 4 EnMin= -150.834846812279     IErMin= 4 ErrMin= 3.40D-04
 ErrMax= 3.40D-04  0.00D+00 EMaxC= 1.00D-01 BMatC= 1.58D-05 BMatP= 2.22D-03
 IDIUse=3 WtCom= 9.97D-01 WtEn= 3.40D-03
 Coeff-Com: -0.170D-02-0.119D-01 0.150D-01 0.999D+00
 Coeff-En:   0.000D+00 0.000D+00 0.000D+00 0.100D+01
 Coeff:     -0.170D-02-0.119D-01 0.150D-01 0.999D+00
 Gap=     0.508 Goal=   None    Shift=    0.000
 RMSDP=2.17D-05 MaxDP=4.03D-04 DE=-1.38D-03 OVMax= 1.25D-03

 Cycle   5  Pass 1  IDiag  1:
 E= -150.834868301633     Delta-E=       -0.000021489354 Rises=F Damp=F
 DIIS: error= 1.40D-04 at cycle   5 NSaved=   5.
 NSaved= 5 IEnMin= 5 EnMin= -150.834868301633     IErMin= 5 ErrMin= 1.40D-04
 ErrMax= 1.40D-04  0.00D+00 EMaxC= 1.00D-01 BMatC= 1.45D-06 BMatP= 1.58D-05
 IDIUse=3 WtCom= 9.99D-01 WtEn= 1.40D-03
 Coeff-Com:  0.165D-02-0.164D-01-0.582D-01-0.169D+00 0.124D+01
 Coeff-En:   0.000D+00 0.000D+00 0.000D+00 0.000D+00 0.100D+01
 Coeff:      0.164D-02-0.164D-01-0.581D-01-0.169D+00 0.124D+01
 Gap=     0.508 Goal=   None    Shift=    0.000
 RMSDP=1.22D-05 MaxDP=2.14D-04 DE=-2.15D-05 OVMax= 7.58D-04

 Cycle   6  Pass 1  IDiag  1:
[...]
 Symmetry not used in FoFCou.
 Two-electron integral symmetry not used.
 Closed shell SCF:
 Using DIIS extrapolation, IDIIS=  1040.
 NGot=  2147483648 LenX=  2101430001 LenY=  2101403960
 Requested convergence on RMS density matrix=1.00D-08 within 128 cycles.
 Requested convergence on MAX density matrix=1.00D-06.
 Requested convergence on             energy=1.00D-06.
 No special actions if energy rises.

 Cycle   1  Pass 1  IDiag  1:
 E= -150.834872237742    
 DIIS: error= 2.03D-10 at cycle   1 NSaved=   1.
 NSaved= 1 IEnMin= 1 EnMin= -150.834872237742     IErMin= 1 ErrMin= 2.03D-10
 ErrMax= 2.03D-10  0.00D+00 EMaxC= 1.00D-01 BMatC= 7.08D-18 BMatP= 7.08D-18
 IDIUse=1 WtCom= 1.00D+00 WtEn= 0.00D+00
 Coeff-Com:  0.100D+01
 Coeff:      0.100D+01
 Gap=     0.894 Goal=   None    Shift=    0.000
 RMSDP=1.52D-11 MaxDP=4.44D-10              OVMax= 8.49D-10

 SCF Done:  E(RHF) =  -150.834872238     A.U. after    1 cycles
            NFock=  1  Conv=0.15D-10     -V/T= 2.0021
 KE= 1.505171713157D+02 PE=-4.314484601742D+02 EE= 9.348764093468D+01
 Leave Link  502 at Thu Apr  2 06:50:26 2020, MaxMem=  2147483648 cpu:               7.2 elap:               0.5
 (Enter /usr/local/g16/g16/l801.exe)
 Windowed orbitals will be sorted by symmetry type.
 ExpMin= 2.53D-02 ExpMax= 1.53D+04 ExpMxC= 5.22D+02 IAcc=3 IRadAn=         5 AccDes= 0.00D+00
 HarFok:  IExCor=  205 AccDes= 0.00D+00 IRadAn=         5 IDoV=-2 UseB2=F ITyADJ=14
 ICtDFT= 12500011 ScaDFX=  1.000000  1.000000  1.000000  1.000000
 Largest valence mixing into a core orbital is  1.19D-04
 Largest core mixing into a valence orbital is  2.03D-05
 Range of M.O.s used for correlation:     3   138
 NBasis=   138 NAE=     9 NBE=     9 NFC=     2 NFV=     0
 NROrb=    136 NOA=     7 NOB=     7 NVA=   129 NVB=   129

 **** Warning!!: The largest alpha MO coefficient is  0.13592364D+02

 Leave Link  801 at Thu Apr  2 06:50:26 2020, MaxMem=  2147483648 cpu:               0.5 elap:               0.0
 (Enter /usr/local/g16/g16/l804.exe)
 Closed-shell transformation, MDV=  2147483648 ITran=4 ISComp=1.
 Semi-Direct transformation.
 ModeAB=           2 MOrb=             7 LenV=    2146849433
 LASXX=      8463147 LTotXX=     8463147 LenRXX=     8463147
 LTotAB=     8647912 MaxLAS=    12261760 LenRXY=    12261760
 NonZer=    16926294 LenScr=    26146816 LnRSAI=           0
 LnScr1=           0 LExtra=           0 Total=     46871723
 MaxDsk=          -1 SrtSym=           F ITran=            4
 DoSDTr:  NPSUse= 16
 JobTyp=0 Pass  1:  I=   1 to   7.
 (rs|ai) integrals will be sorted in core.
 Complete sort for first half transformation.
 First half transformation complete.
 Complete sort for second half transformation.
 Second half transformation complete.
 SymMOI:  orbitals are not symmetric.
 Spin components of T(2) and E(2):
     alpha-alpha T2 =       0.1595736638D-01 E2=     -0.6275092826D-01
     alpha-beta  T2 =       0.9307042483D-01 E2=     -0.3816006723D+00
     beta-beta   T2 =       0.1595736638D-01 E2=     -0.6275092826D-01
 ANorm=    0.1060653175D+01
 E2 =    -0.5071025288D+00 EUMP2 =    -0.15134197476653D+03
 Leave Link  804 at Thu Apr  2 06:50:28 2020, MaxMem=  2147483648 cpu:              27.5 elap:               1.7
 (Enter /usr/local/g16/g16/l913.exe)
 CIDS:  MDV=  2147483648.
 Frozen-core window:  NFC=   2 NFV=   0.
 IFCWin=0 IBDFC=1 NFBD=     0     0 NFCmp=     0     0 NFFFC=     0     0
 Using DD3R+UMP44R for 1st iteration.
 Using DD4RQ for 2nd and later iterations.
 Keep R2 and R3 ints in memory in canonical form, NReq=99863705.
 FoFCou: FMM=F IPFlag=           0 FMFlag=           0 FMFlg1=           0
         NFxFlg=           0 DoJE=F BraDBF=F KetDBF=F FulRan=T
         wScrn=  0.000000 ICntrl=       600 IOpCl=  0 I1Cent=           0 NGrid=           0
         NMat0=    1 NMatS0=   9591 NMatT0=    0 NMatD0=    1 NMtDS0=    0 NMtDT0=    0
 Symmetry not used in FoFCou.
 Two-electron integral symmetry not used.
 CIDS: In Core Option IDoMem=           1.
 MP4(SDTQ)
 =========
 Produce multiple copies of IABC intergrals
 DD1Dir will call FoFMem   1 times, MxPair=        56
 NAB=    28 NAA=     0 NBB=     0.
 MP4(D)= -0.11260993D-01
 MP4(S)= -0.51728954D-02
 MP4(R+Q)=  0.10723961D-01
 T4(AAA)= -0.65498320D-03
 T4(AAB)= -0.10219943D-01
 Time for triples=       93.50 seconds.
 MP4(T)=   -0.21749852D-01
 E3=       -0.21766865D-02        EUMP3=      -0.15134415145D+03
 E4(DQ)=   -0.53703135D-03        UMP4(DQ)=   -0.15134468848D+03
 E4(SDQ)=  -0.57099268D-02        UMP4(SDQ)=  -0.15134986138D+03
 E4(SDTQ)= -0.27459779D-01        UMP4(SDTQ)= -0.15137161123D+03
 VARIATIONAL ENERGIES WITH THE FIRST-ORDER WAVEFUNCTION:
 E(VAR1)=  -0.15128757085D+03     E(CISD,4)=  -0.15129720505D+03
 Largest amplitude= 2.54D-02
 Discarding MO integrals.
 Leave Link  913 at Thu Apr  2 06:50:35 2020, MaxMem=  2147483648 cpu:             116.8 elap:               7.3
 (Enter /usr/local/g16/g16/l122.exe)
 CPIOFr:  IOpCl= 0 IRwI=-1 IRwCP=  731 ICalc=  3 LCPTot=       59414 Len1MO=      159453 IndFrg=      697226
 Restoring MOs from calculation   5 to rwf and chk.
 CPIOFr:  IOpCl= 0 IRwI=-2 IRwCP=20731 ICalc=  4 LCPTot=       59414 Len1MO=      159453 IndFrg=      856679
 CPIOFr:  IOpCl= 0 IRwI= 4 IRwCP=20731 ICalc=  4 LCPTot=       59414 Len1MO=      159453 IndFrg=      856679
 Counterpoise: doing calculation for fragment   2 using the basis set of the fragment.
 Leave Link  122 at Thu Apr  2 06:50:35 2020, MaxMem=  2147483648 cpu:               0.0 elap:               0.0
 (Enter /usr/local/g16/g16/l301.exe)
 Basis read from rwf:  (5D, 7F)
 No pseudopotential information found on rwf file.
 There are    69 symmetry adapted cartesian basis functions of A   symmetry.
 There are    59 symmetry adapted basis functions of A   symmetry.
    59 basis functions,   217 primitive gaussians,    69 cartesian basis functions
    18 alpha electrons       18 beta electrons
       nuclear repulsion energy         0.0000000000 Hartrees.
 IExCor=    0 DFT=F Ex=HF Corr=None ExCW=0 ScaHFX=  1.000000
 ScaDFX=  1.000000  1.000000  1.000000  1.000000 ScalE2=  1.000000  1.000000
 IRadAn=      5 IRanWt=     -1 IRanGd=            0 ICorTp=0 IEmpDi=  4
 NAtoms=    5 NActive=    1 NUniq=    1 SFac= 1.00D+00 NAtFMM=   60 NAOKFM=F Big=F
 Integral buffers will be    131072 words long.
 Raffenetti 1 integral format.
 Two-electron integral symmetry is turned on.
 No density basis found on file   718.
 Leave Link  301 at Thu Apr  2 06:50:35 2020, MaxMem=  2147483648 cpu:               0.4 elap:               0.0
 (Enter /usr/local/g16/g16/l302.exe)
 NPDir=0 NMtPBC=     1 NCelOv=     1 NCel=       1 NClECP=     1 NCelD=      1
         NCelK=      1 NCelE2=     1 NClLst=     1 CellRange=     0.0.
 One-electron integrals computed using PRISM.
 One-electron integral symmetry used in STVInt
 NBasis=    59 RedAO= T EigKep=  1.06D-02  NBF=    59
 NBsUse=    59 1.00D-06 EigRej= -1.00D+00 NBFU=    59
 Leave Link  302 at Thu Apr  2 06:50:35 2020, MaxMem=  2147483648 cpu:               1.3 elap:               0.1
 (Enter /usr/local/g16/g16/l303.exe)
 DipDrv:  MaxL=1.
 Leave Link  303 at Thu Apr  2 06:50:35 2020, MaxMem=  2147483648 cpu:               0.3 elap:               0.0
 (Enter /usr/local/g16/g16/l401.exe)
 Initial guess from the checkpoint file:  "/mnt/driveB/scratch/matheus/Gau-80494.chk"
 B after Tr=     0.062992    0.000376   -0.000066
         Rot=    1.000000    0.000000    0.000000    0.000000 Ang=   0.00 deg.
 Guess basis will be translated and rotated to current coordinates.
 JPrj=2 DoOrth=T DoCkMO=T.
 Generating alternative initial guess.
 ExpMin= 4.00D-02 ExpMax= 1.17D+07 ExpMxC= 1.33D+04 IAcc=3 IRadAn=         5 AccDes= 0.00D+00
 Harris functional with IExCor=  205 and IRadAn=       5 diagonalized for initial guess.
 HarFok:  IExCor=  205 AccDes= 0.00D+00 IRadAn=         5 IDoV= 1 UseB2=F ITyADJ=14
 ICtDFT=  3500011 ScaDFX=  1.000000  1.000000  1.000000  1.000000
 FoFCou: FMM=F IPFlag=           0 FMFlag=      100000 FMFlg1=           0
         NFxFlg=           0 DoJE=T BraDBF=F KetDBF=T FulRan=T
         wScrn=  0.000000 ICntrl=       500 IOpCl=  0 I1Cent=   200000004 NGrid=           0
         NMat0=    1 NMatS0=      1 NMatT0=    0 NMatD0=    1 NMtDS0=    0 NMtDT0=    0
 Petite list used in FoFCou.
 Harris En= -2751.05937170533    
 Leave Link  401 at Thu Apr  2 06:50:36 2020, MaxMem=  2147483648 cpu:               2.5 elap:               0.2
 (Enter /usr/local/g16/g16/l502.exe)
 Keep R1 ints in memory in canonical form, NReq=14291944.
 FoFCou: FMM=F IPFlag=           0 FMFlag=           0 FMFlg1=           0
         NFxFlg=           0 DoJE=F BraDBF=F KetDBF=F FulRan=T
         wScrn=  0.000000 ICntrl=       600 IOpCl=  0 I1Cent=           0 NGrid=           0
         NMat0=    1 NMatS0=   1770 NMatT0=    0 NMatD0=    1 NMtDS0=    0 NMtDT0=    0
 Symmetry not used in FoFCou.
 Two-electron integral symmetry not used.
 Closed shell SCF:
 Using DIIS extrapolation, IDIIS=  1040.
 NGot=  2147483648 LenX=  2145904888 LenY=  2145899686
 Requested convergence on RMS density matrix=1.00D-08 within 128 cycles.
 Requested convergence on MAX density matrix=1.00D-06.
 Requested convergence on             energy=1.00D-06.
 No special actions if energy rises.

 Cycle   1  Pass 1  IDiag  1:
 E= -2752.05222307625    
 DIIS: error= 1.45D-13 at cycle   1 NSaved=   1.
 NSaved= 1 IEnMin= 1 EnMin= -2752.05222307625     IErMin= 1 ErrMin= 1.45D-13
 ErrMax= 1.45D-13  0.00D+00 EMaxC= 1.00D-01 BMatC= 6.37D-25 BMatP= 6.37D-25
 IDIUse=1 WtCom= 1.00D+00 WtEn= 0.00D+00
 Coeff-Com:  0.100D+01
 Coeff:      0.100D+01
 Gap=     0.719 Goal=   None    Shift=    0.000
 RMSDP=5.59D-15 MaxDP=1.05D-13              OVMax= 6.88D-14

 SCF Done:  E(RHF) =  -2752.05222308     A.U. after    1 cycles
            NFock=  1  Conv=0.56D-14     -V/T= 2.0000
 KE= 2.752048106937D+03 PE=-6.582565276257D+03 EE= 1.078464946243D+03
 Leave Link  502 at Thu Apr  2 06:50:36 2020, MaxMem=  2147483648 cpu:               9.0 elap:               0.6
 (Enter /usr/local/g16/g16/l801.exe)
 Windowed orbitals will be sorted by symmetry type.
 ExpMin= 4.00D-02 ExpMax= 1.17D+07 ExpMxC= 1.33D+04 IAcc=3 IRadAn=         5 AccDes= 0.00D+00
 HarFok:  IExCor=  205 AccDes= 0.00D+00 IRadAn=         5 IDoV=-2 UseB2=F ITyADJ=14
 ICtDFT= 12500011 ScaDFX=  1.000000  1.000000  1.000000  1.000000
 Largest valence mixing into a core orbital is  9.79D-05
 Largest core mixing into a valence orbital is  3.83D-05
 Range of M.O.s used for correlation:    10    59
 NBasis=    59 NAE=    18 NBE=    18 NFC=     9 NFV=     0
 NROrb=     50 NOA=     9 NOB=     9 NVA=    41 NVB=    41
 Leave Link  801 at Thu Apr  2 06:50:36 2020, MaxMem=  2147483648 cpu:               0.5 elap:               0.0
 (Enter /usr/local/g16/g16/l804.exe)
 Closed-shell transformation, MDV=  2147483648 ITran=4 ISComp=1.
 Semi-Direct transformation.
 ModeAB=           2 MOrb=             9 LenV=    2147140326
 LASXX=       482211 LTotXX=      482211 LenRXX=      482211
 LTotAB=      511245 MaxLAS=     1086750 LenRXY=     1086750
 NonZer=     1162350 LenScr=     2357760 LnRSAI=           0
 LnScr1=           0 LExtra=           0 Total=      3926721
 MaxDsk=          -1 SrtSym=           F ITran=            4
 DoSDTr:  NPSUse= 16
 JobTyp=0 Pass  1:  I=   1 to   9.
 (rs|ai) integrals will be sorted in core.
 Complete sort for first half transformation.
 First half transformation complete.
 Complete sort for second half transformation.
 Second half transformation complete.
 SymMOI:  orbitals are not symmetric.
 Spin components of T(2) and E(2):
     alpha-alpha T2 =       0.9484485167D-02 E2=     -0.3552398032D-01
     alpha-beta  T2 =       0.4799866946D-01 E2=     -0.1708433112D+00
     beta-beta   T2 =       0.9484485167D-02 E2=     -0.3552398032D-01
 ANorm=    0.1032941257D+01
 E2 =    -0.2418912719D+00 EUMP2 =    -0.27522941143481D+04
 Leave Link  804 at Thu Apr  2 06:50:36 2020, MaxMem=  2147483648 cpu:               4.9 elap:               0.3
 (Enter /usr/local/g16/g16/l913.exe)
 CIDS:  MDV=  2147483648.
 Frozen-core window:  NFC=   9 NFV=   0.
 IFCWin=0 IBDFC=1 NFBD=     0     0 NFCmp=     0     0 NFFFC=     0     0
 Using DD3R+UMP44R for 1st iteration.
 Using DD4RQ for 2nd and later iterations.
 Keep R2 and R3 ints in memory in canonical form, NReq=15862484.
 FoFCou: FMM=F IPFlag=           0 FMFlag=           0 FMFlg1=           0
         NFxFlg=           0 DoJE=F BraDBF=F KetDBF=F FulRan=T
         wScrn=  0.000000 ICntrl=       600 IOpCl=  0 I1Cent=           0 NGrid=           0
         NMat0=    1 NMatS0=   1770 NMatT0=    0 NMatD0=    1 NMtDS0=    0 NMtDT0=    0
 Symmetry not used in FoFCou.
 Two-electron integral symmetry not used.
 CIDS: In Core Option IDoMem=           1.
 MP4(SDTQ)
 =========
 Produce multiple copies of IABC intergrals
 DD1Dir will call FoFMem   1 times, MxPair=        90
 NAB=    45 NAA=     0 NBB=     0.
 MP4(D)= -0.36913093D-02
 MP4(S)= -0.10734540D-02
 MP4(R+Q)=  0.42077927D-02
 T4(AAA)= -0.32336090D-03
 T4(AAB)= -0.35259699D-02
 Time for triples=        3.39 seconds.
 MP4(T)=   -0.76986616D-02
 E3=       -0.99406389D-02        EUMP3=      -0.27523040550D+04
 E4(DQ)=    0.51648341D-03        UMP4(DQ)=   -0.27523035385D+04
 E4(SDQ)=  -0.55697064D-03        UMP4(SDQ)=  -0.27523046120D+04
 E4(SDTQ)= -0.82556322D-02        UMP4(SDTQ)= -0.27523123106D+04
 VARIATIONAL ENERGIES WITH THE FIRST-ORDER WAVEFUNCTION:
 E(VAR1)=  -0.27522882489D+04     E(CISD,4)=  -0.27522926209D+04
 Largest amplitude= 2.39D-02
 Discarding MO integrals.
 Leave Link  913 at Thu Apr  2 06:50:37 2020, MaxMem=  2147483648 cpu:              13.7 elap:               0.9
 (Enter /usr/local/g16/g16/l122.exe)
 CPIOFr:  IOpCl= 0 IRwI=-1 IRwCP=  731 ICalc=  4 LCPTot=       59414 Len1MO=      159453 IndFrg=      856679
 Restoring MOs from calculation   1 to rwf.
 CPIOFr:  IOpCl= 0 IRwI=-2 IRwCP=  731 ICalc=  0 LCPTot=       59414 Len1MO=      159453 IndFrg=      218867
 Counterpoise corrected energy =   -2903.684175627085
                   BSSE energy =       0.000219797087
              sum of fragments =   -2903.683921851525
           complexation energy =      -0.30 kcal/mole (raw)
           complexation energy =      -0.16 kcal/mole (corrected)
 Leave Link  122 at Thu Apr  2 06:50:37 2020, MaxMem=  2147483648 cpu:               0.1 elap:               0.0
 (Enter /usr/local/g16/g16/l108.exe)
 Scan completed.
 
 Summary of the potential surface scan, energies are +2752 a.u.:
   N      R1          SCF          MP2          MP3         MP4DQ       MP4SDQ       MP4SDTQ  
 ----  ---------  -----------  -----------  -----------  -----------  -----------  -----------
    1     3.0000     -0.05222     -0.29411     -0.30405     -0.30354     -0.30461     -0.31231
    2     3.1000     -0.05222     -0.29411     -0.30405     -0.30354     -0.30461     -0.31231
    3     3.2000     -0.05222     -0.29411     -0.30405     -0.30354     -0.30461     -0.31231
    4     3.3000     -0.05222     -0.29411     -0.30405     -0.30354     -0.30461     -0.31231
    5     3.4000     -0.05222     -0.29411     -0.30405     -0.30354     -0.30461     -0.31231
    6     3.5000     -0.05222     -0.29411     -0.30405     -0.30354     -0.30461     -0.31231
    7     3.6000     -0.05222     -0.29411     -0.30405     -0.30354     -0.30461     -0.31231
    8     3.7000     -0.05222     -0.29411     -0.30405     -0.30354     -0.30461     -0.31231
    9     3.8000     -0.05222     -0.29411     -0.30405     -0.30354     -0.30461     -0.31231
   10     3.9000     -0.05222     -0.29411     -0.30405     -0.30354     -0.30461     -0.31231
   11     4.0000     -0.05222     -0.29411     -0.30405     -0.30354     -0.30461     -0.31231
   12     4.1000     -0.05222     -0.29411     -0.30405     -0.30354     -0.30461     -0.31231
   13     4.2000     -0.05222     -0.29411     -0.30405     -0.30354     -0.30461     -0.31231
   14     4.3000     -0.05222     -0.29411     -0.30405     -0.30354     -0.30461     -0.31231
   15     4.4000     -0.05222     -0.29411     -0.30405     -0.30354     -0.30461     -0.31231
   16     4.5000     -0.05222     -0.29411     -0.30405     -0.30354     -0.30461     -0.31231
   17     4.6000     -0.05222     -0.29411     -0.30405     -0.30354     -0.30461     -0.31231
   18     4.7000     -0.05222     -0.29411     -0.30405     -0.30354     -0.30461     -0.31231
   19     4.8000     -0.05222     -0.29411     -0.30405     -0.30354     -0.30461     -0.31231
   20     4.9000     -0.05222     -0.29411     -0.30405     -0.30354     -0.30461     -0.31231
   21     5.0000     -0.05222     -0.29411     -0.30405     -0.30354     -0.30461     -0.31231
 ----  ---------  -----------  -----------  -----------  -----------  -----------  -----------
  
 Leave Link  108 at Thu Apr  2 06:50:37 2020, MaxMem=  2147483648 cpu:               0.1 elap:               0.0
 (Enter /usr/local/g16/g16/l9999.exe)
 1\1\GINC-ARTHUR-MS-7B09\Scan\RMP4SDTQ-FC\Aug-CC-pVTZ\H2Kr1O2\MATHEUS\0
 2-Apr-2020\1\\#p mp4/aug-cc-PVTz int=ultrafine counterpoise=2 Scan\\PT
 CC\\0,1\O,0,0.,0.,0.725\O,0,0.,0.,-0.725\H,0,-0.7037808064,-0.59054221
 51,1.0235104166\H,0,0.,0.9187205947,-1.0235104166\Kr,0,0.,R1,0.\\R1=3.
 ,s,20,0.1\\Version=ES64L-G16RevA.03\HF=-2752.0522231,-2752.0522231,-27
 52.0522231,-2752.0522231,-2752.0522231,-2752.0522231,-2752.0522231,-27
 52.0522231,-2752.0522231,-2752.0522231,-2752.0522231,-2752.0522231,-27
 52.0522231,-2752.0522231,-2752.0522231,-2752.0522231,-2752.0522231,-27
 52.0522231,-2752.0522231,-2752.0522231,-2752.0522231\MP2=-2752.2941143
 ,-2752.2941143,-2752.2941143,-2752.2941143,-2752.2941143,-2752.2941143
 ,-2752.2941143,-2752.2941143,-2752.2941143,-2752.2941143,-2752.2941143
 ,-2752.2941143,-2752.2941143,-2752.2941143,-2752.2941143,-2752.2941143
 ,-2752.2941143,-2752.2941143,-2752.2941143,-2752.2941143,-2752.2941143
 \MP3=-2752.304055,-2752.304055,-2752.304055,-2752.304055,-2752.304055,
 -2752.304055,-2752.304055,-2752.304055,-2752.304055,-2752.304055,-2752
 .304055,-2752.304055,-2752.304055,-2752.304055,-2752.304055,-2752.3040
 55,-2752.304055,-2752.304055,-2752.304055,-2752.304055,-2752.304055\MP
 4D=-2752.3077463,-2752.3077463,-2752.3077463,-2752.3077463,-2752.30774
 63,-2752.3077463,-2752.3077463,-2752.3077463,-2752.3077463,-2752.30774
 63,-2752.3077463,-2752.3077463,-2752.3077463,-2752.3077463,-2752.30774
 63,-2752.3077463,-2752.3077463,-2752.3077463,-2752.3077463,-2752.30774
 63,-2752.3077463\MP4DQ=-2752.3035385,-2752.3035385,-2752.3035385,-2752
 .3035385,-2752.3035385,-2752.3035385,-2752.3035385,-2752.3035385,-2752
 .3035385,-2752.3035385,-2752.3035385,-2752.3035385,-2752.3035385,-2752
 .3035385,-2752.3035385,-2752.3035385,-2752.3035385,-2752.3035385,-2752
 .3035385,-2752.3035385,-2752.3035385\MP4SDQ=-2752.304612,-2752.304612,
 -2752.304612,-2752.304612,-2752.304612,-2752.304612,-2752.304612,-2752
 .304612,-2752.304612,-2752.304612,-2752.304612,-2752.304612,-2752.3046
 12,-2752.304612,-2752.304612,-2752.304612,-2752.304612,-2752.304612,-2
 752.304612,-2752.304612,-2752.304612\MP4SDTQ=-2752.3123106,-2752.31231
 06,-2752.3123106,-2752.3123106,-2752.3123106,-2752.3123106,-2752.31231
 06,-2752.3123106,-2752.3123106,-2752.3123106,-2752.3123106,-2752.31231
 06,-2752.3123106,-2752.3123106,-2752.3123106,-2752.3123106,-2752.31231
 06,-2752.3123106,-2752.3123106,-2752.3123106,-2752.3123106\RMSD=9.887e
 -10,1.149e-10,2.884e-11,7.212e-12,1.872e-12,4.682e-13,1.330e-13,3.867e
 -14,2.028e-14,8.839e-15,5.747e-15,5.621e-15,5.054e-15,8.029e-15,6.189e
 -15,9.548e-15,7.959e-15,9.862e-15,8.126e-15,4.510e-15,5.592e-15\PG=C01
  [X(H2Kr1O2)]\\@


 GROWING OLD ISN'T SO BAD -- WHEN YOU CONSIDER THE ALTERNATIVE.

                     -- MAURICE CHEVALIER
 Job cpu time:       0 days 20 hours 49 minutes 11.3 seconds.
 Elapsed time:       0 days  1 hours 19 minutes 18.0 seconds.
 File lengths (MBytes):  RWF=   4073 Int=      0 D2E=      0 Chk=     12 Scr=      1
 Normal termination of Gaussian 16 at Thu Apr  2 06:50:38 2020.
