 Entering Gaussian System, Link 0=g16
 Input=Inputs/H2O2-Kr_34.com
 Output=Logs/H2O2-Kr_34.log
 Initial command:
 /usr/local/g16/g16/l1.exe "/mnt/driveB/scratch/matheus/Gau-70476.inp" -scrdir="/mnt/driveB/scratch/matheus/"
 Entering Link 1 = /usr/local/g16/g16/l1.exe PID=     70482.
  
 Copyright (c) 1988,1990,1992,1993,1995,1998,2003,2009,2016,
            Gaussian, Inc.  All Rights Reserved.
  
 This is part of the Gaussian(R) 16 program.  It is based on
 the Gaussian(R) 09 system (copyright 2009, Gaussian, Inc.),
 the Gaussian(R) 03 system (copyright 2003, Gaussian, Inc.),
 the Gaussian(R) 98 system (copyright 1998, Gaussian, Inc.),
 the Gaussian(R) 94 system (copyright 1995, Gaussian, Inc.),
 the Gaussian 92(TM) system (copyright 1992, Gaussian, Inc.),
 the Gaussian 90(TM) system (copyright 1990, Gaussian, Inc.),
 the Gaussian 88(TM) system (copyright 1988, Gaussian, Inc.),
 the Gaussian 86(TM) system (copyright 1986, Carnegie Mellon
 University), and the Gaussian 82(TM) system (copyright 1983,
 Carnegie Mellon University). Gaussian is a federally registered
 trademark of Gaussian, Inc.
  
 This software contains proprietary and confidential information,
 including trade secrets, belonging to Gaussian, Inc.
  
 This software is provided under written license and may be
 used, copied, transmitted, or stored only in accord with that
 written license.
  
 The following legend is applicable only to US Government
 contracts under FAR:
  
                    RESTRICTED RIGHTS LEGEND
  
 Use, reproduction and disclosure by the US Government is
 subject to restrictions as set forth in subparagraphs (a)
 and (c) of the Commercial Computer Software - Restricted
 Rights clause in FAR 52.227-19.
  
 Gaussian, Inc.
 340 Quinnipiac St., Bldg. 40, Wallingford CT 06492
  
  
 ---------------------------------------------------------------
 Warning -- This program may not be used in any manner that
 competes with the business of Gaussian, Inc. or will provide
 assistance to any competitor of Gaussian, Inc.  The licensee
 of this program is prohibited from giving any competitor of
 Gaussian, Inc. access to this program.  By using this program,
 the user acknowledges that Gaussian, Inc. is engaged in the
 business of creating and licensing software in the field of
 computational chemistry and represents and warrants to the
 licensee that it is not a competitor of Gaussian, Inc. and that
 it will not use this program in any manner prohibited above.
 ---------------------------------------------------------------
  

 Cite this work as:
 Gaussian 16, Revision A.03,
 M. J. Frisch, G. W. Trucks, H. B. Schlegel, G. E. Scuseria, 
 M. A. Robb, J. R. Cheeseman, G. Scalmani, V. Barone, 
 G. A. Petersson, H. Nakatsuji, X. Li, M. Caricato, A. V. Marenich, 
 J. Bloino, B. G. Janesko, R. Gomperts, B. Mennucci, H. P. Hratchian, 
 J. V. Ortiz, A. F. Izmaylov, J. L. Sonnenberg, D. Williams-Young, 
 F. Ding, F. Lipparini, F. Egidi, J. Goings, B. Peng, A. Petrone, 
 T. Henderson, D. Ranasinghe, V. G. Zakrzewski, J. Gao, N. Rega, 
 G. Zheng, W. Liang, M. Hada, M. Ehara, K. Toyota, R. Fukuda, 
 J. Hasegawa, M. Ishida, T. Nakajima, Y. Honda, O. Kitao, H. Nakai, 
 T. Vreven, K. Throssell, J. A. Montgomery, Jr., J. E. Peralta, 
 F. Ogliaro, M. J. Bearpark, J. J. Heyd, E. N. Brothers, K. N. Kudin, 
 V. N. Staroverov, T. A. Keith, R. Kobayashi, J. Normand, 
 K. Raghavachari, A. P. Rendell, J. C. Burant, S. S. Iyengar, 
 J. Tomasi, M. Cossi, J. M. Millam, M. Klene, C. Adamo, R. Cammi, 
 J. W. Ochterski, R. L. Martin, K. Morokuma, O. Farkas, 
 J. B. Foresman, and D. J. Fox, Gaussian, Inc., Wallingford CT, 2016.
 
 ******************************************
 Gaussian 16:  ES64L-G16RevA.03 25-Dec-2016
                 3-Apr-2020 
 ******************************************
 %mem=16GB
 %nproc=16
 Will use up to   16 processors via shared memory.
 ----------------------------------------------------
 #p mp4/aug-cc-PVTz int=ultrafine counterpoise=2 Scan
 ----------------------------------------------------
 1/38=1,60=1,62=2,172=1/1,8;
 2/12=2,17=6,18=5,29=3,40=1/2;
 1/38=1,53=2,62=2,63=1/22;
 3/5=16,6=1,7=10,11=9,25=1,30=1,75=-5/1,2,3;
 4//1;
 5/5=2,38=5/2;
 8/6=4,9=120000,10=1/1,4;
 9/5=5/13;
 6/7=2,8=2,9=2,10=2,18=1/1;
 1/53=2,62=2,63=1/22;
 3/5=7,6=11,7=10,11=9,25=1,30=1,75=-5,82=7/1,2,3;
 4//1;
 5/5=2,38=5/2;
 8/6=4,9=120000,10=1/1,4;
 9/5=5/13;
 6/7=2,8=2,9=2,10=2,18=1/1;
 1/53=2,62=2,63=1/22(-6);
 1/60=1,62=2/8(1);
 99/9=1/99;
 2/29=3/2;
 1/53=3,62=2,63=1/22;
 3/5=7,6=11,7=10,11=9,25=1,30=1,75=-5,82=7/1,2,3;
 4/5=5,16=3,69=1/1;
 5/5=2,38=5/2;
 8/6=4,9=120000,10=1/1,4;
 9/5=5/13;
 1/53=3,62=2,63=1/22(-5);
 1/60=1,62=2/8(-8);
 99/9=1/99;
 Leave Link    1 at Fri Apr  3 15:43:32 2020, MaxMem=  2147483648 cpu:               0.5 elap:               0.0
 (Enter /usr/local/g16/g16/l101.exe)
 ----
 PTCC
 ----
 Symbolic Z-matrix:
 Charge =  0 Multiplicity = 1 in supermolecule
 Charge =  0 Multiplicity = 1 in fragment      1.
 Charge =  0 Multiplicity = 1 in fragment      2.
 O(Fragment=1)         0.        0.        0.725 
 O(Fragment=1)         0.        0.       -0.725 
 H(Fragment=1)        -0.31422   0.86331   1.02351 
 H(Fragment=1)         0.        0.91872  -1.02351 
 Kr(Fragment=2)        0.       R1        0. 
       Variables:
  R1                    3.     Scan 20    0.1    
 
 ITRead=  0  0  0  0  0
 MicOpt= -1 -1 -1 -1 -1
 NAtoms=      5 NQM=        5 NQMF=       0 NMMI=      0 NMMIF=      0
                NMic=       0 NMicF=      0.
                    Isotopes and Nuclear Properties:
 (Nuclear quadrupole moments (NQMom) in fm**2, nuclear magnetic moments (NMagM)
  in nuclear magnetons)

  Atom         1           2           3           4           5
 IAtWgt=          16          16           1           1          84
 AtmWgt=  15.9949146  15.9949146   1.0078250   1.0078250  83.9115064
 NucSpn=           0           0           1           1           0
 AtZEff=  -0.0000000  -0.0000000  -0.0000000  -0.0000000  -0.0000000
 NQMom=    0.0000000   0.0000000   0.0000000   0.0000000   0.0000000
 NMagM=    0.0000000   0.0000000   2.7928460   2.7928460   0.0000000
 AtZNuc=   8.0000000   8.0000000   1.0000000   1.0000000  36.0000000
 Leave Link  101 at Fri Apr  3 15:43:32 2020, MaxMem=  2147483648 cpu:               1.5 elap:               0.1
 (Enter /usr/local/g16/g16/l108.exe)
 Scan the potential surface.
 Variable   Value     No. Steps Step-Size
 -------- ----------- --------- ---------
     1       3.000000      20      0.1000
 A total of     21 points will be computed.
 Leave Link  108 at Fri Apr  3 15:43:32 2020, MaxMem=  2147483648 cpu:               0.0 elap:               0.0
 (Enter /usr/local/g16/g16/l202.exe)
 ---------------------------------------------------------------------------------------------------
                            Z-MATRIX (ANGSTROMS AND DEGREES)
   CD    Cent   Atom    N1       Length/X        N2       Alpha/Y        N3        Beta/Z          J
 ---------------------------------------------------------------------------------------------------
      1      1  O        0   0.000000          0.000000          0.725000
      2      2  O        0   0.000000          0.000000         -0.725000
      3      3  H        0  -0.314221          0.863315          1.023510
      4      4  H        0   0.000000          0.918721         -1.023510
      5      5  Kr       0   0.000000          3.000000          0.000000
 ---------------------------------------------------------------------------------------------------
                         Z-Matrix orientation:                         
 ---------------------------------------------------------------------
 Center     Atomic      Atomic             Coordinates (Angstroms)
 Number     Number       Type             X           Y           Z
 ---------------------------------------------------------------------
      1          8           0        0.000000    0.000000    0.725000
      2          8           0        0.000000    0.000000   -0.725000
      3          1           0       -0.314221    0.863315    1.023510
      4          1           0        0.000000    0.918721   -1.023510
      5         36           0        0.000000    3.000000    0.000000
 ---------------------------------------------------------------------
                    Distance matrix (angstroms):
                    1          2          3          4          5
     1  O    0.000000
     2  O    1.450000   0.000000
     3  H    0.966000   1.975180   0.000000
     4  H    1.975180   0.966000   2.071738   0.000000
     5  Kr   3.086361   3.086361   2.389923   2.319331   0.000000
 Stoichiometry    H2KrO2
 Framework group  C1[X(H2KrO2)]
 Deg. of freedom     9
 Full point group                 C1      NOp   1
 Largest Abelian subgroup         C1      NOp   1
 Largest concise Abelian subgroup C1      NOp   1
                         Standard orientation:                         
 ---------------------------------------------------------------------
 Center     Atomic      Atomic             Coordinates (Angstroms)
 Number     Number       Type             X           Y           Z
 ---------------------------------------------------------------------
      1          8           0       -2.033423   -0.722971   -0.035434
      2          8           0       -2.032510    0.726339    0.009272
      3          1           0       -1.171431   -1.031666    0.272517
      4          1           0       -1.113607    1.024028    0.021759
      5         36           0        0.967014   -0.000536   -0.002361
 ---------------------------------------------------------------------
 Rotational constants (GHZ):          26.5652683           2.3862430           2.1913165
 Leave Link  202 at Fri Apr  3 15:43:32 2020, MaxMem=  2147483648 cpu:               0.0 elap:               0.0
 (Enter /usr/local/g16/g16/l122.exe)
 Counterpoise: doing full-system calculation.
 Leave Link  122 at Fri Apr  3 15:43:32 2020, MaxMem=  2147483648 cpu:               0.0 elap:               0.0
 (Enter /usr/local/g16/g16/l301.exe)
 Standard basis: Aug-CC-pVTZ (5D, 7F)
 Ernie: Thresh=  0.10000D-02 Tol=  0.10000D-05 Strict=F.
 Ernie:  38 primitive shells out of 205 were deleted.
 There are   229 symmetry adapted cartesian basis functions of A   symmetry.
 There are   197 symmetry adapted basis functions of A   symmetry.
   197 basis functions,   415 primitive gaussians,   229 cartesian basis functions
    27 alpha electrons       27 beta electrons
       nuclear repulsion energy       151.6075775559 Hartrees.
 IExCor=    0 DFT=F Ex=HF Corr=None ExCW=0 ScaHFX=  1.000000
 ScaDFX=  1.000000  1.000000  1.000000  1.000000 ScalE2=  1.000000  1.000000
 IRadAn=      5 IRanWt=     -1 IRanGd=            0 ICorTp=0 IEmpDi=  4
 NAtoms=    5 NActive=    5 NUniq=    5 SFac= 1.00D+00 NAtFMM=   60 NAOKFM=F Big=F
 Integral buffers will be    131072 words long.
 Raffenetti 1 integral format.
 Two-electron integral symmetry is turned on.
 Leave Link  301 at Fri Apr  3 15:43:32 2020, MaxMem=  2147483648 cpu:               0.4 elap:               0.0
 (Enter /usr/local/g16/g16/l302.exe)
 NPDir=0 NMtPBC=     1 NCelOv=     1 NCel=       1 NClECP=     1 NCelD=      1
         NCelK=      1 NCelE2=     1 NClLst=     1 CellRange=     0.0.
 One-electron integrals computed using PRISM.
 One-electron integral symmetry used in STVInt
 NBasis=   197 RedAO= T EigKep=  1.58D-04  NBF=   197
 NBsUse=   197 1.00D-06 EigRej= -1.00D+00 NBFU=   197
 Leave Link  302 at Fri Apr  3 15:43:33 2020, MaxMem=  2147483648 cpu:               1.7 elap:               0.1
 (Enter /usr/local/g16/g16/l303.exe)
 DipDrv:  MaxL=1.
 Leave Link  303 at Fri Apr  3 15:43:33 2020, MaxMem=  2147483648 cpu:               0.4 elap:               0.0
 (Enter /usr/local/g16/g16/l401.exe)
 ExpMin= 2.53D-02 ExpMax= 1.17D+07 ExpMxC= 1.33D+04 IAcc=3 IRadAn=         5 AccDes= 0.00D+00
 Harris functional with IExCor=  205 and IRadAn=       5 diagonalized for initial guess.
 HarFok:  IExCor=  205 AccDes= 0.00D+00 IRadAn=         5 IDoV= 1 UseB2=F ITyADJ=14
 ICtDFT=  3500011 ScaDFX=  1.000000  1.000000  1.000000  1.000000
 FoFCou: FMM=F IPFlag=           0 FMFlag=      100000 FMFlg1=           0
         NFxFlg=           0 DoJE=T BraDBF=F KetDBF=T FulRan=T
         wScrn=  0.000000 ICntrl=       500 IOpCl=  0 I1Cent=   200000004 NGrid=           0
         NMat0=    1 NMatS0=      1 NMatT0=    0 NMatD0=    1 NMtDS0=    0 NMtDT0=    0
 Petite list used in FoFCou.
 Harris En= -2901.98577878957    
 JPrj=0 DoOrth=F DoCkMO=F.
 Leave Link  401 at Fri Apr  3 15:43:33 2020, MaxMem=  2147483648 cpu:               3.2 elap:               0.2
 (Enter /usr/local/g16/g16/l502.exe)
 Keep R1 ints in memory in canonical form, NReq=203139974.
 FoFCou: FMM=F IPFlag=           0 FMFlag=           0 FMFlg1=           0
         NFxFlg=           0 DoJE=F BraDBF=F KetDBF=F FulRan=T
         wScrn=  0.000000 ICntrl=       600 IOpCl=  0 I1Cent=           0 NGrid=           0
         NMat0=    1 NMatS0=  19503 NMatT0=    0 NMatD0=    1 NMtDS0=    0 NMtDT0=    0
 Symmetry not used in FoFCou.
 Two-electron integral symmetry not used.
 Closed shell SCF:
 Using DIIS extrapolation, IDIIS=  1040.
 NGot=  2147483648 LenX=  1957179903 LenY=  1957127021
 Requested convergence on RMS density matrix=1.00D-08 within 128 cycles.
 Requested convergence on MAX density matrix=1.00D-06.
 Requested convergence on             energy=1.00D-06.
 No special actions if energy rises.

 Cycle   1  Pass 1  IDiag  1:
 E= -2902.75441842489    
 DIIS: error= 6.01D-02 at cycle   1 NSaved=   1.
 NSaved= 1 IEnMin= 1 EnMin= -2902.75441842489     IErMin= 1 ErrMin= 6.01D-02
 ErrMax= 6.01D-02  0.00D+00 EMaxC= 1.00D-01 BMatC= 6.70D-01 BMatP= 6.70D-01
 IDIUse=3 WtCom= 3.99D-01 WtEn= 6.01D-01
 Coeff-Com:  0.100D+01
 Coeff-En:   0.100D+01
 Coeff:      0.100D+01
 Gap=     0.683 Goal=   None    Shift=    0.000
 GapD=    0.683 DampG=2.000 DampE=0.500 DampFc=1.0000 IDamp=-1.
 RMSDP=2.04D-03 MaxDP=1.34D-01              OVMax= 5.92D-02

 Cycle   2  Pass 1  IDiag  1:
 E= -2902.85307326934     Delta-E=       -0.098654844457 Rises=F Damp=F
 DIIS: error= 7.75D-03 at cycle   2 NSaved=   2.
 NSaved= 2 IEnMin= 2 EnMin= -2902.85307326934     IErMin= 2 ErrMin= 7.75D-03
 ErrMax= 7.75D-03  0.00D+00 EMaxC= 1.00D-01 BMatC= 3.94D-02 BMatP= 6.70D-01
 IDIUse=3 WtCom= 9.22D-01 WtEn= 7.75D-02
 Coeff-Com:  0.144D+00 0.856D+00
 Coeff-En:   0.000D+00 0.100D+01
 Coeff:      0.133D+00 0.867D+00
 Gap=     0.518 Goal=   None    Shift=    0.000
 RMSDP=8.24D-04 MaxDP=3.83D-02 DE=-9.87D-02 OVMax= 2.77D-02

 Cycle   3  Pass 1  IDiag  1:
 E= -2902.86798501165     Delta-E=       -0.014911742306 Rises=F Damp=F
 DIIS: error= 2.59D-03 at cycle   3 NSaved=   3.
 NSaved= 3 IEnMin= 3 EnMin= -2902.86798501165     IErMin= 3 ErrMin= 2.59D-03
 ErrMax= 2.59D-03  0.00D+00 EMaxC= 1.00D-01 BMatC= 3.04D-03 BMatP= 3.94D-02
 IDIUse=3 WtCom= 9.74D-01 WtEn= 2.59D-02
 Coeff-Com: -0.593D-02 0.197D+00 0.809D+00
 Coeff-En:   0.000D+00 0.000D+00 0.100D+01
 Coeff:     -0.578D-02 0.192D+00 0.814D+00
 Gap=     0.489 Goal=   None    Shift=    0.000
 RMSDP=1.47D-04 MaxDP=5.03D-03 DE=-1.49D-02 OVMax= 8.64D-03

 Cycle   4  Pass 1  IDiag  1:
 E= -2902.86956715895     Delta-E=       -0.001582147303 Rises=F Damp=F
 DIIS: error= 4.48D-04 at cycle   4 NSaved=   4.
 NSaved= 4 IEnMin= 4 EnMin= -2902.86956715895     IErMin= 4 ErrMin= 4.48D-04
 ErrMax= 4.48D-04  0.00D+00 EMaxC= 1.00D-01 BMatC= 5.23D-05 BMatP= 3.04D-03
 IDIUse=3 WtCom= 9.96D-01 WtEn= 4.48D-03
 Coeff-Com: -0.432D-02 0.156D-01 0.147D+00 0.842D+00
 Coeff-En:   0.000D+00 0.000D+00 0.000D+00 0.100D+01
 Coeff:     -0.430D-02 0.155D-01 0.146D+00 0.843D+00
 Gap=     0.493 Goal=   None    Shift=    0.000
 RMSDP=2.47D-05 MaxDP=6.51D-04 DE=-1.58D-03 OVMax= 1.71D-03

 Cycle   5  Pass 1  IDiag  1:
 E= -2902.86961036236     Delta-E=       -0.000043203412 Rises=F Damp=F
 DIIS: error= 1.59D-04 at cycle   5 NSaved=   5.
 NSaved= 5 IEnMin= 5 EnMin= -2902.86961036236     IErMin= 5 ErrMin= 1.59D-04
 ErrMax= 1.59D-04  0.00D+00 EMaxC= 1.00D-01 BMatC= 3.61D-06 BMatP= 5.23D-05
 IDIUse=3 WtCom= 9.98D-01 WtEn= 1.59D-03
 Coeff-Com:  0.879D-03-0.165D-01-0.697D-01-0.298D-02 0.109D+01
 Coeff-En:   0.000D+00 0.000D+00 0.000D+00 0.000D+00 0.100D+01
 Coeff:      0.878D-03-0.165D-01-0.696D-01-0.297D-02 0.109D+01
 Gap=     0.493 Goal=   None    Shift=    0.000
 RMSDP=1.12D-05 MaxDP=3.32D-04 DE=-4.32D-05 OVMax= 7.20D-04

 Cycle   6  Pass 1  IDiag  1:
 E= -2902.86961556415     Delta-E=       -0.000005201785 Rises=F Damp=F
 DIIS: error= 2.62D-05 at cycle   6 NSaved=   6.
 NSaved= 6 IEnMin= 6 EnMin= -2902.86961556415     IErMin= 6 ErrMin= 2.62D-05
 ErrMax= 2.62D-05  0.00D+00 EMaxC= 1.00D-01 BMatC= 1.84D-07 BMatP= 3.61D-06
 IDIUse=1 WtCom= 1.00D+00 WtEn= 0.00D+00
 Coeff-Com:  0.148D-03 0.284D-03-0.436D-02-0.478D-01-0.500D-01 0.110D+01
 Coeff:      0.148D-03 0.284D-03-0.436D-02-0.478D-01-0.500D-01 0.110D+01
 Gap=     0.493 Goal=   None    Shift=    0.000
 RMSDP=3.05D-06 MaxDP=9.24D-05 DE=-5.20D-06 OVMax= 2.05D-04

 Cycle   7  Pass 1  IDiag  1:
 E= -2902.86961595207     Delta-E=       -0.000000387918 Rises=F Damp=F
 DIIS: error= 8.27D-06 at cycle   7 NSaved=   7.
 NSaved= 7 IEnMin= 7 EnMin= -2902.86961595207     IErMin= 7 ErrMin= 8.27D-06
 ErrMax= 8.27D-06  0.00D+00 EMaxC= 1.00D-01 BMatC= 1.43D-08 BMatP= 1.84D-07
 IDIUse=1 WtCom= 1.00D+00 WtEn= 0.00D+00
 Coeff-Com: -0.483D-04 0.939D-03 0.423D-02 0.290D-02-0.649D-01-0.981D-01
 Coeff-Com:  0.115D+01
 Coeff:     -0.483D-04 0.939D-03 0.423D-02 0.290D-02-0.649D-01-0.981D-01
 Coeff:      0.115D+01
 Gap=     0.494 Goal=   None    Shift=    0.000
 RMSDP=1.16D-06 MaxDP=4.26D-05 DE=-3.88D-07 OVMax= 7.37D-05

 Cycle   8  Pass 1  IDiag  1:
 E= -2902.86961598963     Delta-E=       -0.000000037567 Rises=F Damp=F
 DIIS: error= 3.00D-06 at cycle   8 NSaved=   8.
 NSaved= 8 IEnMin= 8 EnMin= -2902.86961598963     IErMin= 8 ErrMin= 3.00D-06
 ErrMax= 3.00D-06  0.00D+00 EMaxC= 1.00D-01 BMatC= 2.93D-09 BMatP= 1.43D-08
 IDIUse=1 WtCom= 1.00D+00 WtEn= 0.00D+00
 Coeff-Com: -0.221D-04 0.191D-03 0.133D-02 0.442D-02-0.132D-01-0.106D+00
 Coeff-Com:  0.316D+00 0.798D+00
 Coeff:     -0.221D-04 0.191D-03 0.133D-02 0.442D-02-0.132D-01-0.106D+00
 Coeff:      0.316D+00 0.798D+00
 Gap=     0.494 Goal=   None    Shift=    0.000
 RMSDP=2.90D-07 MaxDP=1.04D-05 DE=-3.76D-08 OVMax= 2.00D-05

 Cycle   9  Pass 1  IDiag  1:
 E= -2902.86961599374     Delta-E=       -0.000000004107 Rises=F Damp=F
 DIIS: error= 1.75D-06 at cycle   9 NSaved=   9.
 NSaved= 9 IEnMin= 9 EnMin= -2902.86961599374     IErMin= 9 ErrMin= 1.75D-06
 ErrMax= 1.75D-06  0.00D+00 EMaxC= 1.00D-01 BMatC= 4.66D-10 BMatP= 2.93D-09
 IDIUse=1 WtCom= 1.00D+00 WtEn= 0.00D+00
 Coeff-Com:  0.654D-05-0.185D-03-0.743D-03 0.557D-04 0.122D-01 0.721D-02
 Coeff-Com: -0.213D+00 0.833D-01 0.111D+01
 Coeff:      0.654D-05-0.185D-03-0.743D-03 0.557D-04 0.122D-01 0.721D-02
 Coeff:     -0.213D+00 0.833D-01 0.111D+01
 Gap=     0.494 Goal=   None    Shift=    0.000
 RMSDP=1.77D-07 MaxDP=3.71D-06 DE=-4.11D-09 OVMax= 1.57D-05

 Cycle  10  Pass 1  IDiag  1:
 E= -2902.86961599494     Delta-E=       -0.000000001203 Rises=F Damp=F
 DIIS: error= 5.94D-07 at cycle  10 NSaved=  10.
 NSaved=10 IEnMin=10 EnMin= -2902.86961599494     IErMin=10 ErrMin= 5.94D-07
 ErrMax= 5.94D-07  0.00D+00 EMaxC= 1.00D-01 BMatC= 4.27D-11 BMatP= 4.66D-10
 IDIUse=1 WtCom= 1.00D+00 WtEn= 0.00D+00
 Coeff-Com:  0.954D-06 0.431D-04 0.768D-04-0.758D-03-0.235D-02 0.120D-01
 Coeff-Com:  0.353D-01-0.130D+00-0.386D+00 0.147D+01
 Coeff:      0.954D-06 0.431D-04 0.768D-04-0.758D-03-0.235D-02 0.120D-01
 Coeff:      0.353D-01-0.130D+00-0.386D+00 0.147D+01
 Gap=     0.494 Goal=   None    Shift=    0.000
 RMSDP=7.28D-08 MaxDP=1.56D-06 DE=-1.20D-09 OVMax= 7.15D-06

 Cycle  11  Pass 1  IDiag  1:
 E= -2902.86961599510     Delta-E=       -0.000000000158 Rises=F Damp=F
 DIIS: error= 1.48D-07 at cycle  11 NSaved=  11.
 NSaved=11 IEnMin=11 EnMin= -2902.86961599510     IErMin=11 ErrMin= 1.48D-07
 ErrMax= 1.48D-07  0.00D+00 EMaxC= 1.00D-01 BMatC= 2.57D-12 BMatP= 4.27D-11
 IDIUse=1 WtCom= 1.00D+00 WtEn= 0.00D+00
 Coeff-Com: -0.630D-06 0.340D-05 0.362D-04 0.190D-03-0.473D-03-0.312D-02
 Coeff-Com:  0.107D-01 0.156D-01-0.186D-01-0.219D+00 0.122D+01
 Coeff:     -0.630D-06 0.340D-05 0.362D-04 0.190D-03-0.473D-03-0.312D-02
 Coeff:      0.107D-01 0.156D-01-0.186D-01-0.219D+00 0.122D+01
 Gap=     0.494 Goal=   None    Shift=    0.000
 RMSDP=1.52D-08 MaxDP=3.79D-07 DE=-1.58D-10 OVMax= 1.36D-06

 Cycle  12  Pass 1  IDiag  1:
 E= -2902.86961599511     Delta-E=       -0.000000000011 Rises=F Damp=F
 DIIS: error= 5.37D-08 at cycle  12 NSaved=  12.
 NSaved=12 IEnMin=12 EnMin= -2902.86961599511     IErMin=12 ErrMin= 5.37D-08
 ErrMax= 5.37D-08  0.00D+00 EMaxC= 1.00D-01 BMatC= 3.44D-13 BMatP= 2.57D-12
 IDIUse=1 WtCom= 1.00D+00 WtEn= 0.00D+00
 Coeff-Com: -0.945D-07-0.608D-05-0.129D-04 0.106D-03 0.325D-03-0.177D-02
 Coeff-Com: -0.395D-02 0.162D-01 0.463D-01-0.171D+00-0.925D-01 0.121D+01
 Coeff:     -0.945D-07-0.608D-05-0.129D-04 0.106D-03 0.325D-03-0.177D-02
 Coeff:     -0.395D-02 0.162D-01 0.463D-01-0.171D+00-0.925D-01 0.121D+01
 Gap=     0.494 Goal=   None    Shift=    0.000
 RMSDP=5.90D-09 MaxDP=1.60D-07 DE=-1.09D-11 OVMax= 6.54D-07

 SCF Done:  E(RHF) =  -2902.86961600     A.U. after   12 cycles
            NFock= 12  Conv=0.59D-08     -V/T= 2.0001
 KE= 2.902670056977D+03 PE=-7.242757395113D+03 EE= 1.285610144585D+03
 Leave Link  502 at Fri Apr  3 15:43:36 2020, MaxMem=  2147483648 cpu:              26.7 elap:               3.5
 (Enter /usr/local/g16/g16/l801.exe)
 Windowed orbitals will be sorted by symmetry type.
 ExpMin= 2.53D-02 ExpMax= 1.17D+07 ExpMxC= 1.33D+04 IAcc=3 IRadAn=         5 AccDes= 0.00D+00
 HarFok:  IExCor=  205 AccDes= 0.00D+00 IRadAn=         5 IDoV=-2 UseB2=F ITyADJ=14
 ICtDFT= 12500011 ScaDFX=  1.000000  1.000000  1.000000  1.000000
 DSYEVD-2 returned Info=          89 IAlg= 4 N=    59 NDim=    59 NE2=    36395833 trying  DSYEV.
 Largest valence mixing into a core orbital is  1.18D-04
 Largest core mixing into a valence orbital is  3.83D-05
 Range of M.O.s used for correlation:    12   197
 NBasis=   197 NAE=    27 NBE=    27 NFC=    11 NFV=     0
 NROrb=    186 NOA=    16 NOB=    16 NVA=   170 NVB=   170

 **** Warning!!: The largest alpha MO coefficient is  0.17471291D+02

 Leave Link  801 at Fri Apr  3 15:43:36 2020, MaxMem=  2147483648 cpu:               0.6 elap:               0.0
 (Enter /usr/local/g16/g16/l804.exe)
 Closed-shell transformation, MDV=  2147483648 ITran=4 ISComp=1.
 Unit  1 TFree=       1248993 TCopy=        808885.
 Semi-Direct transformation.
 ModeAB=           2 MOrb=            16 LenV=    2146358682
 LASXX=     48528660 LTotXX=    48528660 LenRXX=    48528660
 LTotAB=    49298776 MaxLAS=    78372960 LenRXY=    78372960
 NonZer=    97057320 LenScr=   146313216 LnRSAI=           0
 LnScr1=           0 LExtra=           0 Total=    273214836
 MaxDsk=          -1 SrtSym=           F ITran=            4
 DoSDTr:  NPSUse= 16
 JobTyp=0 Pass  1:  I=   1 to  16.
 (rs|ai) integrals will be sorted in core.
 Complete sort for first half transformation.
 First half transformation complete.
 Begin second half transformation for I=  10.
 Begin second half transformation for I=  10.
 Complete sort for second half transformation.
 Second half transformation complete.
 SymMOI:  orbitals are not symmetric.
 Spin components of T(2) and E(2):
     alpha-alpha T2 =       0.2622087934D-01 E2=     -0.1005696263D+00
     alpha-beta  T2 =       0.1424739925D+00 E2=     -0.5581863352D+00
     beta-beta   T2 =       0.2622087934D-01 E2=     -0.1005696263D+00
 ANorm=    0.1093122020D+01
 E2 =    -0.7593255877D+00 EUMP2 =    -0.29036289415828D+04
 Leave Link  804 at Fri Apr  3 15:43:48 2020, MaxMem=  2147483648 cpu:             184.2 elap:              11.5
 (Enter /usr/local/g16/g16/l913.exe)
 CIDS:  MDV=  2147483648.
 Frozen-core window:  NFC=  11 NFV=   0.
 IFCWin=0 IBDFC=1 NFBD=     0     0 NFCmp=     0     0 NFFFC=     0     0
 Using DD3R+UMP44R for 1st iteration.
 Using DD4RQ for 2nd and later iterations.
 Keep R2 and R3 ints in memory in canonical form, NReq=393341459.
 FoFCou: FMM=F IPFlag=           0 FMFlag=           0 FMFlg1=           0
         NFxFlg=           0 DoJE=F BraDBF=F KetDBF=F FulRan=T
         wScrn=  0.000000 ICntrl=       600 IOpCl=  0 I1Cent=           0 NGrid=           0
         NMat0=    1 NMatS0=  19503 NMatT0=    0 NMatD0=    1 NMtDS0=    0 NMtDT0=    0
 Symmetry not used in FoFCou.
 Two-electron integral symmetry not used.
 CIDS: In Core Option IDoMem=           1.
 MP4(SDTQ)
 =========
 Produce multiple copies of IABC intergrals
 DD1Dir will call FoFMem   1 times, MxPair=       272
 NAB=   136 NAA=     0 NBB=     0.
 MP4(D)= -0.14918942D-01
 MP4(S)= -0.65829127D-02
 MP4(R+Q)=  0.15673018D-01
 T4(AAA)= -0.10732149D-02
 T4(AAB)= -0.14411803D-01
 Time for triples=     1784.89 seconds.
 MP4(T)=   -0.30970036D-01
 E3=       -0.10953872D-01        EUMP3=      -0.29036398955D+04
 E4(DQ)=    0.75407602D-03        UMP4(DQ)=   -0.29036391414D+04
 E4(SDQ)=  -0.58288366D-02        UMP4(SDQ)=  -0.29036457243D+04
 E4(SDTQ)= -0.36798872D-01        UMP4(SDTQ)= -0.29036766943D+04
 VARIATIONAL ENERGIES WITH THE FIRST-ORDER WAVEFUNCTION:
 E(VAR1)=  -0.29035142468D+04     E(CISD,4)=  -0.29035133928D+04
 Largest amplitude= 4.28D-02
 Discarding MO integrals.
 Leave Link  913 at Fri Apr  3 15:45:48 2020, MaxMem=  2147483648 cpu:            1909.1 elap:             119.6
 (Enter /usr/local/g16/g16/l601.exe)
 Copying SCF densities to generalized density rwf, IOpCl= 0 IROHF=0.

 **********************************************************************

            Population analysis using the SCF density.

 **********************************************************************

 Orbital symmetries:
       Occupied  (A) (A) (A) (A) (A) (A) (A) (A) (A) (A) (A) (A)
                 (A) (A) (A) (A) (A) (A) (A) (A) (A) (A) (A) (A)
                 (A) (A) (A)
       Virtual   (A) (A) (A) (A) (A) (A) (A) (A) (A) (A) (A) (A)
                 (A) (A) (A) (A) (A) (A) (A) (A) (A) (A) (A) (A)
                 (A) (A) (A) (A) (A) (A) (A) (A) (A) (A) (A) (A)
                 (A) (A) (A) (A) (A) (A) (A) (A) (A) (A) (A) (A)
                 (A) (A) (A) (A) (A) (A) (A) (A) (A) (A) (A) (A)
                 (A) (A) (A) (A) (A) (A) (A) (A) (A) (A) (A) (A)
                 (A) (A) (A) (A) (A) (A) (A) (A) (A) (A) (A) (A)
                 (A) (A) (A) (A) (A) (A) (A) (A) (A) (A) (A) (A)
                 (A) (A) (A) (A) (A) (A) (A) (A) (A) (A) (A) (A)
                 (A) (A) (A) (A) (A) (A) (A) (A) (A) (A) (A) (A)
                 (A) (A) (A) (A) (A) (A) (A) (A) (A) (A) (A) (A)
                 (A) (A) (A) (A) (A) (A) (A) (A) (A) (A) (A) (A)
                 (A) (A) (A) (A) (A) (A) (A) (A) (A) (A) (A) (A)
                 (A) (A) (A) (A) (A) (A) (A) (A) (A) (A) (A) (A)
                 (A) (A)
 The electronic state is 1-A.
 Alpha  occ. eigenvalues -- -520.20332 -69.94090 -63.04746 -63.04746 -63.04743
 Alpha  occ. eigenvalues --  -20.62625 -20.62554 -10.88755  -8.36971  -8.36958
 Alpha  occ. eigenvalues --   -8.36940  -3.86347  -3.86346  -3.86325  -3.86318
 Alpha  occ. eigenvalues --   -3.86313  -1.46719  -1.21457  -1.19472  -0.76900
 Alpha  occ. eigenvalues --   -0.63246  -0.59878  -0.58460  -0.56107  -0.55577
 Alpha  occ. eigenvalues --   -0.54704  -0.45723
 Alpha virt. eigenvalues --    0.03630   0.04615   0.08504   0.09296   0.11337
 Alpha virt. eigenvalues --    0.13587   0.14623   0.16806   0.18198   0.18928
 Alpha virt. eigenvalues --    0.19541   0.20236   0.23350   0.25610   0.25826
 Alpha virt. eigenvalues --    0.26616   0.28576   0.29500   0.34155   0.35722
 Alpha virt. eigenvalues --    0.36295   0.38980   0.40600   0.41163   0.42174
 Alpha virt. eigenvalues --    0.46219   0.49419   0.51933   0.56368   0.57624
 Alpha virt. eigenvalues --    0.63957   0.65405   0.66570   0.68962   0.70447
 Alpha virt. eigenvalues --    0.74202   0.75124   0.77816   0.79007   0.81696
 Alpha virt. eigenvalues --    0.82237   0.82838   0.87037   0.88227   0.91103
 Alpha virt. eigenvalues --    0.91610   0.92971   0.94382   0.97419   0.98512
 Alpha virt. eigenvalues --    0.99899   1.02327   1.03413   1.05319   1.06498
 Alpha virt. eigenvalues --    1.11313   1.11518   1.13139   1.16309   1.18115
 Alpha virt. eigenvalues --    1.20623   1.25419   1.30041   1.33387   1.34822
 Alpha virt. eigenvalues --    1.39157   1.43065   1.47422   1.49071   1.53448
 Alpha virt. eigenvalues --    1.58201   1.61565   1.63656   1.66236   1.68732
 Alpha virt. eigenvalues --    1.72308   1.79059   1.96630   2.03929   2.08252
 Alpha virt. eigenvalues --    2.13466   2.19233   2.25778   2.28546   2.32377
 Alpha virt. eigenvalues --    2.34518   2.37302   2.38521   2.41749   2.46568
 Alpha virt. eigenvalues --    2.47719   2.48138   2.51220   2.52154   2.53690
 Alpha virt. eigenvalues --    2.56504   2.58779   2.60915   2.64661   2.66481
 Alpha virt. eigenvalues --    2.68597   2.69670   2.75606   2.77185   2.78599
 Alpha virt. eigenvalues --    2.81598   2.83014   2.86102   2.86612   2.90420
 Alpha virt. eigenvalues --    2.93135   2.97158   3.00369   3.05798   3.11281
 Alpha virt. eigenvalues --    3.12755   3.29438   3.31325   3.32187   3.77463
 Alpha virt. eigenvalues --    3.94078   4.13389   4.21385   4.25481   4.32375
 Alpha virt. eigenvalues --    4.35081   4.37701   4.40129   4.41997   4.50491
 Alpha virt. eigenvalues --    4.64645   4.75198   4.79185   4.99979   5.03088
 Alpha virt. eigenvalues --    5.22383   5.25914   5.31780   5.35181   5.37637
 Alpha virt. eigenvalues --    5.43273   5.86179   6.15613   6.35307   6.39400
 Alpha virt. eigenvalues --    6.45977   6.69746   6.71447   6.82522   6.92298
 Alpha virt. eigenvalues --    7.03868   7.11749   7.15492   7.19337   7.19606
 Alpha virt. eigenvalues --    7.24932   7.26757   7.28257   7.30793   7.46485
 Alpha virt. eigenvalues --    7.53761   7.57646   7.66203   7.74038   7.97285
 Alpha virt. eigenvalues --    8.38991   8.42884   8.58632  14.46462  15.38725
          Condensed to atoms (all electrons):
               1          2          3          4          5
     1  O    8.148548  -0.111188   0.226991   0.016812  -0.016581
     2  O   -0.111188   8.141170   0.021777   0.237555  -0.013246
     3  H    0.226991   0.021777   0.511692  -0.014534  -0.005859
     4  H    0.016812   0.237555  -0.014534   0.505221  -0.011908
     5  Kr  -0.016581  -0.013246  -0.005859  -0.011908  36.033732
 Mulliken charges:
               1
     1  O   -0.264582
     2  O   -0.276068
     3  H    0.259933
     4  H    0.266854
     5  Kr   0.013863
 Sum of Mulliken charges =   0.00000
 Mulliken charges with hydrogens summed into heavy atoms:
               1
     1  O   -0.004649
     2  O   -0.009214
     5  Kr   0.013863
         Mulliken charges condensed to fragments:
      1     -0.013863
      2      0.013863
 Electronic spatial extent (au):  <R**2>=            475.9802
 Charge=              0.0000 electrons
 Dipole moment (field-independent basis, Debye):
    X=              3.6767    Y=             -0.0432    Z=              0.4748  Tot=              3.7075
 Quadrupole moment (field-independent basis, Debye-Ang):
   XX=            -39.1582   YY=            -28.0719   ZZ=            -30.1961
   XY=              0.1372   XZ=             -0.5532   YZ=             -0.6258
 Traceless Quadrupole moment (field-independent basis, Debye-Ang):
   XX=             -6.6828   YY=              4.4035   ZZ=              2.2793
   XY=              0.1372   XZ=             -0.5532   YZ=             -0.6258
 Octapole moment (field-independent basis, Debye-Ang**2):
  XXX=             44.8032  YYY=             -0.1064  ZZZ=              0.0403  XYY=              7.8008
  XXY=             -0.3201  XXZ=              0.0644  XZZ=              8.2169  YZZ=             -0.2176
  YYZ=              0.7204  XYZ=              0.7152
 Hexadecapole moment (field-independent basis, Debye-Ang**3):
 XXXX=           -456.4268 YYYY=            -62.5058 ZZZZ=            -28.4050 XXXY=              0.3324
 XXXZ=              0.7213 YYYX=              0.2545 YYYZ=             -0.8558 ZZZX=             -0.2707
 ZZZY=             -0.3618 XXYY=            -86.2373 XXZZ=            -75.4486 YYZZ=            -16.8437
 XXYZ=             -0.8040 YYXZ=             -0.8542 ZZXY=              0.2806
 N-N= 1.516075775559D+02 E-N=-7.242757394563D+03  KE= 2.902670056977D+03
 Leave Link  601 at Fri Apr  3 15:45:48 2020, MaxMem=  2147483648 cpu:               0.5 elap:               0.0
 (Enter /usr/local/g16/g16/l122.exe)
 CPIOFr:  IOpCl= 0 IRwI=-1 IRwCP=  731 ICalc= -1 LCPTot=       59414 Len1MO=      159453 IndFrg=       59414
 CPIOFr:  IOpCl= 0 IRwI=-1 IRwCP=  731 ICalc=  0 LCPTot=       59414 Len1MO=      159453 IndFrg=      218867
 Counterpoise: doing calculation for fragment   1 using the basis set of the full-system, NewBq=T
 Leave Link  122 at Fri Apr  3 15:45:48 2020, MaxMem=  2147483648 cpu:               0.0 elap:               0.0
 (Enter /usr/local/g16/g16/l301.exe)
 Basis read from rwf:  (5D, 7F)
 No pseudopotential information found on rwf file.
 There are   229 symmetry adapted cartesian basis functions of A   symmetry.
 There are   197 symmetry adapted basis functions of A   symmetry.
   197 basis functions,   415 primitive gaussians,   229 cartesian basis functions
     9 alpha electrons        9 beta electrons
       nuclear repulsion energy        36.6636683397 Hartrees.
 IExCor=    0 DFT=F Ex=HF Corr=None ExCW=0 ScaHFX=  1.000000
 ScaDFX=  1.000000  1.000000  1.000000  1.000000 ScalE2=  1.000000  1.000000
 IRadAn=      5 IRanWt=     -1 IRanGd=            0 ICorTp=0 IEmpDi=  4
 NAtoms=    5 NActive=    5 NUniq=    5 SFac= 1.00D+00 NAtFMM=   60 NAOKFM=F Big=F
 Integral buffers will be    131072 words long.
 Raffenetti 1 integral format.
 Two-electron integral symmetry is turned on.
 No density basis found on file   718.
 Leave Link  301 at Fri Apr  3 15:45:48 2020, MaxMem=  2147483648 cpu:               0.4 elap:               0.0
 (Enter /usr/local/g16/g16/l302.exe)
 NPDir=0 NMtPBC=     1 NCelOv=     1 NCel=       1 NClECP=     1 NCelD=      1
         NCelK=      1 NCelE2=     1 NClLst=     1 CellRange=     0.0.
 One-electron integrals computed using PRISM.
 One-electron integral symmetry used in STVInt
 NBasis=   197 RedAO= T EigKep=  1.58D-04  NBF=   197
 NBsUse=   197 1.00D-06 EigRej= -1.00D+00 NBFU=   197
 Leave Link  302 at Fri Apr  3 15:45:48 2020, MaxMem=  2147483648 cpu:               1.7 elap:               0.1
 (Enter /usr/local/g16/g16/l303.exe)
 DipDrv:  MaxL=1.
 Leave Link  303 at Fri Apr  3 15:45:48 2020, MaxMem=  2147483648 cpu:               0.4 elap:               0.0
 (Enter /usr/local/g16/g16/l401.exe)
 ExpMin= 2.53D-02 ExpMax= 1.17D+07 ExpMxC= 1.33D+04 IAcc=3 IRadAn=         5 AccDes= 0.00D+00
 Harris functional with IExCor=  205 and IRadAn=       5 diagonalized for initial guess.
 HarFok:  IExCor=  205 AccDes= 0.00D+00 IRadAn=         5 IDoV= 1 UseB2=F ITyADJ=14
 ICtDFT=  3500011 ScaDFX=  1.000000  1.000000  1.000000  1.000000
 FoFCou: FMM=F IPFlag=           0 FMFlag=      100000 FMFlg1=           0
         NFxFlg=           0 DoJE=T BraDBF=F KetDBF=T FulRan=T
         wScrn=  0.000000 ICntrl=       500 IOpCl=  0 I1Cent=   200000004 NGrid=           0
         NMat0=    1 NMatS0=      1 NMatT0=    0 NMatD0=    1 NMtDS0=    0 NMtDT0=    0
 Petite list used in FoFCou.
 Harris En= -150.932767427510    
 JPrj=0 DoOrth=F DoCkMO=F.
 Leave Link  401 at Fri Apr  3 15:45:49 2020, MaxMem=  2147483648 cpu:               3.7 elap:               0.2
 (Enter /usr/local/g16/g16/l502.exe)
 Keep R1 ints in memory in canonical form, NReq=203139974.
 FoFCou: FMM=F IPFlag=           0 FMFlag=           0 FMFlg1=           0
         NFxFlg=           0 DoJE=F BraDBF=F KetDBF=F FulRan=T
         wScrn=  0.000000 ICntrl=       600 IOpCl=  0 I1Cent=           0 NGrid=           0
         NMat0=    1 NMatS0=  19503 NMatT0=    0 NMatD0=    1 NMtDS0=    0 NMtDT0=    0
 Symmetry not used in FoFCou.
 Two-electron integral symmetry not used.
 Closed shell SCF:
 Using DIIS extrapolation, IDIIS=  1040.
 NGot=  2147483648 LenX=  1957179903 LenY=  1957127021
 Requested convergence on RMS density matrix=1.00D-08 within 128 cycles.
 Requested convergence on MAX density matrix=1.00D-06.
 Requested convergence on             energy=1.00D-06.
 No special actions if energy rises.

 Cycle   1  Pass 1  IDiag  1:
 E= -150.762554601005    
 DIIS: error= 2.32D-02 at cycle   1 NSaved=   1.
 NSaved= 1 IEnMin= 1 EnMin= -150.762554601005     IErMin= 1 ErrMin= 2.32D-02
 ErrMax= 2.32D-02  0.00D+00 EMaxC= 1.00D-01 BMatC= 2.32D-01 BMatP= 2.32D-01
 IDIUse=3 WtCom= 7.68D-01 WtEn= 2.32D-01
 Coeff-Com:  0.100D+01
 Coeff-En:   0.100D+01
 Coeff:      0.100D+01
 Gap=     0.688 Goal=   None    Shift=    0.000
 GapD=    0.688 DampG=2.000 DampE=0.500 DampFc=1.0000 IDamp=-1.
 RMSDP=8.99D-04 MaxDP=2.89D-02              OVMax= 6.91D-02

 Cycle   2  Pass 1  IDiag  1:
 E= -150.817799730122     Delta-E=       -0.055245129118 Rises=F Damp=F
 DIIS: error= 7.84D-03 at cycle   2 NSaved=   2.
 NSaved= 2 IEnMin= 2 EnMin= -150.817799730122     IErMin= 2 ErrMin= 7.84D-03
 ErrMax= 7.84D-03  0.00D+00 EMaxC= 1.00D-01 BMatC= 1.79D-02 BMatP= 2.32D-01
 IDIUse=3 WtCom= 9.22D-01 WtEn= 7.84D-02
 Coeff-Com:  0.117D+00 0.883D+00
 Coeff-En:   0.000D+00 0.100D+01
 Coeff:      0.108D+00 0.892D+00
 Gap=     0.514 Goal=   None    Shift=    0.000
 RMSDP=5.48D-04 MaxDP=2.51D-02 DE=-5.52D-02 OVMax= 2.99D-02

 Cycle   3  Pass 1  IDiag  1:
 E= -150.827018625283     Delta-E=       -0.009218895161 Rises=F Damp=F
 DIIS: error= 2.78D-03 at cycle   3 NSaved=   3.
 NSaved= 3 IEnMin= 3 EnMin= -150.827018625283     IErMin= 3 ErrMin= 2.78D-03
 ErrMax= 2.78D-03  0.00D+00 EMaxC= 1.00D-01 BMatC= 2.52D-03 BMatP= 1.79D-02
 IDIUse=3 WtCom= 9.72D-01 WtEn= 2.78D-02
 Coeff-Com: -0.211D-01 0.251D+00 0.770D+00
 Coeff-En:   0.000D+00 0.000D+00 0.100D+01
 Coeff:     -0.206D-01 0.244D+00 0.776D+00
 Gap=     0.484 Goal=   None    Shift=    0.000
 RMSDP=1.25D-04 MaxDP=4.55D-03 DE=-9.22D-03 OVMax= 9.95D-03

 Cycle   4  Pass 1  IDiag  1:
 E= -150.828607002462     Delta-E=       -0.001588377178 Rises=F Damp=F
 DIIS: error= 2.67D-04 at cycle   4 NSaved=   4.
 NSaved= 4 IEnMin= 4 EnMin= -150.828607002462     IErMin= 4 ErrMin= 2.67D-04
 ErrMax= 2.67D-04  0.00D+00 EMaxC= 1.00D-01 BMatC= 1.59D-05 BMatP= 2.52D-03
 IDIUse=3 WtCom= 9.97D-01 WtEn= 2.67D-03
 Coeff-Com: -0.189D-02-0.109D-01 0.553D-02 0.101D+01
 Coeff-En:   0.000D+00 0.000D+00 0.000D+00 0.100D+01
 Coeff:     -0.188D-02-0.109D-01 0.551D-02 0.101D+01
 Gap=     0.485 Goal=   None    Shift=    0.000
 RMSDP=1.82D-05 MaxDP=5.13D-04 DE=-1.59D-03 OVMax= 1.28D-03

 Cycle   5  Pass 1  IDiag  1:
 E= -150.828630081946     Delta-E=       -0.000023079484 Rises=F Damp=F
 DIIS: error= 8.55D-05 at cycle   5 NSaved=   5.
 NSaved= 5 IEnMin= 5 EnMin= -150.828630081946     IErMin= 5 ErrMin= 8.55D-05
 ErrMax= 8.55D-05  0.00D+00 EMaxC= 1.00D-01 BMatC= 1.58D-06 BMatP= 1.59D-05
 IDIUse=1 WtCom= 1.00D+00 WtEn= 0.00D+00
 Coeff-Com:  0.175D-02-0.168D-01-0.586D-01-0.156D+00 0.123D+01
 Coeff:      0.175D-02-0.168D-01-0.586D-01-0.156D+00 0.123D+01
 Gap=     0.486 Goal=   None    Shift=    0.000
 RMSDP=9.60D-06 MaxDP=3.11D-04 DE=-2.31D-05 OVMax= 8.47D-04

 Cycle   6  Pass 1  IDiag  1:
 E= -150.828633803516     Delta-E=       -0.000003721570 Rises=F Damp=F
 DIIS: error= 2.13D-05 at cycle   6 NSaved=   6.
 NSaved= 6 IEnMin= 6 EnMin= -150.828633803516     IErMin= 6 ErrMin= 2.13D-05
 ErrMax= 2.13D-05  0.00D+00 EMaxC= 1.00D-01 BMatC= 6.66D-08 BMatP= 1.58D-06
 IDIUse=1 WtCom= 1.00D+00 WtEn= 0.00D+00
 Coeff-Com: -0.464D-03 0.541D-02 0.197D-01 0.296D-01-0.470D+00 0.142D+01
 Coeff:     -0.464D-03 0.541D-02 0.197D-01 0.296D-01-0.470D+00 0.142D+01
 Gap=     0.486 Goal=   None    Shift=    0.000
 RMSDP=2.66D-06 MaxDP=7.98D-05 DE=-3.72D-06 OVMax= 2.56D-04

 Cycle   7  Pass 1  IDiag  1:
 E= -150.828633998026     Delta-E=       -0.000000194510 Rises=F Damp=F
 DIIS: error= 3.84D-06 at cycle   7 NSaved=   7.
 NSaved= 7 IEnMin= 7 EnMin= -150.828633998026     IErMin= 7 ErrMin= 3.84D-06
 ErrMax= 3.84D-06  0.00D+00 EMaxC= 1.00D-01 BMatC= 2.25D-09 BMatP= 6.66D-08
 IDIUse=1 WtCom= 1.00D+00 WtEn= 0.00D+00
 Coeff-Com:  0.787D-04-0.109D-02-0.431D-02-0.212D-02 0.986D-01-0.403D+00
 Coeff-Com:  0.131D+01
 Coeff:      0.787D-04-0.109D-02-0.431D-02-0.212D-02 0.986D-01-0.403D+00
 Coeff:      0.131D+01
 Gap=     0.486 Goal=   None    Shift=    0.000
 RMSDP=4.60D-07 MaxDP=1.14D-05 DE=-1.95D-07 OVMax= 5.05D-05

 Cycle   8  Pass 1  IDiag  1:
 E= -150.828634004940     Delta-E=       -0.000000006914 Rises=F Damp=F
 DIIS: error= 1.50D-06 at cycle   8 NSaved=   8.
 NSaved= 8 IEnMin= 8 EnMin= -150.828634004940     IErMin= 8 ErrMin= 1.50D-06
 ErrMax= 1.50D-06  0.00D+00 EMaxC= 1.00D-01 BMatC= 2.68D-10 BMatP= 2.25D-09
 IDIUse=1 WtCom= 1.00D+00 WtEn= 0.00D+00
 Coeff-Com: -0.400D-05 0.136D-03 0.758D-03-0.176D-02-0.136D-01 0.970D-01
 Coeff-Com: -0.655D+00 0.157D+01
 Coeff:     -0.400D-05 0.136D-03 0.758D-03-0.176D-02-0.136D-01 0.970D-01
 Coeff:     -0.655D+00 0.157D+01
 Gap=     0.486 Goal=   None    Shift=    0.000
 RMSDP=1.73D-07 MaxDP=4.03D-06 DE=-6.91D-09 OVMax= 2.42D-05

 Cycle   9  Pass 1  IDiag  1:
 E= -150.828634005955     Delta-E=       -0.000000001015 Rises=F Damp=F
 DIIS: error= 4.44D-07 at cycle   9 NSaved=   9.
 NSaved= 9 IEnMin= 9 EnMin= -150.828634005955     IErMin= 9 ErrMin= 4.44D-07
 ErrMax= 4.44D-07  0.00D+00 EMaxC= 1.00D-01 BMatC= 3.24D-11 BMatP= 2.68D-10
 IDIUse=1 WtCom= 1.00D+00 WtEn= 0.00D+00
 Coeff-Com: -0.624D-05 0.105D-03 0.461D-03-0.137D-03-0.102D-01 0.514D-01
 Coeff-Com: -0.243D+00 0.338D+00 0.863D+00
 Coeff:     -0.624D-05 0.105D-03 0.461D-03-0.137D-03-0.102D-01 0.514D-01
 Coeff:     -0.243D+00 0.338D+00 0.863D+00
 Gap=     0.486 Goal=   None    Shift=    0.000
 RMSDP=3.43D-08 MaxDP=1.32D-06 DE=-1.02D-09 OVMax= 4.77D-06

 Cycle  10  Pass 1  IDiag  1:
 E= -150.828634006014     Delta-E=       -0.000000000059 Rises=F Damp=F
 DIIS: error= 1.81D-07 at cycle  10 NSaved=  10.
 NSaved=10 IEnMin=10 EnMin= -150.828634006014     IErMin=10 ErrMin= 1.81D-07
 ErrMax= 1.81D-07  0.00D+00 EMaxC= 1.00D-01 BMatC= 6.57D-12 BMatP= 3.24D-11
 IDIUse=1 WtCom= 1.00D+00 WtEn= 0.00D+00
 Coeff-Com:  0.349D-06-0.229D-04-0.145D-03 0.543D-03 0.188D-02-0.170D-01
 Coeff-Com:  0.132D+00-0.362D+00 0.176D+00 0.107D+01
 Coeff:      0.349D-06-0.229D-04-0.145D-03 0.543D-03 0.188D-02-0.170D-01
 Coeff:      0.132D+00-0.362D+00 0.176D+00 0.107D+01
 Gap=     0.486 Goal=   None    Shift=    0.000
 RMSDP=2.01D-08 MaxDP=7.10D-07 DE=-5.91D-11 OVMax= 2.73D-06

 Cycle  11  Pass 1  IDiag  1:
 E= -150.828634006026     Delta-E=       -0.000000000012 Rises=F Damp=F
 DIIS: error= 3.52D-08 at cycle  11 NSaved=  11.
 NSaved=11 IEnMin=11 EnMin= -150.828634006026     IErMin=11 ErrMin= 3.52D-08
 ErrMax= 3.52D-08  0.00D+00 EMaxC= 1.00D-01 BMatC= 1.59D-13 BMatP= 6.57D-12
 IDIUse=1 WtCom= 1.00D+00 WtEn= 0.00D+00
 Coeff-Com:  0.365D-06-0.195D-05 0.612D-05-0.994D-04 0.703D-04 0.107D-02
 Coeff-Com: -0.177D-01 0.704D-01-0.983D-01-0.287D+00 0.133D+01
 Coeff:      0.365D-06-0.195D-05 0.612D-05-0.994D-04 0.703D-04 0.107D-02
 Coeff:     -0.177D-01 0.704D-01-0.983D-01-0.287D+00 0.133D+01
 Gap=     0.486 Goal=   None    Shift=    0.000
 RMSDP=4.13D-09 MaxDP=1.06D-07 DE=-1.21D-11 OVMax= 5.03D-07

 SCF Done:  E(RHF) =  -150.828634006     A.U. after   11 cycles
            NFock= 11  Conv=0.41D-08     -V/T= 2.0019
 KE= 1.505450808941D+02 PE=-4.315179171091D+02 EE= 9.348053386935D+01
 Leave Link  502 at Fri Apr  3 15:45:52 2020, MaxMem=  2147483648 cpu:              26.9 elap:               3.4
 (Enter /usr/local/g16/g16/l801.exe)
 Windowed orbitals will be sorted by symmetry type.
 ExpMin= 2.53D-02 ExpMax= 1.17D+07 ExpMxC= 1.33D+04 IAcc=3 IRadAn=         5 AccDes= 0.00D+00
 HarFok:  IExCor=  205 AccDes= 0.00D+00 IRadAn=         5 IDoV=-2 UseB2=F ITyADJ=14
 ICtDFT= 12500011 ScaDFX=  1.000000  1.000000  1.000000  1.000000
 Largest valence mixing into a core orbital is  1.19D-04
 Largest core mixing into a valence orbital is  2.08D-05
 Range of M.O.s used for correlation:     3   197
 NBasis=   197 NAE=     9 NBE=     9 NFC=     2 NFV=     0
 NROrb=    195 NOA=     7 NOB=     7 NVA=   188 NVB=   188

 **** Warning!!: The largest alpha MO coefficient is  0.14167330D+02

 Leave Link  801 at Fri Apr  3 15:45:52 2020, MaxMem=  2147483648 cpu:               0.6 elap:               0.0
 (Enter /usr/local/g16/g16/l804.exe)
 Closed-shell transformation, MDV=  2147483648 ITran=4 ISComp=1.
 Semi-Direct transformation.
 ModeAB=           2 MOrb=             7 LenV=    2146278699
 LASXX=     25261509 LTotXX=    25261509 LenRXX=    25261509
 LTotAB=    25646992 MaxLAS=    35947275 LenRXY=    35947275
 NonZer=    50523018 LenScr=    76544000 LnRSAI=           0
 LnScr1=           0 LExtra=           0 Total=    137752784
 MaxDsk=          -1 SrtSym=           F ITran=            4
 DoSDTr:  NPSUse= 16
 JobTyp=0 Pass  1:  I=   1 to   7.
 (rs|ai) integrals will be sorted in core.
 Complete sort for first half transformation.
 First half transformation complete.
 Complete sort for second half transformation.
 Second half transformation complete.
 SymMOI:  orbitals are not symmetric.
 Spin components of T(2) and E(2):
     alpha-alpha T2 =       0.1606562461D-01 E2=     -0.6287257746D-01
     alpha-beta  T2 =       0.9338201690D-01 E2=     -0.3820797045D+00
     beta-beta   T2 =       0.1606562461D-01 E2=     -0.6287257746D-01
 ANorm=    0.1060902100D+01
 E2 =    -0.5078248594D+00 EUMP2 =    -0.15133645886541D+03
 Leave Link  804 at Fri Apr  3 15:46:00 2020, MaxMem=  2147483648 cpu:             125.2 elap:               7.8
 (Enter /usr/local/g16/g16/l913.exe)
 CIDS:  MDV=  2147483648.
 Frozen-core window:  NFC=   2 NFV=   0.
 IFCWin=0 IBDFC=1 NFBD=     0     0 NFCmp=     0     0 NFFFC=     0     0
 Using DD3R+UMP44R for 1st iteration.
 Using DD4RQ for 2nd and later iterations.
 Keep R2 and R3 ints in memory in canonical form, NReq=393338651.
 FoFCou: FMM=F IPFlag=           0 FMFlag=           0 FMFlg1=           0
         NFxFlg=           0 DoJE=F BraDBF=F KetDBF=F FulRan=T
         wScrn=  0.000000 ICntrl=       600 IOpCl=  0 I1Cent=           0 NGrid=           0
         NMat0=    1 NMatS0=  19503 NMatT0=    0 NMatD0=    1 NMtDS0=    0 NMtDT0=    0
 Symmetry not used in FoFCou.
 Two-electron integral symmetry not used.
 CIDS: In Core Option IDoMem=           1.
 MP4(SDTQ)
 =========
 Produce multiple copies of IABC intergrals
 DD1Dir will call FoFMem   1 times, MxPair=        56
 NAB=    28 NAA=     0 NBB=     0.
 MP4(D)= -0.11216375D-01
 MP4(S)= -0.52146102D-02
 MP4(R+Q)=  0.10830455D-01
 T4(AAA)= -0.66531762D-03
 T4(AAB)= -0.10325822D-01
 Time for triples=      373.23 seconds.
 MP4(T)=   -0.21982278D-01
 E3=       -0.20570581D-02        EUMP3=      -0.15133851592D+03
 E4(DQ)=   -0.38592012D-03        UMP4(DQ)=   -0.15133890184D+03
 E4(SDQ)=  -0.56005303D-02        UMP4(SDQ)=  -0.15134411645D+03
 E4(SDTQ)= -0.27582809D-01        UMP4(SDTQ)= -0.15136609873D+03
 VARIATIONAL ENERGIES WITH THE FIRST-ORDER WAVEFUNCTION:
 E(VAR1)=  -0.15128165569D+03     E(CISD,4)=  -0.15129120815D+03
 Largest amplitude= 3.97D-02
 Discarding MO integrals.
 Leave Link  913 at Fri Apr  3 15:46:27 2020, MaxMem=  2147483648 cpu:             431.4 elap:              27.0
 (Enter /usr/local/g16/g16/l601.exe)
 Copying SCF densities to generalized density rwf, IOpCl= 0 IROHF=0.

 **********************************************************************

            Population analysis using the SCF density.

 **********************************************************************

 Orbital symmetries:
       Occupied  (A) (A) (A) (A) (A) (A) (A) (A) (A)
       Virtual   (A) (A) (A) (A) (A) (A) (A) (A) (A) (A) (A) (A)
                 (A) (A) (A) (A) (A) (A) (A) (A) (A) (A) (A) (A)
                 (A) (A) (A) (A) (A) (A) (A) (A) (A) (A) (A) (A)
                 (A) (A) (A) (A) (A) (A) (A) (A) (A) (A) (A) (A)
                 (A) (A) (A) (A) (A) (A) (A) (A) (A) (A) (A) (A)
                 (A) (A) (A) (A) (A) (A) (A) (A) (A) (A) (A) (A)
                 (A) (A) (A) (A) (A) (A) (A) (A) (A) (A) (A) (A)
                 (A) (A) (A) (A) (A) (A) (A) (A) (A) (A) (A) (A)
                 (A) (A) (A) (A) (A) (A) (A) (A) (A) (A) (A) (A)
                 (A) (A) (A) (A) (A) (A) (A) (A) (A) (A) (A) (A)
                 (A) (A) (A) (A) (A) (A) (A) (A) (A) (A) (A) (A)
                 (A) (A) (A) (A) (A) (A) (A) (A) (A) (A) (A) (A)
                 (A) (A) (A) (A) (A) (A) (A) (A) (A) (A) (A) (A)
                 (A) (A) (A) (A) (A) (A) (A) (A) (A) (A) (A) (A)
                 (A) (A) (A) (A) (A) (A) (A) (A) (A) (A) (A) (A)
                 (A) (A) (A) (A) (A) (A) (A) (A)
 The electronic state is 1-A.
 Alpha  occ. eigenvalues --  -20.63484 -20.63457  -1.47312  -1.22049  -0.76892
 Alpha  occ. eigenvalues --   -0.63746  -0.59965  -0.57229  -0.46454
 Alpha virt. eigenvalues --    0.02134   0.04120   0.07239   0.07726   0.09861
 Alpha virt. eigenvalues --    0.10264   0.14055   0.16811   0.17644   0.18409
 Alpha virt. eigenvalues --    0.19177   0.20485   0.22776   0.26784   0.27726
 Alpha virt. eigenvalues --    0.28284   0.29394   0.29658   0.32506   0.35454
 Alpha virt. eigenvalues --    0.35868   0.36225   0.38864   0.42132   0.44480
 Alpha virt. eigenvalues --    0.45506   0.46510   0.48161   0.51267   0.54408
 Alpha virt. eigenvalues --    0.56744   0.59295   0.62735   0.67286   0.70860
 Alpha virt. eigenvalues --    0.73642   0.75827   0.80507   0.81004   0.84783
 Alpha virt. eigenvalues --    0.87261   0.88571   0.91005   0.92081   0.94389
 Alpha virt. eigenvalues --    0.97244   1.00102   1.00522   1.02210   1.04588
 Alpha virt. eigenvalues --    1.05516   1.06713   1.11185   1.12951   1.14014
 Alpha virt. eigenvalues --    1.14744   1.19429   1.24985   1.26559   1.28702
 Alpha virt. eigenvalues --    1.30695   1.31119   1.32929   1.34083   1.34939
 Alpha virt. eigenvalues --    1.36500   1.40214   1.41367   1.47910   1.50635
 Alpha virt. eigenvalues --    1.54344   1.55876   1.59051   1.63246   1.64021
 Alpha virt. eigenvalues --    1.67687   1.70546   1.76062   1.81343   1.84128
 Alpha virt. eigenvalues --    1.89229   1.97199   2.06200   2.10044   2.16122
 Alpha virt. eigenvalues --    2.20355   2.29005   2.32646   2.37428   2.38781
 Alpha virt. eigenvalues --    2.41394   2.48049   2.48195   2.48853   2.55876
 Alpha virt. eigenvalues --    2.61125   2.67900   2.70163   2.80186   2.81911
 Alpha virt. eigenvalues --    2.83987   2.86221   3.02280   3.09071   3.09587
 Alpha virt. eigenvalues --    3.23229   3.25456   3.29431   3.30650   3.35484
 Alpha virt. eigenvalues --    3.43983   3.60578   3.71757   3.77498   3.79935
 Alpha virt. eigenvalues --    3.80213   3.82623   3.82697   3.83808   3.91074
 Alpha virt. eigenvalues --    3.92297   3.96640   3.98522   4.01186   4.09868
 Alpha virt. eigenvalues --    4.16853   4.19173   4.22298   4.26787   4.33085
 Alpha virt. eigenvalues --    4.37199   4.40947   4.42701   4.47150   4.50389
 Alpha virt. eigenvalues --    4.71470   4.76773   4.81483   5.00360   5.21597
 Alpha virt. eigenvalues --    5.25430   5.31552   5.35004   5.37316   5.43072
 Alpha virt. eigenvalues --    5.85740   6.15057   6.34595   6.38860   6.44839
 Alpha virt. eigenvalues --    6.69135   6.70828   6.81924   6.91666   7.03268
 Alpha virt. eigenvalues --    7.10965   7.14613   7.18668   7.18864   7.24250
 Alpha virt. eigenvalues --    7.26106   7.27562   7.30053   7.45889   7.52949
 Alpha virt. eigenvalues --    7.56977   7.65455   7.73255   7.96667   8.38128
 Alpha virt. eigenvalues --    8.42155   8.57922  11.07882  14.44554  14.80882
 Alpha virt. eigenvalues --   14.93514  15.09431  15.38792  29.01432  29.02121
 Alpha virt. eigenvalues --   29.05965  29.19870  29.23091  49.22488 148.29104
 Alpha virt. eigenvalues --  148.47964 148.71592 752.96158
          Condensed to atoms (all electrons):
               1          2          3          4          5
     1  O    8.128235  -0.111093   0.224757   0.016121   0.003284
     2  O   -0.111093   8.120304   0.020893   0.233108   0.000683
     3  H    0.224757   0.020893   0.505984  -0.010535  -0.003122
     4  H    0.016121   0.233108  -0.010535   0.502849  -0.004347
     5  Kr   0.003284   0.000683  -0.003122  -0.004347   0.003130
 Mulliken charges:
               1
     1  O   -0.261305
     2  O   -0.263895
     3  H    0.262023
     4  H    0.262804
     5  Kr   0.000373
 Sum of Mulliken charges =  -0.00000
 Mulliken charges with hydrogens summed into heavy atoms:
               1
     1  O    0.000718
     2  O   -0.001091
     5  Kr   0.000373
         Mulliken charges condensed to fragments:
      1     -0.000373
      2      0.000373
 Electronic spatial extent (au):  <R**2>=            316.5826
 Charge=             -0.0000 electrons
 Dipole moment (field-independent basis, Debye):
    X=              3.1710    Y=             -0.0199    Z=              0.5703  Tot=              3.2220
 Quadrupole moment (field-independent basis, Debye-Ang):
   XX=            -21.6442   YY=            -10.4147   ZZ=            -12.6688
   XY=              0.1507   XZ=             -0.4794   YZ=             -0.6431
 Traceless Quadrupole moment (field-independent basis, Debye-Ang):
   XX=             -6.7350   YY=              4.4945   ZZ=              2.2404
   XY=              0.1507   XZ=             -0.4794   YZ=             -0.6431
 Octapole moment (field-independent basis, Debye-Ang**2):
  XXX=             93.2555  YYY=             -0.1146  ZZZ=              0.0576  XYY=             24.4614
  XXY=             -0.2866  XXZ=              0.1049  XZZ=             24.9931  YZZ=             -0.2228
  YYZ=              0.7341  XYZ=              0.7112
 Hexadecapole moment (field-independent basis, Debye-Ang**3):
 XXXX=           -337.9345 YYYY=            -44.3309 ZZZZ=            -10.4960 XXXY=              0.2976
 XXXZ=              0.8257 YYYX=              0.2632 YYYZ=             -0.8796 ZZZX=             -0.2742
 ZZZY=             -0.3794 XXYY=            -63.5048 XXZZ=            -53.0467 YYZZ=            -10.8215
 XXYZ=             -0.7923 YYXZ=             -0.8453 ZZXY=              0.2754
 N-N= 3.666366833966D+01 E-N=-4.315179173375D+02  KE= 1.505450808941D+02
 Leave Link  601 at Fri Apr  3 15:46:27 2020, MaxMem=  2147483648 cpu:               0.5 elap:               0.0
 (Enter /usr/local/g16/g16/l122.exe)
 CPIOFr:  IOpCl= 0 IRwI=-1 IRwCP=  731 ICalc=  1 LCPTot=       59414 Len1MO=      159453 IndFrg=      378320
 Counterpoise: doing calculation for fragment   2 using the basis set of the full-system, NewBq=T
 Leave Link  122 at Fri Apr  3 15:46:27 2020, MaxMem=  2147483648 cpu:               0.0 elap:               0.0
 (Enter /usr/local/g16/g16/l301.exe)
 Basis read from rwf:  (5D, 7F)
 No pseudopotential information found on rwf file.
 There are   229 symmetry adapted cartesian basis functions of A   symmetry.
 There are   197 symmetry adapted basis functions of A   symmetry.
   197 basis functions,   415 primitive gaussians,   229 cartesian basis functions
    18 alpha electrons       18 beta electrons
       nuclear repulsion energy         0.0000000000 Hartrees.
 IExCor=    0 DFT=F Ex=HF Corr=None ExCW=0 ScaHFX=  1.000000
 ScaDFX=  1.000000  1.000000  1.000000  1.000000 ScalE2=  1.000000  1.000000
 IRadAn=      5 IRanWt=     -1 IRanGd=            0 ICorTp=0 IEmpDi=  4
 NAtoms=    5 NActive=    5 NUniq=    5 SFac= 1.00D+00 NAtFMM=   60 NAOKFM=F Big=F
 Integral buffers will be    131072 words long.
 Raffenetti 1 integral format.
 Two-electron integral symmetry is turned on.
 No density basis found on file   718.
 Leave Link  301 at Fri Apr  3 15:46:27 2020, MaxMem=  2147483648 cpu:               0.4 elap:               0.0
 (Enter /usr/local/g16/g16/l302.exe)
 NPDir=0 NMtPBC=     1 NCelOv=     1 NCel=       1 NClECP=     1 NCelD=      1
         NCelK=      1 NCelE2=     1 NClLst=     1 CellRange=     0.0.
 One-electron integrals computed using PRISM.
 One-electron integral symmetry used in STVInt
 NBasis=   197 RedAO= T EigKep=  1.58D-04  NBF=   197
 NBsUse=   197 1.00D-06 EigRej= -1.00D+00 NBFU=   197
 Leave Link  302 at Fri Apr  3 15:46:27 2020, MaxMem=  2147483648 cpu:               1.8 elap:               0.1
 (Enter /usr/local/g16/g16/l303.exe)
 DipDrv:  MaxL=1.
 Leave Link  303 at Fri Apr  3 15:46:27 2020, MaxMem=  2147483648 cpu:               0.5 elap:               0.0
 (Enter /usr/local/g16/g16/l401.exe)
 ExpMin= 2.53D-02 ExpMax= 1.17D+07 ExpMxC= 1.33D+04 IAcc=3 IRadAn=         5 AccDes= 0.00D+00
 Harris functional with IExCor=  205 and IRadAn=       5 diagonalized for initial guess.
 HarFok:  IExCor=  205 AccDes= 0.00D+00 IRadAn=         5 IDoV= 1 UseB2=F ITyADJ=14
 ICtDFT=  3500011 ScaDFX=  1.000000  1.000000  1.000000  1.000000
 FoFCou: FMM=F IPFlag=           0 FMFlag=      100000 FMFlg1=           0
         NFxFlg=           0 DoJE=T BraDBF=F KetDBF=T FulRan=T
         wScrn=  0.000000 ICntrl=       500 IOpCl=  0 I1Cent=   200000004 NGrid=           0
         NMat0=    1 NMatS0=      1 NMatT0=    0 NMatD0=    1 NMtDS0=    0 NMtDT0=    0
 Petite list used in FoFCou.
 Harris En= -2751.06020480112    
 JPrj=0 DoOrth=F DoCkMO=F.
 Leave Link  401 at Fri Apr  3 15:46:28 2020, MaxMem=  2147483648 cpu:               2.9 elap:               0.2
 (Enter /usr/local/g16/g16/l502.exe)
 Keep R1 ints in memory in canonical form, NReq=203139974.
 FoFCou: FMM=F IPFlag=           0 FMFlag=           0 FMFlg1=           0
         NFxFlg=           0 DoJE=F BraDBF=F KetDBF=F FulRan=T
         wScrn=  0.000000 ICntrl=       600 IOpCl=  0 I1Cent=           0 NGrid=           0
         NMat0=    1 NMatS0=  19503 NMatT0=    0 NMatD0=    1 NMtDS0=    0 NMtDT0=    0
 Symmetry not used in FoFCou.
 Two-electron integral symmetry not used.
 Closed shell SCF:
 Using DIIS extrapolation, IDIIS=  1040.
 NGot=  2147483648 LenX=  1957179903 LenY=  1957127021
 Requested convergence on RMS density matrix=1.00D-08 within 128 cycles.
 Requested convergence on MAX density matrix=1.00D-06.
 Requested convergence on             energy=1.00D-06.
 No special actions if energy rises.

 Cycle   1  Pass 1  IDiag  1:
 E= -2752.00345225222    
 DIIS: error= 6.02D-02 at cycle   1 NSaved=   1.
 NSaved= 1 IEnMin= 1 EnMin= -2752.00345225222     IErMin= 1 ErrMin= 6.02D-02
 ErrMax= 6.02D-02  0.00D+00 EMaxC= 1.00D-01 BMatC= 4.34D-01 BMatP= 4.34D-01
 IDIUse=3 WtCom= 3.98D-01 WtEn= 6.02D-01
 Coeff-Com:  0.100D+01
 Coeff-En:   0.100D+01
 Coeff:      0.100D+01
 Gap=     0.630 Goal=   None    Shift=    0.000
 GapD=    0.630 DampG=2.000 DampE=0.500 DampFc=1.0000 IDamp=-1.
 RMSDP=1.80D-03 MaxDP=1.33D-01              OVMax= 2.38D-02

 Cycle   2  Pass 1  IDiag  1:
 E= -2752.04695842301     Delta-E=       -0.043506170792 Rises=F Damp=F
 DIIS: error= 7.16D-03 at cycle   2 NSaved=   2.
 NSaved= 2 IEnMin= 2 EnMin= -2752.04695842301     IErMin= 2 ErrMin= 7.16D-03
 ErrMax= 7.16D-03  0.00D+00 EMaxC= 1.00D-01 BMatC= 1.99D-02 BMatP= 4.34D-01
 IDIUse=3 WtCom= 9.28D-01 WtEn= 7.16D-02
 Coeff-Com:  0.152D+00 0.848D+00
 Coeff-En:   0.000D+00 0.100D+01
 Coeff:      0.141D+00 0.859D+00
 Gap=     0.545 Goal=   None    Shift=    0.000
 RMSDP=5.91D-04 MaxDP=3.61D-02 DE=-4.35D-02 OVMax= 1.31D-02

 Cycle   3  Pass 1  IDiag  1:
 E= -2752.05206120902     Delta-E=       -0.005102786010 Rises=F Damp=F
 DIIS: error= 1.29D-03 at cycle   3 NSaved=   3.
 NSaved= 3 IEnMin= 3 EnMin= -2752.05206120902     IErMin= 3 ErrMin= 1.29D-03
 ErrMax= 1.29D-03  0.00D+00 EMaxC= 1.00D-01 BMatC= 7.27D-04 BMatP= 1.99D-02
 IDIUse=3 WtCom= 9.87D-01 WtEn= 1.29D-02
 Coeff-Com: -0.132D-02 0.156D+00 0.846D+00
 Coeff-En:   0.000D+00 0.000D+00 0.100D+01
 Coeff:     -0.130D-02 0.154D+00 0.848D+00
 Gap=     0.556 Goal=   None    Shift=    0.000
 RMSDP=7.73D-05 MaxDP=4.53D-03 DE=-5.10D-03 OVMax= 2.90D-03

 Cycle   4  Pass 1  IDiag  1:
 E= -2752.05227586723     Delta-E=       -0.000214658206 Rises=F Damp=F
 DIIS: error= 5.01D-05 at cycle   4 NSaved=   4.
 NSaved= 4 IEnMin= 4 EnMin= -2752.05227586723     IErMin= 4 ErrMin= 5.01D-05
 ErrMax= 5.01D-05  0.00D+00 EMaxC= 1.00D-01 BMatC= 7.30D-07 BMatP= 7.27D-04
 IDIUse=1 WtCom= 1.00D+00 WtEn= 0.00D+00
 Coeff-Com: -0.356D-03-0.173D-01-0.571D-01 0.107D+01
 Coeff:     -0.356D-03-0.173D-01-0.571D-01 0.107D+01
 Gap=     0.555 Goal=   None    Shift=    0.000
 RMSDP=6.19D-06 MaxDP=2.89D-04 DE=-2.15D-04 OVMax= 2.70D-04

 Cycle   5  Pass 1  IDiag  1:
 E= -2752.05227630319     Delta-E=       -0.000000435961 Rises=F Damp=F
 DIIS: error= 3.05D-06 at cycle   5 NSaved=   5.
 NSaved= 5 IEnMin= 5 EnMin= -2752.05227630319     IErMin= 5 ErrMin= 3.05D-06
 ErrMax= 3.05D-06  0.00D+00 EMaxC= 1.00D-01 BMatC= 6.16D-09 BMatP= 7.30D-07
 IDIUse=1 WtCom= 1.00D+00 WtEn= 0.00D+00
 Coeff-Com:  0.611D-04-0.131D-04-0.530D-02-0.851D-01 0.109D+01
 Coeff:      0.611D-04-0.131D-04-0.530D-02-0.851D-01 0.109D+01
 Gap=     0.555 Goal=   None    Shift=    0.000
 RMSDP=6.99D-07 MaxDP=2.96D-05 DE=-4.36D-07 OVMax= 2.80D-05

 Cycle   6  Pass 1  IDiag  1:
 E= -2752.05227630916     Delta-E=       -0.000000005976 Rises=F Damp=F
 DIIS: error= 3.50D-07 at cycle   6 NSaved=   6.
 NSaved= 6 IEnMin= 6 EnMin= -2752.05227630916     IErMin= 6 ErrMin= 3.50D-07
 ErrMax= 3.50D-07  0.00D+00 EMaxC= 1.00D-01 BMatC= 4.29D-11 BMatP= 6.16D-09
 IDIUse=1 WtCom= 1.00D+00 WtEn= 0.00D+00
 Coeff-Com: -0.289D-05 0.102D-03 0.869D-03-0.218D-02-0.911D-01 0.109D+01
 Coeff:     -0.289D-05 0.102D-03 0.869D-03-0.218D-02-0.911D-01 0.109D+01
 Gap=     0.555 Goal=   None    Shift=    0.000
 RMSDP=6.55D-08 MaxDP=3.76D-06 DE=-5.98D-09 OVMax= 3.35D-06

 Cycle   7  Pass 1  IDiag  1:
 E= -2752.05227630920     Delta-E=       -0.000000000041 Rises=F Damp=F
 DIIS: error= 2.72D-08 at cycle   7 NSaved=   7.
 NSaved= 7 IEnMin= 7 EnMin= -2752.05227630920     IErMin= 7 ErrMin= 2.72D-08
 ErrMax= 2.72D-08  0.00D+00 EMaxC= 1.00D-01 BMatC= 1.97D-13 BMatP= 4.29D-11
 IDIUse=1 WtCom= 1.00D+00 WtEn= 0.00D+00
 Coeff-Com: -0.154D-06 0.226D-05 0.222D-04 0.151D-03-0.319D-02 0.214D-02
 Coeff-Com:  0.100D+01
 Coeff:     -0.154D-06 0.226D-05 0.222D-04 0.151D-03-0.319D-02 0.214D-02
 Coeff:      0.100D+01
 Gap=     0.555 Goal=   None    Shift=    0.000
 RMSDP=5.36D-09 MaxDP=1.94D-07 DE=-4.09D-11 OVMax= 2.70D-07

 SCF Done:  E(RHF) =  -2752.05227631     A.U. after    7 cycles
            NFock=  7  Conv=0.54D-08     -V/T= 2.0000
 KE= 2.752037444042D+03 PE=-6.582551661420D+03 EE= 1.078461941069D+03
 Leave Link  502 at Fri Apr  3 15:46:30 2020, MaxMem=  2147483648 cpu:              26.1 elap:               2.7
 (Enter /usr/local/g16/g16/l801.exe)
 Windowed orbitals will be sorted by symmetry type.
 ExpMin= 2.53D-02 ExpMax= 1.17D+07 ExpMxC= 1.33D+04 IAcc=3 IRadAn=         5 AccDes= 0.00D+00
 HarFok:  IExCor=  205 AccDes= 0.00D+00 IRadAn=         5 IDoV=-2 UseB2=F ITyADJ=14
 ICtDFT= 12500011 ScaDFX=  1.000000  1.000000  1.000000  1.000000
 DSYEVD-2 returned Info=          89 IAlg= 4 N=    59 NDim=    59 NE2=    36395833 trying  DSYEV.
 Largest valence mixing into a core orbital is  9.81D-05
 Largest core mixing into a valence orbital is  3.83D-05
 Range of M.O.s used for correlation:    10   197
 NBasis=   197 NAE=    18 NBE=    18 NFC=     9 NFV=     0
 NROrb=    188 NOA=     9 NOB=     9 NVA=   179 NVB=   179

 **** Warning!!: The largest alpha MO coefficient is  0.16138834D+02

 Leave Link  801 at Fri Apr  3 15:46:31 2020, MaxMem=  2147483648 cpu:               0.6 elap:               0.0
 (Enter /usr/local/g16/g16/l804.exe)
 Closed-shell transformation, MDV=  2147483648 ITran=4 ISComp=1.
 Semi-Direct transformation.
 ModeAB=           2 MOrb=             9 LenV=    2146333190
 LASXX=     28892340 LTotXX=    28892340 LenRXX=    28892340
 LTotAB=    29348001 MaxLAS=    44558820 LenRXY=    44558820
 NonZer=    57784680 LenScr=    87449600 LnRSAI=           0
 LnScr1=           0 LExtra=           0 Total=    160900760
 MaxDsk=          -1 SrtSym=           F ITran=            4
 DoSDTr:  NPSUse= 16
 JobTyp=0 Pass  1:  I=   1 to   9.
 (rs|ai) integrals will be sorted in core.
 Complete sort for first half transformation.
 First half transformation complete.
 Complete sort for second half transformation.
 Second half transformation complete.
 SymMOI:  orbitals are not symmetric.
 Spin components of T(2) and E(2):
     alpha-alpha T2 =       0.9509125414D-02 E2=     -0.3589341813D-01
     alpha-beta  T2 =       0.4825336863D-01 E2=     -0.1728492014D+00
     beta-beta   T2 =       0.9509125414D-02 E2=     -0.3589341813D-01
 ANorm=    0.1033088389D+01
 E2 =    -0.2446360376D+00 EUMP2 =    -0.27522969123469D+04
 Leave Link  804 at Fri Apr  3 15:46:39 2020, MaxMem=  2147483648 cpu:             137.4 elap:               8.6
 (Enter /usr/local/g16/g16/l913.exe)
 CIDS:  MDV=  2147483648.
 Frozen-core window:  NFC=   9 NFV=   0.
 IFCWin=0 IBDFC=1 NFBD=     0     0 NFCmp=     0     0 NFFFC=     0     0
 Using DD3R+UMP44R for 1st iteration.
 Using DD4RQ for 2nd and later iterations.
 Keep R2 and R3 ints in memory in canonical form, NReq=393339241.
 FoFCou: FMM=F IPFlag=           0 FMFlag=           0 FMFlg1=           0
         NFxFlg=           0 DoJE=F BraDBF=F KetDBF=F FulRan=T
         wScrn=  0.000000 ICntrl=       600 IOpCl=  0 I1Cent=           0 NGrid=           0
         NMat0=    1 NMatS0=  19503 NMatT0=    0 NMatD0=    1 NMtDS0=    0 NMtDT0=    0
 Symmetry not used in FoFCou.
 Two-electron integral symmetry not used.
 CIDS: In Core Option IDoMem=           1.
 MP4(SDTQ)
 =========
 Produce multiple copies of IABC intergrals
 DD1Dir will call FoFMem   1 times, MxPair=        90
 NAB=    45 NAA=     0 NBB=     0.
 MP4(D)= -0.37338954D-02
 MP4(S)= -0.10940845D-02
 MP4(R+Q)=  0.42630805D-02
 T4(AAA)= -0.32654822D-03
 T4(AAB)= -0.35775469D-02
 Time for triples=      482.63 seconds.
 MP4(T)=   -0.78081903D-02
 E3=       -0.98446737D-02        EUMP3=      -0.27523067570D+04
 E4(DQ)=    0.52918511D-03        UMP4(DQ)=   -0.27523062278D+04
 E4(SDQ)=  -0.56489942D-03        UMP4(SDQ)=  -0.27523073219D+04
 E4(SDTQ)= -0.83730898D-02        UMP4(SDTQ)= -0.27523151301D+04
 VARIATIONAL ENERGIES WITH THE FIRST-ORDER WAVEFUNCTION:
 E(VAR1)=  -0.27522907167D+04     E(CISD,4)=  -0.27522951279D+04
 Largest amplitude= 1.40D-02
 Discarding MO integrals.
 Leave Link  913 at Fri Apr  3 15:47:14 2020, MaxMem=  2147483648 cpu:             551.1 elap:              34.5
 (Enter /usr/local/g16/g16/l601.exe)
 Copying SCF densities to generalized density rwf, IOpCl= 0 IROHF=0.

 **********************************************************************

            Population analysis using the SCF density.

 **********************************************************************

 Orbital symmetries:
       Occupied  (A) (A) (A) (A) (A) (A) (A) (A) (A) (A) (A) (A)
                 (A) (A) (A) (A) (A) (A)
       Virtual   (A) (A) (A) (A) (A) (A) (A) (A) (A) (A) (A) (A)
                 (A) (A) (A) (A) (A) (A) (A) (A) (A) (A) (A) (A)
                 (A) (A) (A) (A) (A) (A) (A) (A) (A) (A) (A) (A)
                 (A) (A) (A) (A) (A) (A) (A) (A) (A) (A) (A) (A)
                 (A) (A) (A) (A) (A) (A) (A) (A) (A) (A) (A) (A)
                 (A) (A) (A) (A) (A) (A) (A) (A) (A) (A) (A) (A)
                 (A) (A) (A) (A) (A) (A) (A) (A) (A) (A) (A) (A)
                 (A) (A) (A) (A) (A) (A) (A) (A) (A) (A) (A) (A)
                 (A) (A) (A) (A) (A) (A) (A) (A) (A) (A) (A) (A)
                 (A) (A) (A) (A) (A) (A) (A) (A) (A) (A) (A) (A)
                 (A) (A) (A) (A) (A) (A) (A) (A) (A) (A) (A) (A)
                 (A) (A) (A) (A) (A) (A) (A) (A) (A) (A) (A) (A)
                 (A) (A) (A) (A) (A) (A) (A) (A) (A) (A) (A) (A)
                 (A) (A) (A) (A) (A) (A) (A) (A) (A) (A) (A) (A)
                 (A) (A) (A) (A) (A) (A) (A) (A) (A) (A) (A)
 The electronic state is 1-A.
 Alpha  occ. eigenvalues -- -520.16588 -69.90320 -63.00978 -63.00978 -63.00978
 Alpha  occ. eigenvalues --  -10.84955  -8.33155  -8.33155  -8.33154  -3.82533
 Alpha  occ. eigenvalues --   -3.82533  -3.82532  -3.82531  -3.82530  -1.15310
 Alpha  occ. eigenvalues --   -0.52430  -0.52429  -0.52428
 Alpha virt. eigenvalues --    0.03122   0.04943   0.08682   0.09821   0.12217
 Alpha virt. eigenvalues --    0.13428   0.13887   0.14075   0.15916   0.17282
 Alpha virt. eigenvalues --    0.17861   0.18517   0.21808   0.27613   0.28724
 Alpha virt. eigenvalues --    0.28916   0.30266   0.33340   0.34409   0.38962
 Alpha virt. eigenvalues --    0.39604   0.40119   0.40798   0.41742   0.42783
 Alpha virt. eigenvalues --    0.43069   0.47583   0.56018   0.58136   0.62286
 Alpha virt. eigenvalues --    0.63722   0.65361   0.70054   0.71682   0.73584
 Alpha virt. eigenvalues --    0.74892   0.76916   0.79388   0.80228   0.80815
 Alpha virt. eigenvalues --    0.82554   0.86421   0.87771   0.88912   0.90593
 Alpha virt. eigenvalues --    0.91155   0.92821   0.93025   0.96842   1.00933
 Alpha virt. eigenvalues --    1.01959   1.03135   1.03771   1.04881   1.08051
 Alpha virt. eigenvalues --    1.09024   1.10968   1.13544   1.19621   1.20194
 Alpha virt. eigenvalues --    1.23639   1.25799   1.34692   1.36361   1.42398
 Alpha virt. eigenvalues --    1.45162   1.47055   1.50059   1.51792   1.55380
 Alpha virt. eigenvalues --    1.63451   1.64875   1.67544   1.76314   1.77097
 Alpha virt. eigenvalues --    1.82238   1.88174   1.90136   1.94270   2.24365
 Alpha virt. eigenvalues --    2.24792   2.36789   2.36997   2.37997   2.40508
 Alpha virt. eigenvalues --    2.43690   2.47616   2.49164   2.50053   2.53015
 Alpha virt. eigenvalues --    2.55634   2.56277   2.57611   2.61907   2.63245
 Alpha virt. eigenvalues --    2.64022   2.65435   2.66490   2.71438   2.71569
 Alpha virt. eigenvalues --    2.72133   2.74393   2.78923   2.81777   2.82775
 Alpha virt. eigenvalues --    2.83984   2.88158   2.94558   2.96327   3.01064
 Alpha virt. eigenvalues --    3.02528   3.05426   3.08620   3.14526   3.22261
 Alpha virt. eigenvalues --    3.26857   3.28437   3.30434   3.42986   3.53165
 Alpha virt. eigenvalues --    3.62519   3.66089   3.87543   3.88394   4.02538
 Alpha virt. eigenvalues --    4.46869   4.52583   4.53852   4.61856   4.73011
 Alpha virt. eigenvalues --    4.79284   4.87490   4.91344   5.01233   5.04642
 Alpha virt. eigenvalues --    5.23494   5.29715   5.56155   5.65660   5.71315
 Alpha virt. eigenvalues --    5.98146   6.02146   6.22533   6.73545   6.93548
 Alpha virt. eigenvalues --    7.30016   7.37285   7.66150   7.67648   7.79157
 Alpha virt. eigenvalues --    7.87254   8.02463   8.13460   8.17829   8.27470
 Alpha virt. eigenvalues --    8.27895   8.39701   8.70326   9.00362   9.50370
 Alpha virt. eigenvalues --    9.73181   9.79544   9.90256   9.91827   9.94682
 Alpha virt. eigenvalues --   10.20555  10.22353  10.69607  10.88544  11.48748
 Alpha virt. eigenvalues --   11.63248  11.69360  11.94913  12.04732  13.27607
 Alpha virt. eigenvalues --   13.60605  14.55168  62.36585  64.76971
          Condensed to atoms (all electrons):
               1          2          3          4          5
     1  O    0.000684  -0.000106  -0.000618   0.000158  -0.003135
     2  O   -0.000106   0.000888   0.000121  -0.000759  -0.002178
     3  H   -0.000618   0.000121   0.000786  -0.000173  -0.005415
     4  H    0.000158  -0.000759  -0.000173   0.000930  -0.007725
     5  Kr  -0.003135  -0.002178  -0.005415  -0.007725  36.036373
 Mulliken charges:
               1
     1  O    0.003017
     2  O    0.002034
     3  H    0.005300
     4  H    0.007569
     5  Kr  -0.017920
 Sum of Mulliken charges =  -0.00000
 Mulliken charges with hydrogens summed into heavy atoms:
               1
     1  O    0.008317
     2  O    0.009603
     5  Kr  -0.017920
         Mulliken charges condensed to fragments:
      1      0.017920
      2     -0.017920
 Electronic spatial extent (au):  <R**2>=            159.7669
 Charge=             -0.0000 electrons
 Dipole moment (field-independent basis, Debye):
    X=             -0.0013    Y=              0.0001    Z=              0.0000  Tot=              0.0013
 Quadrupole moment (field-independent basis, Debye-Ang):
   XX=            -17.7281   YY=            -17.7308   ZZ=            -17.7362
   XY=             -0.0004   XZ=             -0.0011   YZ=             -0.0007
 Traceless Quadrupole moment (field-independent basis, Debye-Ang):
   XX=              0.0036   YY=              0.0009   ZZ=             -0.0045
   XY=             -0.0004   XZ=             -0.0011   YZ=             -0.0007
 Octapole moment (field-independent basis, Debye-Ang**2):
  XXX=            -51.4292  YYY=              0.0285  ZZZ=              0.1255  XYY=            -17.1493
  XXY=              0.0086  XXZ=              0.0399  XZZ=            -17.1542  YZZ=              0.0098
  YYZ=              0.0418  XYZ=             -0.0004
 Hexadecapole moment (field-independent basis, Debye-Ang**3):
 XXXX=           -117.9947 YYYY=            -18.5378 ZZZZ=            -18.5576 XXXY=              0.0255
 XXXZ=              0.1175 YYYX=              0.0263 YYYZ=             -0.0003 ZZZX=              0.1175
 ZZZY=             -0.0019 XXYY=            -22.7604 XXZZ=            -22.7679 YYZZ=             -6.1815
 XXYZ=             -0.0006 YYXZ=              0.0395 ZZXY=              0.0085
 N-N= 0.000000000000D+00 E-N=-6.582551662548D+03  KE= 2.752037444042D+03
 Leave Link  601 at Fri Apr  3 15:47:14 2020, MaxMem=  2147483648 cpu:               0.7 elap:               0.1
 (Enter /usr/local/g16/g16/l122.exe)
 CPIOFr:  IOpCl= 0 IRwI=-1 IRwCP=  731 ICalc=  2 LCPTot=       59414 Len1MO=      159453 IndFrg=      537773
 Counterpoise: doing calculation for fragment   1 using the basis set of the fragment.
 Leave Link  122 at Fri Apr  3 15:47:14 2020, MaxMem=  2147483648 cpu:               0.0 elap:               0.0
 (Enter /usr/local/g16/g16/l301.exe)
 Basis read from rwf:  (5D, 7F)
 No pseudopotential information found on rwf file.
 There are   160 symmetry adapted cartesian basis functions of A   symmetry.
 There are   138 symmetry adapted basis functions of A   symmetry.
   138 basis functions,   198 primitive gaussians,   160 cartesian basis functions
     9 alpha electrons        9 beta electrons
       nuclear repulsion energy        36.6636683397 Hartrees.
 IExCor=    0 DFT=F Ex=HF Corr=None ExCW=0 ScaHFX=  1.000000
 ScaDFX=  1.000000  1.000000  1.000000  1.000000 ScalE2=  1.000000  1.000000
 IRadAn=      5 IRanWt=     -1 IRanGd=            0 ICorTp=0 IEmpDi=  4
 NAtoms=    5 NActive=    4 NUniq=    4 SFac= 1.00D+00 NAtFMM=   60 NAOKFM=F Big=F
 Integral buffers will be    131072 words long.
 Raffenetti 1 integral format.
 Two-electron integral symmetry is turned on.
 No density basis found on file   718.
 Leave Link  301 at Fri Apr  3 15:47:14 2020, MaxMem=  2147483648 cpu:               0.4 elap:               0.0
 (Enter /usr/local/g16/g16/l302.exe)
 NPDir=0 NMtPBC=     1 NCelOv=     1 NCel=       1 NClECP=     1 NCelD=      1
         NCelK=      1 NCelE2=     1 NClLst=     1 CellRange=     0.0.
 One-electron integrals computed using PRISM.
 One-electron integral symmetry used in STVInt
 NBasis=   138 RedAO= T EigKep=  2.00D-04  NBF=   138
 NBsUse=   138 1.00D-06 EigRej= -1.00D+00 NBFU=   138
 Leave Link  302 at Fri Apr  3 15:47:14 2020, MaxMem=  2147483648 cpu:               1.4 elap:               0.1
 (Enter /usr/local/g16/g16/l303.exe)
 DipDrv:  MaxL=1.
 Leave Link  303 at Fri Apr  3 15:47:14 2020, MaxMem=  2147483648 cpu:               0.3 elap:               0.0
 (Enter /usr/local/g16/g16/l401.exe)
 ExpMin= 2.53D-02 ExpMax= 1.53D+04 ExpMxC= 5.22D+02 IAcc=3 IRadAn=         5 AccDes= 0.00D+00
 Harris functional with IExCor=  205 and IRadAn=       5 diagonalized for initial guess.
 HarFok:  IExCor=  205 AccDes= 0.00D+00 IRadAn=         5 IDoV= 1 UseB2=F ITyADJ=14
 ICtDFT=  3500011 ScaDFX=  1.000000  1.000000  1.000000  1.000000
 FoFCou: FMM=F IPFlag=           0 FMFlag=      100000 FMFlg1=           0
         NFxFlg=           0 DoJE=T BraDBF=F KetDBF=T FulRan=T
         wScrn=  0.000000 ICntrl=       500 IOpCl=  0 I1Cent=   200000004 NGrid=           0
         NMat0=    1 NMatS0=      1 NMatT0=    0 NMatD0=    1 NMtDS0=    0 NMtDT0=    0
 Petite list used in FoFCou.
 Harris En= -150.932663922325    
 JPrj=0 DoOrth=F DoCkMO=F.
 Leave Link  401 at Fri Apr  3 15:47:14 2020, MaxMem=  2147483648 cpu:               2.3 elap:               0.2
 (Enter /usr/local/g16/g16/l502.exe)
 Keep R1 ints in memory in canonical form, NReq=53860811.
 FoFCou: FMM=F IPFlag=           0 FMFlag=           0 FMFlg1=           0
         NFxFlg=           0 DoJE=F BraDBF=F KetDBF=F FulRan=T
         wScrn=  0.000000 ICntrl=       600 IOpCl=  0 I1Cent=           0 NGrid=           0
         NMat0=    1 NMatS0=   9591 NMatT0=    0 NMatD0=    1 NMtDS0=    0 NMtDT0=    0
 Symmetry not used in FoFCou.
 Two-electron integral symmetry not used.
 Closed shell SCF:
 Using DIIS extrapolation, IDIIS=  1040.
 NGot=  2147483648 LenX=  2101430001 LenY=  2101403960
 Requested convergence on RMS density matrix=1.00D-08 within 128 cycles.
 Requested convergence on MAX density matrix=1.00D-06.
 Requested convergence on             energy=1.00D-06.
 No special actions if energy rises.

 Cycle   1  Pass 1  IDiag  1:
 E= -150.762495003071    
 DIIS: error= 3.70D-02 at cycle   1 NSaved=   1.
 NSaved= 1 IEnMin= 1 EnMin= -150.762495003071     IErMin= 1 ErrMin= 3.70D-02
 ErrMax= 3.70D-02  0.00D+00 EMaxC= 1.00D-01 BMatC= 2.31D-01 BMatP= 2.31D-01
 IDIUse=3 WtCom= 6.30D-01 WtEn= 3.70D-01
 Coeff-Com:  0.100D+01
 Coeff-En:   0.100D+01
 Coeff:      0.100D+01
 Gap=     0.688 Goal=   None    Shift=    0.000
 GapD=    0.688 DampG=2.000 DampE=0.500 DampFc=1.0000 IDamp=-1.
 RMSDP=1.28D-03 MaxDP=2.89D-02              OVMax= 6.90D-02

 Cycle   2  Pass 1  IDiag  1:
 E= -150.817720773344     Delta-E=       -0.055225770274 Rises=F Damp=F
 DIIS: error= 1.31D-02 at cycle   2 NSaved=   2.
 NSaved= 2 IEnMin= 2 EnMin= -150.817720773344     IErMin= 2 ErrMin= 1.31D-02
 ErrMax= 1.31D-02  0.00D+00 EMaxC= 1.00D-01 BMatC= 1.79D-02 BMatP= 2.31D-01
 IDIUse=3 WtCom= 8.69D-01 WtEn= 1.31D-01
 Coeff-Com:  0.117D+00 0.883D+00
 Coeff-En:   0.000D+00 0.100D+01
 Coeff:      0.102D+00 0.898D+00
 Gap=     0.519 Goal=   None    Shift=    0.000
 RMSDP=7.86D-04 MaxDP=2.55D-02 DE=-5.52D-02 OVMax= 3.00D-02

 Cycle   3  Pass 1  IDiag  1:
 E= -150.826868765059     Delta-E=       -0.009147991715 Rises=F Damp=F
 DIIS: error= 4.55D-03 at cycle   3 NSaved=   3.
 NSaved= 3 IEnMin= 3 EnMin= -150.826868765059     IErMin= 3 ErrMin= 4.55D-03
 ErrMax= 4.55D-03  0.00D+00 EMaxC= 1.00D-01 BMatC= 2.64D-03 BMatP= 1.79D-02
 IDIUse=3 WtCom= 9.54D-01 WtEn= 4.55D-02
 Coeff-Com: -0.212D-01 0.256D+00 0.765D+00
 Coeff-En:   0.000D+00 0.000D+00 0.100D+01
 Coeff:     -0.202D-01 0.245D+00 0.775D+00
 Gap=     0.488 Goal=   None    Shift=    0.000
 RMSDP=1.84D-04 MaxDP=4.74D-03 DE=-9.15D-03 OVMax= 1.02D-02

 Cycle   4  Pass 1  IDiag  1:
 E= -150.828523791977     Delta-E=       -0.001655026918 Rises=F Damp=F
 DIIS: error= 4.29D-04 at cycle   4 NSaved=   4.
 NSaved= 4 IEnMin= 4 EnMin= -150.828523791977     IErMin= 4 ErrMin= 4.29D-04
 ErrMax= 4.29D-04  0.00D+00 EMaxC= 1.00D-01 BMatC= 1.74D-05 BMatP= 2.64D-03
 IDIUse=3 WtCom= 9.96D-01 WtEn= 4.29D-03
 Coeff-Com: -0.189D-02-0.121D-01 0.121D-01 0.100D+01
 Coeff-En:   0.000D+00 0.000D+00 0.000D+00 0.100D+01
 Coeff:     -0.188D-02-0.120D-01 0.121D-01 0.100D+01
 Gap=     0.490 Goal=   None    Shift=    0.000
 RMSDP=2.49D-05 MaxDP=4.47D-04 DE=-1.66D-03 OVMax= 1.28D-03

 Cycle   5  Pass 1  IDiag  1:
 E= -150.828547733145     Delta-E=       -0.000023941168 Rises=F Damp=F
 DIIS: error= 1.34D-04 at cycle   5 NSaved=   5.
 NSaved= 5 IEnMin= 5 EnMin= -150.828547733145     IErMin= 5 ErrMin= 1.34D-04
 ErrMax= 1.34D-04  0.00D+00 EMaxC= 1.00D-01 BMatC= 1.58D-06 BMatP= 1.74D-05
 IDIUse=3 WtCom= 9.99D-01 WtEn= 1.34D-03
 Coeff-Com:  0.176D-02-0.170D-01-0.593D-01-0.155D+00 0.123D+01
 Coeff-En:   0.000D+00 0.000D+00 0.000D+00 0.000D+00 0.100D+01
[...]
 Requested convergence on RMS density matrix=1.00D-08 within 128 cycles.
 Requested convergence on MAX density matrix=1.00D-06.
 Requested convergence on             energy=1.00D-06.
 No special actions if energy rises.

 Cycle   1  Pass 1  IDiag  1:
 E= -150.828551650208    
 DIIS: error= 6.54D-11 at cycle   1 NSaved=   1.
 NSaved= 1 IEnMin= 1 EnMin= -150.828551650208     IErMin= 1 ErrMin= 6.54D-11
 ErrMax= 6.54D-11  0.00D+00 EMaxC= 1.00D-01 BMatC= 4.58D-19 BMatP= 4.58D-19
 IDIUse=1 WtCom= 1.00D+00 WtEn= 0.00D+00
 Coeff-Com:  0.100D+01
 Coeff:      0.100D+01
 Gap=     0.857 Goal=   None    Shift=    0.000
 RMSDP=3.92D-12 MaxDP=1.21D-10              OVMax= 2.77D-10

 SCF Done:  E(RHF) =  -150.828551650     A.U. after    1 cycles
            NFock=  1  Conv=0.39D-11     -V/T= 2.0019
 KE= 1.505453587743D+02 PE=-4.315166993819D+02 EE= 9.347912061772D+01
 Leave Link  502 at Fri Apr  3 17:03:40 2020, MaxMem=  2147483648 cpu:               7.0 elap:               0.5
 (Enter /usr/local/g16/g16/l801.exe)
 Windowed orbitals will be sorted by symmetry type.
 ExpMin= 2.53D-02 ExpMax= 1.53D+04 ExpMxC= 5.22D+02 IAcc=3 IRadAn=         5 AccDes= 0.00D+00
 HarFok:  IExCor=  205 AccDes= 0.00D+00 IRadAn=         5 IDoV=-2 UseB2=F ITyADJ=14
 ICtDFT= 12500011 ScaDFX=  1.000000  1.000000  1.000000  1.000000
 Largest valence mixing into a core orbital is  1.19D-04
 Largest core mixing into a valence orbital is  2.08D-05
 Range of M.O.s used for correlation:     3   138
 NBasis=   138 NAE=     9 NBE=     9 NFC=     2 NFV=     0
 NROrb=    136 NOA=     7 NOB=     7 NVA=   129 NVB=   129

 **** Warning!!: The largest alpha MO coefficient is  0.16813805D+02

 Leave Link  801 at Fri Apr  3 17:03:40 2020, MaxMem=  2147483648 cpu:               0.6 elap:               0.0
 (Enter /usr/local/g16/g16/l804.exe)
 Closed-shell transformation, MDV=  2147483648 ITran=4 ISComp=1.
 Semi-Direct transformation.
 ModeAB=           2 MOrb=             7 LenV=    2146849405
 LASXX=      8463147 LTotXX=     8463147 LenRXX=     8463147
 LTotAB=     8647912 MaxLAS=    12261760 LenRXY=    12261760
 NonZer=    16926294 LenScr=    26146816 LnRSAI=           0
 LnScr1=           0 LExtra=           0 Total=     46871723
 MaxDsk=          -1 SrtSym=           F ITran=            4
 DoSDTr:  NPSUse= 16
 JobTyp=0 Pass  1:  I=   1 to   7.
 (rs|ai) integrals will be sorted in core.
 Complete sort for first half transformation.
 First half transformation complete.
 Complete sort for second half transformation.
 Second half transformation complete.
 SymMOI:  orbitals are not symmetric.
 Spin components of T(2) and E(2):
     alpha-alpha T2 =       0.1606515291D-01 E2=     -0.6286450372D-01
     alpha-beta  T2 =       0.9337566691D-01 E2=     -0.3818772067D+00
     beta-beta   T2 =       0.1606515291D-01 E2=     -0.6286450372D-01
 ANorm=    0.1060898663D+01
 E2 =    -0.5076062141D+00 EUMP2 =    -0.15133615786434D+03
 Leave Link  804 at Fri Apr  3 17:03:42 2020, MaxMem=  2147483648 cpu:              29.8 elap:               1.9
 (Enter /usr/local/g16/g16/l913.exe)
 CIDS:  MDV=  2147483648.
 Frozen-core window:  NFC=   2 NFV=   0.
 IFCWin=0 IBDFC=1 NFBD=     0     0 NFCmp=     0     0 NFFFC=     0     0
 Using DD3R+UMP44R for 1st iteration.
 Using DD4RQ for 2nd and later iterations.
 Keep R2 and R3 ints in memory in canonical form, NReq=99863705.
 FoFCou: FMM=F IPFlag=           0 FMFlag=           0 FMFlg1=           0
         NFxFlg=           0 DoJE=F BraDBF=F KetDBF=F FulRan=T
         wScrn=  0.000000 ICntrl=       600 IOpCl=  0 I1Cent=           0 NGrid=           0
         NMat0=    1 NMatS0=   9591 NMatT0=    0 NMatD0=    1 NMtDS0=    0 NMtDT0=    0
 Symmetry not used in FoFCou.
 Two-electron integral symmetry not used.
 CIDS: In Core Option IDoMem=           1.
 MP4(SDTQ)
 =========
 Produce multiple copies of IABC intergrals
 DD1Dir will call FoFMem   1 times, MxPair=        56
 NAB=    28 NAA=     0 NBB=     0.
 MP4(D)= -0.11213934D-01
 MP4(S)= -0.52126842D-02
 MP4(R+Q)=  0.10820158D-01
 T4(AAA)= -0.66459127D-03
 T4(AAB)= -0.10315239D-01
 Time for triples=       95.10 seconds.
 MP4(T)=   -0.21959661D-01
 E3=       -0.20531509D-02        EUMP3=      -0.15133821102D+03
 E4(DQ)=   -0.39377515D-03        UMP4(DQ)=   -0.15133860479D+03
 E4(SDQ)=  -0.56064593D-02        UMP4(SDQ)=  -0.15134381747D+03
 E4(SDTQ)= -0.27566120D-01        UMP4(SDTQ)= -0.15136577714D+03
 VARIATIONAL ENERGIES WITH THE FIRST-ORDER WAVEFUNCTION:
 E(VAR1)=  -0.15128137854D+03     E(CISD,4)=  -0.15129093002D+03
 Largest amplitude= 5.10D-02
 Discarding MO integrals.
 Leave Link  913 at Fri Apr  3 17:03:50 2020, MaxMem=  2147483648 cpu:             119.1 elap:               7.5
 (Enter /usr/local/g16/g16/l122.exe)
 CPIOFr:  IOpCl= 0 IRwI=-1 IRwCP=  731 ICalc=  3 LCPTot=       59414 Len1MO=      159453 IndFrg=      697226
 Restoring MOs from calculation   5 to rwf and chk.
 CPIOFr:  IOpCl= 0 IRwI=-2 IRwCP=20731 ICalc=  4 LCPTot=       59414 Len1MO=      159453 IndFrg=      856679
 CPIOFr:  IOpCl= 0 IRwI= 4 IRwCP=20731 ICalc=  4 LCPTot=       59414 Len1MO=      159453 IndFrg=      856679
 Counterpoise: doing calculation for fragment   2 using the basis set of the fragment.
 Leave Link  122 at Fri Apr  3 17:03:50 2020, MaxMem=  2147483648 cpu:               0.1 elap:               0.0
 (Enter /usr/local/g16/g16/l301.exe)
 Basis read from rwf:  (5D, 7F)
 No pseudopotential information found on rwf file.
 There are    69 symmetry adapted cartesian basis functions of A   symmetry.
 There are    59 symmetry adapted basis functions of A   symmetry.
    59 basis functions,   217 primitive gaussians,    69 cartesian basis functions
    18 alpha electrons       18 beta electrons
       nuclear repulsion energy         0.0000000000 Hartrees.
 IExCor=    0 DFT=F Ex=HF Corr=None ExCW=0 ScaHFX=  1.000000
 ScaDFX=  1.000000  1.000000  1.000000  1.000000 ScalE2=  1.000000  1.000000
 IRadAn=      5 IRanWt=     -1 IRanGd=            0 ICorTp=0 IEmpDi=  4
 NAtoms=    5 NActive=    1 NUniq=    1 SFac= 1.00D+00 NAtFMM=   60 NAOKFM=F Big=F
 Integral buffers will be    131072 words long.
 Raffenetti 1 integral format.
 Two-electron integral symmetry is turned on.
 No density basis found on file   718.
 Leave Link  301 at Fri Apr  3 17:03:50 2020, MaxMem=  2147483648 cpu:               0.4 elap:               0.0
 (Enter /usr/local/g16/g16/l302.exe)
 NPDir=0 NMtPBC=     1 NCelOv=     1 NCel=       1 NClECP=     1 NCelD=      1
         NCelK=      1 NCelE2=     1 NClLst=     1 CellRange=     0.0.
 One-electron integrals computed using PRISM.
 One-electron integral symmetry used in STVInt
 NBasis=    59 RedAO= T EigKep=  1.06D-02  NBF=    59
 NBsUse=    59 1.00D-06 EigRej= -1.00D+00 NBFU=    59
 Leave Link  302 at Fri Apr  3 17:03:50 2020, MaxMem=  2147483648 cpu:               1.5 elap:               0.1
 (Enter /usr/local/g16/g16/l303.exe)
 DipDrv:  MaxL=1.
 Leave Link  303 at Fri Apr  3 17:03:50 2020, MaxMem=  2147483648 cpu:               0.4 elap:               0.0
 (Enter /usr/local/g16/g16/l401.exe)
 Initial guess from the checkpoint file:  "/mnt/driveB/scratch/matheus/Gau-70482.chk"
 B after Tr=     0.062991    0.000013    0.000055
         Rot=    1.000000    0.000000    0.000000    0.000000 Ang=   0.00 deg.
 Guess basis will be translated and rotated to current coordinates.
 JPrj=2 DoOrth=T DoCkMO=T.
 Generating alternative initial guess.
 ExpMin= 4.00D-02 ExpMax= 1.17D+07 ExpMxC= 1.33D+04 IAcc=3 IRadAn=         5 AccDes= 0.00D+00
 Harris functional with IExCor=  205 and IRadAn=       5 diagonalized for initial guess.
 HarFok:  IExCor=  205 AccDes= 0.00D+00 IRadAn=         5 IDoV= 1 UseB2=F ITyADJ=14
 ICtDFT=  3500011 ScaDFX=  1.000000  1.000000  1.000000  1.000000
 FoFCou: FMM=F IPFlag=           0 FMFlag=      100000 FMFlg1=           0
         NFxFlg=           0 DoJE=T BraDBF=F KetDBF=T FulRan=T
         wScrn=  0.000000 ICntrl=       500 IOpCl=  0 I1Cent=   200000004 NGrid=           0
         NMat0=    1 NMatS0=      1 NMatT0=    0 NMatD0=    1 NMtDS0=    0 NMtDT0=    0
 Petite list used in FoFCou.
 DSYEVD-2 returned Info=         119 IAlg= 4 N=    59 NDim=    59 NE2=    36397839 trying  DSYEV.
 Harris En= -2751.05937170533    
 Leave Link  401 at Fri Apr  3 17:03:50 2020, MaxMem=  2147483648 cpu:               2.4 elap:               0.2
 (Enter /usr/local/g16/g16/l502.exe)
 Keep R1 ints in memory in canonical form, NReq=14291944.
 FoFCou: FMM=F IPFlag=           0 FMFlag=           0 FMFlg1=           0
         NFxFlg=           0 DoJE=F BraDBF=F KetDBF=F FulRan=T
         wScrn=  0.000000 ICntrl=       600 IOpCl=  0 I1Cent=           0 NGrid=           0
         NMat0=    1 NMatS0=   1770 NMatT0=    0 NMatD0=    1 NMtDS0=    0 NMtDT0=    0
 Symmetry not used in FoFCou.
 Two-electron integral symmetry not used.
 Closed shell SCF:
 Using DIIS extrapolation, IDIIS=  1040.
 NGot=  2147483648 LenX=  2145904888 LenY=  2145899686
 Requested convergence on RMS density matrix=1.00D-08 within 128 cycles.
 Requested convergence on MAX density matrix=1.00D-06.
 Requested convergence on             energy=1.00D-06.
 No special actions if energy rises.

 Cycle   1  Pass 1  IDiag  1:
 E= -2752.05222307625    
 DIIS: error= 1.48D-13 at cycle   1 NSaved=   1.
 NSaved= 1 IEnMin= 1 EnMin= -2752.05222307625     IErMin= 1 ErrMin= 1.48D-13
 ErrMax= 1.48D-13  0.00D+00 EMaxC= 1.00D-01 BMatC= 6.19D-25 BMatP= 6.19D-25
 IDIUse=1 WtCom= 1.00D+00 WtEn= 0.00D+00
 Coeff-Com:  0.100D+01
 Coeff:      0.100D+01
 Gap=     0.719 Goal=   None    Shift=    0.000
 RMSDP=5.50D-15 MaxDP=1.21D-13              OVMax= 6.49D-14

 SCF Done:  E(RHF) =  -2752.05222308     A.U. after    1 cycles
            NFock=  1  Conv=0.55D-14     -V/T= 2.0000
 KE= 2.752048106937D+03 PE=-6.582565276257D+03 EE= 1.078464946243D+03
 Leave Link  502 at Fri Apr  3 17:03:51 2020, MaxMem=  2147483648 cpu:               9.3 elap:               0.6
 (Enter /usr/local/g16/g16/l801.exe)
 Windowed orbitals will be sorted by symmetry type.
 ExpMin= 4.00D-02 ExpMax= 1.17D+07 ExpMxC= 1.33D+04 IAcc=3 IRadAn=         5 AccDes= 0.00D+00
 HarFok:  IExCor=  205 AccDes= 0.00D+00 IRadAn=         5 IDoV=-2 UseB2=F ITyADJ=14
 ICtDFT= 12500011 ScaDFX=  1.000000  1.000000  1.000000  1.000000
 Largest valence mixing into a core orbital is  9.79D-05
 Largest core mixing into a valence orbital is  3.83D-05
 Range of M.O.s used for correlation:    10    59
 NBasis=    59 NAE=    18 NBE=    18 NFC=     9 NFV=     0
 NROrb=     50 NOA=     9 NOB=     9 NVA=    41 NVB=    41
 Leave Link  801 at Fri Apr  3 17:03:51 2020, MaxMem=  2147483648 cpu:               0.5 elap:               0.0
 (Enter /usr/local/g16/g16/l804.exe)
 Closed-shell transformation, MDV=  2147483648 ITran=4 ISComp=1.
 Semi-Direct transformation.
 ModeAB=           2 MOrb=             9 LenV=    2147140326
 LASXX=       482211 LTotXX=      482211 LenRXX=      482211
 LTotAB=      511245 MaxLAS=     1086750 LenRXY=     1086750
 NonZer=     1162350 LenScr=     2357760 LnRSAI=           0
 LnScr1=           0 LExtra=           0 Total=      3926721
 MaxDsk=          -1 SrtSym=           F ITran=            4
 DoSDTr:  NPSUse= 16
 JobTyp=0 Pass  1:  I=   1 to   9.
 (rs|ai) integrals will be sorted in core.
 Complete sort for first half transformation.
 First half transformation complete.
 Complete sort for second half transformation.
 Second half transformation complete.
 SymMOI:  orbitals are not symmetric.
 Spin components of T(2) and E(2):
     alpha-alpha T2 =       0.9484485167D-02 E2=     -0.3552398032D-01
     alpha-beta  T2 =       0.4799866946D-01 E2=     -0.1708433112D+00
     beta-beta   T2 =       0.9484485167D-02 E2=     -0.3552398032D-01
 ANorm=    0.1032941257D+01
 E2 =    -0.2418912719D+00 EUMP2 =    -0.27522941143481D+04
 Leave Link  804 at Fri Apr  3 17:03:51 2020, MaxMem=  2147483648 cpu:               5.2 elap:               0.3
 (Enter /usr/local/g16/g16/l913.exe)
 CIDS:  MDV=  2147483648.
 Frozen-core window:  NFC=   9 NFV=   0.
 IFCWin=0 IBDFC=1 NFBD=     0     0 NFCmp=     0     0 NFFFC=     0     0
 Using DD3R+UMP44R for 1st iteration.
 Using DD4RQ for 2nd and later iterations.
 Keep R2 and R3 ints in memory in canonical form, NReq=15862484.
 FoFCou: FMM=F IPFlag=           0 FMFlag=           0 FMFlg1=           0
         NFxFlg=           0 DoJE=F BraDBF=F KetDBF=F FulRan=T
         wScrn=  0.000000 ICntrl=       600 IOpCl=  0 I1Cent=           0 NGrid=           0
         NMat0=    1 NMatS0=   1770 NMatT0=    0 NMatD0=    1 NMtDS0=    0 NMtDT0=    0
 Symmetry not used in FoFCou.
 Two-electron integral symmetry not used.
 CIDS: In Core Option IDoMem=           1.
 MP4(SDTQ)
 =========
 Produce multiple copies of IABC intergrals
 DD1Dir will call FoFMem   1 times, MxPair=        90
 NAB=    45 NAA=     0 NBB=     0.
 MP4(D)= -0.36913093D-02
 MP4(S)= -0.10734540D-02
 MP4(R+Q)=  0.42077927D-02
 T4(AAA)= -0.32336090D-03
 T4(AAB)= -0.35259699D-02
 Time for triples=        3.57 seconds.
 MP4(T)=   -0.76986616D-02
 E3=       -0.99406389D-02        EUMP3=      -0.27523040550D+04
 E4(DQ)=    0.51648341D-03        UMP4(DQ)=   -0.27523035385D+04
 E4(SDQ)=  -0.55697064D-03        UMP4(SDQ)=  -0.27523046120D+04
 E4(SDTQ)= -0.82556322D-02        UMP4(SDTQ)= -0.27523123106D+04
 VARIATIONAL ENERGIES WITH THE FIRST-ORDER WAVEFUNCTION:
 E(VAR1)=  -0.27522882489D+04     E(CISD,4)=  -0.27522926209D+04
 Largest amplitude= 2.05D-02
 Discarding MO integrals.
 Leave Link  913 at Fri Apr  3 17:03:52 2020, MaxMem=  2147483648 cpu:              14.1 elap:               0.9
 (Enter /usr/local/g16/g16/l122.exe)
 CPIOFr:  IOpCl= 0 IRwI=-1 IRwCP=  731 ICalc=  4 LCPTot=       59414 Len1MO=      159453 IndFrg=      856679
 Restoring MOs from calculation   1 to rwf.
 CPIOFr:  IOpCl= 0 IRwI=-2 IRwCP=  731 ICalc=  0 LCPTot=       59414 Len1MO=      159453 IndFrg=      218867
 Counterpoise corrected energy =   -2903.678470289671
                   BSSE energy =       0.000270761220
              sum of fragments =   -2903.678087755043
           complexation energy =      -0.41 kcal/mole (raw)
           complexation energy =      -0.24 kcal/mole (corrected)
 Leave Link  122 at Fri Apr  3 17:03:52 2020, MaxMem=  2147483648 cpu:               0.1 elap:               0.0
 (Enter /usr/local/g16/g16/l108.exe)
 Scan completed.
 
 Summary of the potential surface scan, energies are +2752 a.u.:
   N      R1          SCF          MP2          MP3         MP4DQ       MP4SDQ       MP4SDTQ  
 ----  ---------  -----------  -----------  -----------  -----------  -----------  -----------
    1     3.0000     -0.05222     -0.29411     -0.30405     -0.30354     -0.30461     -0.31231
    2     3.1000     -0.05222     -0.29411     -0.30405     -0.30354     -0.30461     -0.31231
    3     3.2000     -0.05222     -0.29411     -0.30405     -0.30354     -0.30461     -0.31231
    4     3.3000     -0.05222     -0.29411     -0.30405     -0.30354     -0.30461     -0.31231
    5     3.4000     -0.05222     -0.29411     -0.30405     -0.30354     -0.30461     -0.31231
    6     3.5000     -0.05222     -0.29411     -0.30405     -0.30354     -0.30461     -0.31231
    7     3.6000     -0.05222     -0.29411     -0.30405     -0.30354     -0.30461     -0.31231
    8     3.7000     -0.05222     -0.29411     -0.30405     -0.30354     -0.30461     -0.31231
    9     3.8000     -0.05222     -0.29411     -0.30405     -0.30354     -0.30461     -0.31231
   10     3.9000     -0.05222     -0.29411     -0.30405     -0.30354     -0.30461     -0.31231
   11     4.0000     -0.05222     -0.29411     -0.30405     -0.30354     -0.30461     -0.31231
   12     4.1000     -0.05222     -0.29411     -0.30405     -0.30354     -0.30461     -0.31231
   13     4.2000     -0.05222     -0.29411     -0.30405     -0.30354     -0.30461     -0.31231
   14     4.3000     -0.05222     -0.29411     -0.30405     -0.30354     -0.30461     -0.31231
   15     4.4000     -0.05222     -0.29411     -0.30405     -0.30354     -0.30461     -0.31231
   16     4.5000     -0.05222     -0.29411     -0.30405     -0.30354     -0.30461     -0.31231
   17     4.6000     -0.05222     -0.29411     -0.30405     -0.30354     -0.30461     -0.31231
   18     4.7000     -0.05222     -0.29411     -0.30405     -0.30354     -0.30461     -0.31231
   19     4.8000     -0.05222     -0.29411     -0.30405     -0.30354     -0.30461     -0.31231
   20     4.9000     -0.05222     -0.29411     -0.30405     -0.30354     -0.30461     -0.31231
   21     5.0000     -0.05222     -0.29411     -0.30405     -0.30354     -0.30461     -0.31231
 ----  ---------  -----------  -----------  -----------  -----------  -----------  -----------
  
 Leave Link  108 at Fri Apr  3 17:03:52 2020, MaxMem=  2147483648 cpu:               0.1 elap:               0.0
 (Enter /usr/local/g16/g16/l9999.exe)
 1\1\GINC-ARTHUR-MS-7B09\Scan\RMP4SDTQ-FC\Aug-CC-pVTZ\H2Kr1O2\MATHEUS\0
 3-Apr-2020\1\\#p mp4/aug-cc-PVTz int=ultrafine counterpoise=2 Scan\\PT
 CC\\0,1\O,0,0.,0.,0.725\O,0,0.,0.,-0.725\H,0,-0.3142209495,0.863314963
 4,1.0235104166\H,0,0.,0.9187205947,-1.0235104166\Kr,0,0.,R1,0.\\R1=3.,
 s,20,0.1\\Version=ES64L-G16RevA.03\HF=-2752.0522231,-2752.0522231,-275
 2.0522231,-2752.0522231,-2752.0522231,-2752.0522231,-2752.0522231,-275
 2.0522231,-2752.0522231,-2752.0522231,-2752.0522231,-2752.0522231,-275
 2.0522231,-2752.0522231,-2752.0522231,-2752.0522231,-2752.0522231,-275
 2.0522231,-2752.0522231,-2752.0522231,-2752.0522231\MP2=-2752.2941143,
 -2752.2941143,-2752.2941143,-2752.2941143,-2752.2941143,-2752.2941143,
 -2752.2941143,-2752.2941143,-2752.2941143,-2752.2941143,-2752.2941143,
 -2752.2941143,-2752.2941143,-2752.2941143,-2752.2941143,-2752.2941143,
 -2752.2941143,-2752.2941143,-2752.2941143,-2752.2941143,-2752.2941143\
 MP3=-2752.304055,-2752.304055,-2752.304055,-2752.304055,-2752.304055,-
 2752.304055,-2752.304055,-2752.304055,-2752.304055,-2752.304055,-2752.
 304055,-2752.304055,-2752.304055,-2752.304055,-2752.304055,-2752.30405
 5,-2752.304055,-2752.304055,-2752.304055,-2752.304055,-2752.304055\MP4
 D=-2752.3077463,-2752.3077463,-2752.3077463,-2752.3077463,-2752.307746
 3,-2752.3077463,-2752.3077463,-2752.3077463,-2752.3077463,-2752.307746
 3,-2752.3077463,-2752.3077463,-2752.3077463,-2752.3077463,-2752.307746
 3,-2752.3077463,-2752.3077463,-2752.3077463,-2752.3077463,-2752.307746
 3,-2752.3077463\MP4DQ=-2752.3035385,-2752.3035385,-2752.3035385,-2752.
 3035385,-2752.3035385,-2752.3035385,-2752.3035385,-2752.3035385,-2752.
 3035385,-2752.3035385,-2752.3035385,-2752.3035385,-2752.3035385,-2752.
 3035385,-2752.3035385,-2752.3035385,-2752.3035385,-2752.3035385,-2752.
 3035385,-2752.3035385,-2752.3035385\MP4SDQ=-2752.304612,-2752.304612,-
 2752.304612,-2752.304612,-2752.304612,-2752.304612,-2752.304612,-2752.
 304612,-2752.304612,-2752.304612,-2752.304612,-2752.304612,-2752.30461
 2,-2752.304612,-2752.304612,-2752.304612,-2752.304612,-2752.304612,-27
 52.304612,-2752.304612,-2752.304612\MP4SDTQ=-2752.3123106,-2752.312310
 6,-2752.3123106,-2752.3123106,-2752.3123106,-2752.3123106,-2752.312310
 6,-2752.3123106,-2752.3123106,-2752.3123106,-2752.3123106,-2752.312310
 6,-2752.3123106,-2752.3123106,-2752.3123106,-2752.3123106,-2752.312310
 6,-2752.3123106,-2752.3123106,-2752.3123106,-2752.3123106\RMSD=9.887e-
 10,1.149e-10,2.884e-11,7.212e-12,1.871e-12,4.703e-13,1.326e-13,3.282e-
 14,1.530e-14,9.258e-15,6.665e-15,6.104e-15,1.018e-14,6.822e-15,4.986e-
 15,1.118e-14,8.119e-15,1.146e-14,1.150e-14,5.665e-15,5.504e-15\PG=C01 
 [X(H2Kr1O2)]\\@


 EVANS BOLDLY PUT 50 ATM. OF ETHYLENE IN A CELL WITH 25 ATM. OF OXYGEN.
 THE APPARATUS SUBSEQUENTLY BLEW UP, BUT LUCKILY NOT BEFORE HE
 OBTAINED THE SPECTRA SHOWN IN FIGURE 8.
 A.J.MERER AND R.S.MULLIKEN, CHEM.REV. 69, 645 (1969)
 Job cpu time:       0 days 20 hours 54 minutes 20.8 seconds.
 Elapsed time:       0 days  1 hours 19 minutes 39.2 seconds.
 File lengths (MBytes):  RWF=   4068 Int=      0 D2E=      0 Chk=     12 Scr=      1
 Normal termination of Gaussian 16 at Fri Apr  3 17:03:52 2020.
