 Entering Gaussian System, Link 0=g16
 Input=Inputs/H2O2-Kr_30.com
 Output=Logs/H2O2-Kr_30.log
 Initial command:
 /usr/local/g16/g16/l1.exe "/mnt/driveB/scratch/matheus/Gau-60241.inp" -scrdir="/mnt/driveB/scratch/matheus/"
 Entering Link 1 = /usr/local/g16/g16/l1.exe PID=     60243.
  
 Copyright (c) 1988,1990,1992,1993,1995,1998,2003,2009,2016,
            Gaussian, Inc.  All Rights Reserved.
  
 This is part of the Gaussian(R) 16 program.  It is based on
 the Gaussian(R) 09 system (copyright 2009, Gaussian, Inc.),
 the Gaussian(R) 03 system (copyright 2003, Gaussian, Inc.),
 the Gaussian(R) 98 system (copyright 1998, Gaussian, Inc.),
 the Gaussian(R) 94 system (copyright 1995, Gaussian, Inc.),
 the Gaussian 92(TM) system (copyright 1992, Gaussian, Inc.),
 the Gaussian 90(TM) system (copyright 1990, Gaussian, Inc.),
 the Gaussian 88(TM) system (copyright 1988, Gaussian, Inc.),
 the Gaussian 86(TM) system (copyright 1986, Carnegie Mellon
 University), and the Gaussian 82(TM) system (copyright 1983,
 Carnegie Mellon University). Gaussian is a federally registered
 trademark of Gaussian, Inc.
  
 This software contains proprietary and confidential information,
 including trade secrets, belonging to Gaussian, Inc.
  
 This software is provided under written license and may be
 used, copied, transmitted, or stored only in accord with that
 written license.
  
 The following legend is applicable only to US Government
 contracts under FAR:
  
                    RESTRICTED RIGHTS LEGEND
  
 Use, reproduction and disclosure by the US Government is
 subject to restrictions as set forth in subparagraphs (a)
 and (c) of the Commercial Computer Software - Restricted
 Rights clause in FAR 52.227-19.
  
 Gaussian, Inc.
 340 Quinnipiac St., Bldg. 40, Wallingford CT 06492
  
  
 ---------------------------------------------------------------
 Warning -- This program may not be used in any manner that
 competes with the business of Gaussian, Inc. or will provide
 assistance to any competitor of Gaussian, Inc.  The licensee
 of this program is prohibited from giving any competitor of
 Gaussian, Inc. access to this program.  By using this program,
 the user acknowledges that Gaussian, Inc. is engaged in the
 business of creating and licensing software in the field of
 computational chemistry and represents and warrants to the
 licensee that it is not a competitor of Gaussian, Inc. and that
 it will not use this program in any manner prohibited above.
 ---------------------------------------------------------------
  

 Cite this work as:
 Gaussian 16, Revision A.03,
 M. J. Frisch, G. W. Trucks, H. B. Schlegel, G. E. Scuseria, 
 M. A. Robb, J. R. Cheeseman, G. Scalmani, V. Barone, 
 G. A. Petersson, H. Nakatsuji, X. Li, M. Caricato, A. V. Marenich, 
 J. Bloino, B. G. Janesko, R. Gomperts, B. Mennucci, H. P. Hratchian, 
 J. V. Ortiz, A. F. Izmaylov, J. L. Sonnenberg, D. Williams-Young, 
 F. Ding, F. Lipparini, F. Egidi, J. Goings, B. Peng, A. Petrone, 
 T. Henderson, D. Ranasinghe, V. G. Zakrzewski, J. Gao, N. Rega, 
 G. Zheng, W. Liang, M. Hada, M. Ehara, K. Toyota, R. Fukuda, 
 J. Hasegawa, M. Ishida, T. Nakajima, Y. Honda, O. Kitao, H. Nakai, 
 T. Vreven, K. Throssell, J. A. Montgomery, Jr., J. E. Peralta, 
 F. Ogliaro, M. J. Bearpark, J. J. Heyd, E. N. Brothers, K. N. Kudin, 
 V. N. Staroverov, T. A. Keith, R. Kobayashi, J. Normand, 
 K. Raghavachari, A. P. Rendell, J. C. Burant, S. S. Iyengar, 
 J. Tomasi, M. Cossi, J. M. Millam, M. Klene, C. Adamo, R. Cammi, 
 J. W. Ochterski, R. L. Martin, K. Morokuma, O. Farkas, 
 J. B. Foresman, and D. J. Fox, Gaussian, Inc., Wallingford CT, 2016.
 
 ******************************************
 Gaussian 16:  ES64L-G16RevA.03 25-Dec-2016
                 2-Apr-2020 
 ******************************************
 %mem=16GB
 %nproc=16
 Will use up to   16 processors via shared memory.
 ----------------------------------------------------
 #p mp4/aug-cc-PVTz int=ultrafine counterpoise=2 Scan
 ----------------------------------------------------
 1/38=1,60=1,62=2,172=1/1,8;
 2/12=2,17=6,18=5,29=3,40=1/2;
 1/38=1,53=2,62=2,63=1/22;
 3/5=16,6=1,7=10,11=9,25=1,30=1,75=-5/1,2,3;
 4//1;
 5/5=2,38=5/2;
 8/6=4,9=120000,10=1/1,4;
 9/5=5/13;
 6/7=2,8=2,9=2,10=2,18=1/1;
 1/53=2,62=2,63=1/22;
 3/5=7,6=11,7=10,11=9,25=1,30=1,75=-5,82=7/1,2,3;
 4//1;
 5/5=2,38=5/2;
 8/6=4,9=120000,10=1/1,4;
 9/5=5/13;
 6/7=2,8=2,9=2,10=2,18=1/1;
 1/53=2,62=2,63=1/22(-6);
 1/60=1,62=2/8(1);
 99/9=1/99;
 2/29=3/2;
 1/53=3,62=2,63=1/22;
 3/5=7,6=11,7=10,11=9,25=1,30=1,75=-5,82=7/1,2,3;
 4/5=5,16=3,69=1/1;
 5/5=2,38=5/2;
 8/6=4,9=120000,10=1/1,4;
 9/5=5/13;
 1/53=3,62=2,63=1/22(-5);
 1/60=1,62=2/8(-8);
 99/9=1/99;
 Leave Link    1 at Thu Apr  2 17:20:54 2020, MaxMem=  2147483648 cpu:               0.3 elap:               0.0
 (Enter /usr/local/g16/g16/l101.exe)
 ----
 PTCC
 ----
 Symbolic Z-matrix:
 Charge =  0 Multiplicity = 1 in supermolecule
 Charge =  0 Multiplicity = 1 in fragment      1.
 Charge =  0 Multiplicity = 1 in fragment      2.
 O(Fragment=1)         0.        0.        0.725 
 O(Fragment=1)         0.        0.       -0.725 
 H(Fragment=1)        -0.79564   0.45936   1.02351 
 H(Fragment=1)         0.        0.91872  -1.02351 
 Kr(Fragment=2)        0.       R1        0. 
       Variables:
  R1                    3.     Scan 20    0.1    
 
 ITRead=  0  0  0  0  0
 MicOpt= -1 -1 -1 -1 -1
 NAtoms=      5 NQM=        5 NQMF=       0 NMMI=      0 NMMIF=      0
                NMic=       0 NMicF=      0.
                    Isotopes and Nuclear Properties:
 (Nuclear quadrupole moments (NQMom) in fm**2, nuclear magnetic moments (NMagM)
  in nuclear magnetons)

  Atom         1           2           3           4           5
 IAtWgt=          16          16           1           1          84
 AtmWgt=  15.9949146  15.9949146   1.0078250   1.0078250  83.9115064
 NucSpn=           0           0           1           1           0
 AtZEff=  -0.0000000  -0.0000000  -0.0000000  -0.0000000  -0.0000000
 NQMom=    0.0000000   0.0000000   0.0000000   0.0000000   0.0000000
 NMagM=    0.0000000   0.0000000   2.7928460   2.7928460   0.0000000
 AtZNuc=   8.0000000   8.0000000   1.0000000   1.0000000  36.0000000
 Leave Link  101 at Thu Apr  2 17:20:54 2020, MaxMem=  2147483648 cpu:               1.4 elap:               0.1
 (Enter /usr/local/g16/g16/l108.exe)
 Scan the potential surface.
 Variable   Value     No. Steps Step-Size
 -------- ----------- --------- ---------
     1       3.000000      20      0.1000
 A total of     21 points will be computed.
 Leave Link  108 at Thu Apr  2 17:20:54 2020, MaxMem=  2147483648 cpu:               0.0 elap:               0.0
 (Enter /usr/local/g16/g16/l202.exe)
 ---------------------------------------------------------------------------------------------------
                            Z-MATRIX (ANGSTROMS AND DEGREES)
   CD    Cent   Atom    N1       Length/X        N2       Alpha/Y        N3        Beta/Z          J
 ---------------------------------------------------------------------------------------------------
      1      1  O        0   0.000000          0.000000          0.725000
      2      2  O        0   0.000000          0.000000         -0.725000
      3      3  H        0  -0.795635          0.459360          1.023510
      4      4  H        0   0.000000          0.918721         -1.023510
      5      5  Kr       0   0.000000          3.000000          0.000000
 ---------------------------------------------------------------------------------------------------
                         Z-Matrix orientation:                         
 ---------------------------------------------------------------------
 Center     Atomic      Atomic             Coordinates (Angstroms)
 Number     Number       Type             X           Y           Z
 ---------------------------------------------------------------------
      1          8           0        0.000000    0.000000    0.725000
      2          8           0        0.000000    0.000000   -0.725000
      3          1           0       -0.795635    0.459360    1.023510
      4          1           0        0.000000    0.918721   -1.023510
      5         36           0        0.000000    3.000000    0.000000
 ---------------------------------------------------------------------
                    Distance matrix (angstroms):
                    1          2          3          4          5
     1  O    0.000000
     2  O    1.450000   0.000000
     3  H    0.966000   1.975180   0.000000
     4  H    1.975180   0.966000   2.243734   0.000000
     5  Kr   3.086361   3.086361   2.852273   2.319331   0.000000
 Stoichiometry    H2KrO2
 Framework group  C1[X(H2KrO2)]
 Deg. of freedom     9
 Full point group                 C1      NOp   1
 Largest Abelian subgroup         C1      NOp   1
 Largest concise Abelian subgroup C1      NOp   1
                         Standard orientation:                         
 ---------------------------------------------------------------------
 Center     Atomic      Atomic             Coordinates (Angstroms)
 Number     Number       Type             X           Y           Z
 ---------------------------------------------------------------------
      1          8           0       -2.028906   -0.709015   -0.097019
      2          8           0       -2.021423    0.736213    0.020285
      3          1           0       -1.580792   -1.073669    0.677176
      4          1           0       -1.101242    1.028113    0.055175
      5         36           0        0.974574   -0.004779   -0.003291
 ---------------------------------------------------------------------
 Rotational constants (GHZ):          25.8520086           2.3670759           2.1795084
 Leave Link  202 at Thu Apr  2 17:20:54 2020, MaxMem=  2147483648 cpu:               0.0 elap:               0.0
 (Enter /usr/local/g16/g16/l122.exe)
 Counterpoise: doing full-system calculation.
 Leave Link  122 at Thu Apr  2 17:20:54 2020, MaxMem=  2147483648 cpu:               0.0 elap:               0.0
 (Enter /usr/local/g16/g16/l301.exe)
 Standard basis: Aug-CC-pVTZ (5D, 7F)
 Ernie: Thresh=  0.10000D-02 Tol=  0.10000D-05 Strict=F.
 Ernie:  38 primitive shells out of 205 were deleted.
 There are   229 symmetry adapted cartesian basis functions of A   symmetry.
 There are   197 symmetry adapted basis functions of A   symmetry.
   197 basis functions,   415 primitive gaussians,   229 cartesian basis functions
    27 alpha electrons       27 beta electrons
       nuclear repulsion energy       150.2958878953 Hartrees.
 IExCor=    0 DFT=F Ex=HF Corr=None ExCW=0 ScaHFX=  1.000000
 ScaDFX=  1.000000  1.000000  1.000000  1.000000 ScalE2=  1.000000  1.000000
 IRadAn=      5 IRanWt=     -1 IRanGd=            0 ICorTp=0 IEmpDi=  4
 NAtoms=    5 NActive=    5 NUniq=    5 SFac= 1.00D+00 NAtFMM=   60 NAOKFM=F Big=F
 Integral buffers will be    131072 words long.
 Raffenetti 1 integral format.
 Two-electron integral symmetry is turned on.
 Leave Link  301 at Thu Apr  2 17:20:54 2020, MaxMem=  2147483648 cpu:               0.4 elap:               0.0
 (Enter /usr/local/g16/g16/l302.exe)
 NPDir=0 NMtPBC=     1 NCelOv=     1 NCel=       1 NClECP=     1 NCelD=      1
         NCelK=      1 NCelE2=     1 NClLst=     1 CellRange=     0.0.
 One-electron integrals computed using PRISM.
 One-electron integral symmetry used in STVInt
 NBasis=   197 RedAO= T EigKep=  1.99D-04  NBF=   197
 NBsUse=   197 1.00D-06 EigRej= -1.00D+00 NBFU=   197
 Leave Link  302 at Thu Apr  2 17:20:54 2020, MaxMem=  2147483648 cpu:               1.7 elap:               0.1
 (Enter /usr/local/g16/g16/l303.exe)
 DipDrv:  MaxL=1.
 Leave Link  303 at Thu Apr  2 17:20:54 2020, MaxMem=  2147483648 cpu:               0.4 elap:               0.0
 (Enter /usr/local/g16/g16/l401.exe)
 ExpMin= 2.53D-02 ExpMax= 1.17D+07 ExpMxC= 1.33D+04 IAcc=3 IRadAn=         5 AccDes= 0.00D+00
 Harris functional with IExCor=  205 and IRadAn=       5 diagonalized for initial guess.
 HarFok:  IExCor=  205 AccDes= 0.00D+00 IRadAn=         5 IDoV= 1 UseB2=F ITyADJ=14
 ICtDFT=  3500011 ScaDFX=  1.000000  1.000000  1.000000  1.000000
 FoFCou: FMM=F IPFlag=           0 FMFlag=      100000 FMFlg1=           0
         NFxFlg=           0 DoJE=T BraDBF=F KetDBF=T FulRan=T
         wScrn=  0.000000 ICntrl=       500 IOpCl=  0 I1Cent=   200000004 NGrid=           0
         NMat0=    1 NMatS0=      1 NMatT0=    0 NMatD0=    1 NMtDS0=    0 NMtDT0=    0
 Petite list used in FoFCou.
 Harris En= -2901.99132706317    
 JPrj=0 DoOrth=F DoCkMO=F.
 Leave Link  401 at Thu Apr  2 17:20:55 2020, MaxMem=  2147483648 cpu:               3.2 elap:               0.2
 (Enter /usr/local/g16/g16/l502.exe)
 Keep R1 ints in memory in canonical form, NReq=203138379.
 FoFCou: FMM=F IPFlag=           0 FMFlag=           0 FMFlg1=           0
         NFxFlg=           0 DoJE=F BraDBF=F KetDBF=F FulRan=T
         wScrn=  0.000000 ICntrl=       600 IOpCl=  0 I1Cent=           0 NGrid=           0
         NMat0=    1 NMatS0=  19503 NMatT0=    0 NMatD0=    1 NMtDS0=    0 NMtDT0=    0
 Symmetry not used in FoFCou.
 Two-electron integral symmetry not used.
 Closed shell SCF:
 Using DIIS extrapolation, IDIIS=  1040.
 NGot=  2147483648 LenX=  1957179903 LenY=  1957127021
 Requested convergence on RMS density matrix=1.00D-08 within 128 cycles.
 Requested convergence on MAX density matrix=1.00D-06.
 Requested convergence on             energy=1.00D-06.
 No special actions if energy rises.

 Cycle   1  Pass 1  IDiag  1:
 E= -2902.76404665275    
 DIIS: error= 4.43D-02 at cycle   1 NSaved=   1.
 NSaved= 1 IEnMin= 1 EnMin= -2902.76404665275     IErMin= 1 ErrMin= 4.43D-02
 ErrMax= 4.43D-02  0.00D+00 EMaxC= 1.00D-01 BMatC= 6.60D-01 BMatP= 6.60D-01
 IDIUse=3 WtCom= 5.57D-01 WtEn= 4.43D-01
 Coeff-Com:  0.100D+01
 Coeff-En:   0.100D+01
 Coeff:      0.100D+01
 Gap=     0.701 Goal=   None    Shift=    0.000
 GapD=    0.701 DampG=2.000 DampE=0.500 DampFc=1.0000 IDamp=-1.
 RMSDP=1.99D-03 MaxDP=1.31D-01              OVMax= 5.50D-02

 Cycle   2  Pass 1  IDiag  1:
 E= -2902.86114679073     Delta-E=       -0.097100137982 Rises=F Damp=F
 DIIS: error= 6.86D-03 at cycle   2 NSaved=   2.
 NSaved= 2 IEnMin= 2 EnMin= -2902.86114679073     IErMin= 2 ErrMin= 6.86D-03
 ErrMax= 6.86D-03  0.00D+00 EMaxC= 1.00D-01 BMatC= 3.69D-02 BMatP= 6.60D-01
 IDIUse=3 WtCom= 9.31D-01 WtEn= 6.86D-02
 Coeff-Com:  0.140D+00 0.860D+00
 Coeff-En:   0.000D+00 0.100D+01
 Coeff:      0.130D+00 0.870D+00
 Gap=     0.534 Goal=   None    Shift=    0.000
 RMSDP=7.68D-04 MaxDP=3.68D-02 DE=-9.71D-02 OVMax= 2.74D-02

 Cycle   3  Pass 1  IDiag  1:
 E= -2902.87496119454     Delta-E=       -0.013814403806 Rises=F Damp=F
 DIIS: error= 2.50D-03 at cycle   3 NSaved=   3.
 NSaved= 3 IEnMin= 3 EnMin= -2902.87496119454     IErMin= 3 ErrMin= 2.50D-03
 ErrMax= 2.50D-03  0.00D+00 EMaxC= 1.00D-01 BMatC= 2.81D-03 BMatP= 3.69D-02
 IDIUse=3 WtCom= 9.75D-01 WtEn= 2.50D-02
 Coeff-Com: -0.610D-02 0.195D+00 0.811D+00
 Coeff-En:   0.000D+00 0.000D+00 0.100D+01
 Coeff:     -0.595D-02 0.190D+00 0.816D+00
 Gap=     0.507 Goal=   None    Shift=    0.000
 RMSDP=1.38D-04 MaxDP=4.84D-03 DE=-1.38D-02 OVMax= 8.60D-03

 Cycle   4  Pass 1  IDiag  1:
 E= -2902.87641652593     Delta-E=       -0.001455331397 Rises=F Damp=F
 DIIS: error= 3.46D-04 at cycle   4 NSaved=   4.
 NSaved= 4 IEnMin= 4 EnMin= -2902.87641652593     IErMin= 4 ErrMin= 3.46D-04
 ErrMax= 3.46D-04  0.00D+00 EMaxC= 1.00D-01 BMatC= 5.00D-05 BMatP= 2.81D-03
 IDIUse=3 WtCom= 9.97D-01 WtEn= 3.46D-03
 Coeff-Com: -0.418D-02 0.136D-01 0.141D+00 0.849D+00
 Coeff-En:   0.000D+00 0.000D+00 0.000D+00 0.100D+01
 Coeff:     -0.416D-02 0.136D-01 0.141D+00 0.850D+00
 Gap=     0.511 Goal=   None    Shift=    0.000
 RMSDP=2.29D-05 MaxDP=6.74D-04 DE=-1.46D-03 OVMax= 1.78D-03

 Cycle   5  Pass 1  IDiag  1:
 E= -2902.87646003863     Delta-E=       -0.000043512695 Rises=F Damp=F
 DIIS: error= 1.01D-04 at cycle   5 NSaved=   5.
 NSaved= 5 IEnMin= 5 EnMin= -2902.87646003863     IErMin= 5 ErrMin= 1.01D-04
 ErrMax= 1.01D-04  0.00D+00 EMaxC= 1.00D-01 BMatC= 3.94D-06 BMatP= 5.00D-05
 IDIUse=3 WtCom= 9.99D-01 WtEn= 1.01D-03
 Coeff-Com:  0.908D-03-0.171D-01-0.724D-01-0.456D-02 0.109D+01
 Coeff-En:   0.000D+00 0.000D+00 0.000D+00 0.000D+00 0.100D+01
 Coeff:      0.907D-03-0.170D-01-0.723D-01-0.456D-02 0.109D+01
 Gap=     0.510 Goal=   None    Shift=    0.000
 RMSDP=1.17D-05 MaxDP=3.39D-04 DE=-4.35D-05 OVMax= 8.02D-04

 Cycle   6  Pass 1  IDiag  1:
 E= -2902.87646631770     Delta-E=       -0.000006279074 Rises=F Damp=F
 DIIS: error= 3.11D-05 at cycle   6 NSaved=   6.
 NSaved= 6 IEnMin= 6 EnMin= -2902.87646631770     IErMin= 6 ErrMin= 3.11D-05
 ErrMax= 3.11D-05  0.00D+00 EMaxC= 1.00D-01 BMatC= 2.90D-07 BMatP= 3.94D-06
 IDIUse=1 WtCom= 1.00D+00 WtEn= 0.00D+00
 Coeff-Com:  0.223D-03-0.527D-03-0.873D-02-0.582D-01 0.810D-02 0.106D+01
 Coeff:      0.223D-03-0.527D-03-0.873D-02-0.582D-01 0.810D-02 0.106D+01
 Gap=     0.511 Goal=   None    Shift=    0.000
 RMSDP=3.70D-06 MaxDP=1.26D-04 DE=-6.28D-06 OVMax= 3.11D-04

 Cycle   7  Pass 1  IDiag  1:
 E= -2902.87646691444     Delta-E=       -0.000000596737 Rises=F Damp=F
 DIIS: error= 1.19D-05 at cycle   7 NSaved=   7.
 NSaved= 7 IEnMin= 7 EnMin= -2902.87646691444     IErMin= 7 ErrMin= 1.19D-05
 ErrMax= 1.19D-05  0.00D+00 EMaxC= 1.00D-01 BMatC= 5.06D-08 BMatP= 2.90D-07
 IDIUse=1 WtCom= 1.00D+00 WtEn= 0.00D+00
 Coeff-Com: -0.362D-04 0.155D-02 0.515D-02-0.122D-01-0.105D+00 0.201D+00
 Coeff-Com:  0.910D+00
 Coeff:     -0.362D-04 0.155D-02 0.515D-02-0.122D-01-0.105D+00 0.201D+00
 Coeff:      0.910D+00
 Gap=     0.511 Goal=   None    Shift=    0.000
 RMSDP=1.38D-06 MaxDP=5.02D-05 DE=-5.97D-07 OVMax= 1.29D-04

 Cycle   8  Pass 1  IDiag  1:
 E= -2902.87646700462     Delta-E=       -0.000000090185 Rises=F Damp=F
 DIIS: error= 5.35D-06 at cycle   8 NSaved=   8.
 NSaved= 8 IEnMin= 8 EnMin= -2902.87646700462     IErMin= 8 ErrMin= 5.35D-06
 ErrMax= 5.35D-06  0.00D+00 EMaxC= 1.00D-01 BMatC= 9.96D-09 BMatP= 5.06D-08
 IDIUse=1 WtCom= 1.00D+00 WtEn= 0.00D+00
 Coeff-Com: -0.353D-04 0.314D-03 0.220D-02 0.725D-02-0.212D-01-0.141D+00
 Coeff-Com:  0.218D+00 0.934D+00
 Coeff:     -0.353D-04 0.314D-03 0.220D-02 0.725D-02-0.212D-01-0.141D+00
 Coeff:      0.218D+00 0.934D+00
 Gap=     0.511 Goal=   None    Shift=    0.000
 RMSDP=7.00D-07 MaxDP=2.19D-05 DE=-9.02D-08 OVMax= 7.28D-05

 Cycle   9  Pass 1  IDiag  1:
 E= -2902.87646702479     Delta-E=       -0.000000020166 Rises=F Damp=F
 DIIS: error= 1.90D-06 at cycle   9 NSaved=   9.
 NSaved= 9 IEnMin= 9 EnMin= -2902.87646702479     IErMin= 9 ErrMin= 1.90D-06
 ErrMax= 1.90D-06  0.00D+00 EMaxC= 1.00D-01 BMatC= 1.09D-09 BMatP= 9.96D-09
 IDIUse=1 WtCom= 1.00D+00 WtEn= 0.00D+00
 Coeff-Com:  0.120D-04-0.292D-03-0.126D-02-0.350D-03 0.190D-01 0.170D-01
 Coeff-Com: -0.185D+00-0.308D+00 0.146D+01
 Coeff:      0.120D-04-0.292D-03-0.126D-02-0.350D-03 0.190D-01 0.170D-01
 Coeff:     -0.185D+00-0.308D+00 0.146D+01
 Gap=     0.511 Goal=   None    Shift=    0.000
 RMSDP=3.56D-07 MaxDP=8.38D-06 DE=-2.02D-08 OVMax= 4.88D-05

 Cycle  10  Pass 1  IDiag  1:
 E= -2902.87646702932     Delta-E=       -0.000000004527 Rises=F Damp=F
 DIIS: error= 5.55D-07 at cycle  10 NSaved=  10.
 NSaved=10 IEnMin=10 EnMin= -2902.87646702932     IErMin=10 ErrMin= 5.55D-07
 ErrMax= 5.55D-07  0.00D+00 EMaxC= 1.00D-01 BMatC= 1.10D-10 BMatP= 1.09D-09
 IDIUse=1 WtCom= 1.00D+00 WtEn= 0.00D+00
 Coeff-Com:  0.106D-05 0.701D-04 0.143D-03-0.105D-02-0.372D-02 0.129D-01
 Coeff-Com:  0.415D-01-0.872D-02-0.541D+00 0.150D+01
 Coeff:      0.106D-05 0.701D-04 0.143D-03-0.105D-02-0.372D-02 0.129D-01
 Coeff:      0.415D-01-0.872D-02-0.541D+00 0.150D+01
 Gap=     0.511 Goal=   None    Shift=    0.000
 RMSDP=1.29D-07 MaxDP=3.29D-06 DE=-4.53D-09 OVMax= 1.88D-05

 Cycle  11  Pass 1  IDiag  1:
 E= -2902.87646702979     Delta-E=       -0.000000000474 Rises=F Damp=F
 DIIS: error= 1.32D-07 at cycle  11 NSaved=  11.
 NSaved=11 IEnMin=11 EnMin= -2902.87646702979     IErMin=11 ErrMin= 1.32D-07
 ErrMax= 1.32D-07  0.00D+00 EMaxC= 1.00D-01 BMatC= 5.50D-12 BMatP= 1.10D-10
 IDIUse=1 WtCom= 1.00D+00 WtEn= 0.00D+00
 Coeff-Com: -0.111D-05-0.304D-05 0.410D-04 0.440D-03-0.360D-03-0.575D-02
 Coeff-Com:  0.348D-02 0.284D-01 0.262D-01-0.344D+00 0.129D+01
 Coeff:     -0.111D-05-0.304D-05 0.410D-04 0.440D-03-0.360D-03-0.575D-02
 Coeff:      0.348D-02 0.284D-01 0.262D-01-0.344D+00 0.129D+01
 Gap=     0.511 Goal=   None    Shift=    0.000
 RMSDP=2.33D-08 MaxDP=4.82D-07 DE=-4.74D-10 OVMax= 2.86D-06

 Cycle  12  Pass 1  IDiag  1:
 E= -2902.87646702980     Delta-E=       -0.000000000009 Rises=F Damp=F
 DIIS: error= 3.78D-08 at cycle  12 NSaved=  12.
 NSaved=12 IEnMin=12 EnMin= -2902.87646702980     IErMin=12 ErrMin= 3.78D-08
 ErrMax= 3.78D-08  0.00D+00 EMaxC= 1.00D-01 BMatC= 4.42D-13 BMatP= 5.50D-12
 IDIUse=1 WtCom= 1.00D+00 WtEn= 0.00D+00
 Coeff-Com: -0.934D-07-0.692D-05-0.153D-04 0.122D-03 0.352D-03-0.163D-02
 Coeff-Com: -0.328D-02 0.339D-02 0.428D-01-0.130D+00-0.204D-01 0.111D+01
 Coeff:     -0.934D-07-0.692D-05-0.153D-04 0.122D-03 0.352D-03-0.163D-02
 Coeff:     -0.328D-02 0.339D-02 0.428D-01-0.130D+00-0.204D-01 0.111D+01
 Gap=     0.511 Goal=   None    Shift=    0.000
 RMSDP=5.90D-09 MaxDP=1.28D-07 DE=-8.64D-12 OVMax= 6.02D-07

 SCF Done:  E(RHF) =  -2902.87646703     A.U. after   12 cycles
            NFock= 12  Conv=0.59D-08     -V/T= 2.0001
 KE= 2.902647317082D+03 PE=-7.240607033367D+03 EE= 1.284787361361D+03
 Leave Link  502 at Thu Apr  2 17:20:58 2020, MaxMem=  2147483648 cpu:              26.7 elap:               3.5
 (Enter /usr/local/g16/g16/l801.exe)
 Windowed orbitals will be sorted by symmetry type.
 ExpMin= 2.53D-02 ExpMax= 1.17D+07 ExpMxC= 1.33D+04 IAcc=3 IRadAn=         5 AccDes= 0.00D+00
 HarFok:  IExCor=  205 AccDes= 0.00D+00 IRadAn=         5 IDoV=-2 UseB2=F ITyADJ=14
 ICtDFT= 12500011 ScaDFX=  1.000000  1.000000  1.000000  1.000000
 Largest valence mixing into a core orbital is  1.17D-04
 Largest core mixing into a valence orbital is  3.83D-05
 Range of M.O.s used for correlation:    12   197
 NBasis=   197 NAE=    27 NBE=    27 NFC=    11 NFV=     0
 NROrb=    186 NOA=    16 NOB=    16 NVA=   170 NVB=   170

 **** Warning!!: The largest alpha MO coefficient is  0.15884674D+02

 Leave Link  801 at Thu Apr  2 17:20:58 2020, MaxMem=  2147483648 cpu:               0.6 elap:               0.0
 (Enter /usr/local/g16/g16/l804.exe)
 Closed-shell transformation, MDV=  2147483648 ITran=4 ISComp=1.
 Unit  1 TFree=       1248993 TCopy=        808885.
 Semi-Direct transformation.
 ModeAB=           2 MOrb=            16 LenV=    2146360180
 LASXX=     48528660 LTotXX=    48528660 LenRXX=    48528660
 LTotAB=    49298776 MaxLAS=    78372960 LenRXY=    78372960
 NonZer=    97057320 LenScr=   146313216 LnRSAI=           0
 LnScr1=           0 LExtra=           0 Total=    273214836
 MaxDsk=          -1 SrtSym=           F ITran=            4
 DoSDTr:  NPSUse= 16
 JobTyp=0 Pass  1:  I=   1 to  16.
 (rs|ai) integrals will be sorted in core.
 Complete sort for first half transformation.
 First half transformation complete.
 Begin second half transformation for I=  10.
 Begin second half transformation for I=  10.
 Complete sort for second half transformation.
 Second half transformation complete.
 SymMOI:  orbitals are not symmetric.
 Spin components of T(2) and E(2):
     alpha-alpha T2 =       0.2609800362D-01 E2=     -0.1002158122D+00
     alpha-beta  T2 =       0.1423056796D+00 E2=     -0.5573944156D+00
     beta-beta   T2 =       0.2609800362D-01 E2=     -0.1002158122D+00
 ANorm=    0.1092932609D+01
 E2 =    -0.7578260400D+00 EUMP2 =    -0.29036342930698D+04
 Leave Link  804 at Thu Apr  2 17:21:09 2020, MaxMem=  2147483648 cpu:             177.5 elap:              11.1
 (Enter /usr/local/g16/g16/l913.exe)
 CIDS:  MDV=  2147483648.
 Frozen-core window:  NFC=  11 NFV=   0.
 IFCWin=0 IBDFC=1 NFBD=     0     0 NFCmp=     0     0 NFFFC=     0     0
 Using DD3R+UMP44R for 1st iteration.
 Using DD4RQ for 2nd and later iterations.
 Keep R2 and R3 ints in memory in canonical form, NReq=393339864.
 FoFCou: FMM=F IPFlag=           0 FMFlag=           0 FMFlg1=           0
         NFxFlg=           0 DoJE=F BraDBF=F KetDBF=F FulRan=T
         wScrn=  0.000000 ICntrl=       600 IOpCl=  0 I1Cent=           0 NGrid=           0
         NMat0=    1 NMatS0=  19503 NMatT0=    0 NMatD0=    1 NMtDS0=    0 NMtDT0=    0
 Symmetry not used in FoFCou.
 Two-electron integral symmetry not used.
 CIDS: In Core Option IDoMem=           1.
 MP4(SDTQ)
 =========
 Produce multiple copies of IABC intergrals
 DD1Dir will call FoFMem   1 times, MxPair=       272
 NAB=   136 NAA=     0 NBB=     0.
 MP4(D)= -0.14957661D-01
 MP4(S)= -0.65370760D-02
 MP4(R+Q)=  0.15535961D-01
 T4(AAA)= -0.10582618D-02
 T4(AAB)= -0.14296471D-01
 Time for triples=     1770.00 seconds.
 MP4(T)=   -0.30709466D-01
 E3=       -0.11113827D-01        EUMP3=      -0.29036454069D+04
 E4(DQ)=    0.57829954D-03        UMP4(DQ)=   -0.29036448286D+04
 E4(SDQ)=  -0.59587764D-02        UMP4(SDQ)=  -0.29036513657D+04
 E4(SDTQ)= -0.36668242D-01        UMP4(SDTQ)= -0.29036820751D+04
 VARIATIONAL ENERGIES WITH THE FIRST-ORDER WAVEFUNCTION:
 E(VAR1)=  -0.29035201998D+04     E(CISD,4)=  -0.29035195032D+04
 Largest amplitude= 4.20D-02
 Discarding MO integrals.
 Leave Link  913 at Thu Apr  2 17:23:08 2020, MaxMem=  2147483648 cpu:            1892.3 elap:             118.5
 (Enter /usr/local/g16/g16/l601.exe)
 Copying SCF densities to generalized density rwf, IOpCl= 0 IROHF=0.

 **********************************************************************

            Population analysis using the SCF density.

 **********************************************************************

 Orbital symmetries:
       Occupied  (A) (A) (A) (A) (A) (A) (A) (A) (A) (A) (A) (A)
                 (A) (A) (A) (A) (A) (A) (A) (A) (A) (A) (A) (A)
                 (A) (A) (A)
       Virtual   (A) (A) (A) (A) (A) (A) (A) (A) (A) (A) (A) (A)
                 (A) (A) (A) (A) (A) (A) (A) (A) (A) (A) (A) (A)
                 (A) (A) (A) (A) (A) (A) (A) (A) (A) (A) (A) (A)
                 (A) (A) (A) (A) (A) (A) (A) (A) (A) (A) (A) (A)
                 (A) (A) (A) (A) (A) (A) (A) (A) (A) (A) (A) (A)
                 (A) (A) (A) (A) (A) (A) (A) (A) (A) (A) (A) (A)
                 (A) (A) (A) (A) (A) (A) (A) (A) (A) (A) (A) (A)
                 (A) (A) (A) (A) (A) (A) (A) (A) (A) (A) (A) (A)
                 (A) (A) (A) (A) (A) (A) (A) (A) (A) (A) (A) (A)
                 (A) (A) (A) (A) (A) (A) (A) (A) (A) (A) (A) (A)
                 (A) (A) (A) (A) (A) (A) (A) (A) (A) (A) (A) (A)
                 (A) (A) (A) (A) (A) (A) (A) (A) (A) (A) (A) (A)
                 (A) (A) (A) (A) (A) (A) (A) (A) (A) (A) (A) (A)
                 (A) (A) (A) (A) (A) (A) (A) (A) (A) (A) (A) (A)
                 (A) (A)
 The electronic state is 1-A.
 Alpha  occ. eigenvalues -- -520.18875 -69.92632 -63.03289 -63.03288 -63.03284
 Alpha  occ. eigenvalues --  -20.63059 -20.62796 -10.87297  -8.35516  -8.35499
 Alpha  occ. eigenvalues --   -8.35481  -3.84896  -3.84893  -3.84870  -3.84854
 Alpha  occ. eigenvalues --   -3.84849  -1.46864  -1.21739  -1.17930  -0.75688
 Alpha  occ. eigenvalues --   -0.66686  -0.60088  -0.55722  -0.54811  -0.54230
 Alpha  occ. eigenvalues --   -0.52552  -0.47563
 Alpha virt. eigenvalues --    0.03495   0.04551   0.08643   0.09602   0.11573
 Alpha virt. eigenvalues --    0.12957   0.14412   0.15678   0.18136   0.18879
 Alpha virt. eigenvalues --    0.19111   0.21117   0.22586   0.25928   0.26548
 Alpha virt. eigenvalues --    0.27519   0.28190   0.31352   0.33901   0.34342
 Alpha virt. eigenvalues --    0.35556   0.37358   0.39896   0.41333   0.42294
 Alpha virt. eigenvalues --    0.44395   0.46640   0.51306   0.57029   0.58859
 Alpha virt. eigenvalues --    0.60653   0.64651   0.66197   0.68929   0.72968
 Alpha virt. eigenvalues --    0.75101   0.77039   0.79054   0.81210   0.82452
 Alpha virt. eigenvalues --    0.83346   0.83658   0.85665   0.86572   0.89601
 Alpha virt. eigenvalues --    0.90879   0.92312   0.93819   0.95148   0.97667
 Alpha virt. eigenvalues --    0.99296   1.01055   1.02229   1.04209   1.04632
 Alpha virt. eigenvalues --    1.05573   1.10533   1.13635   1.14702   1.18401
 Alpha virt. eigenvalues --    1.18939   1.21249   1.24294   1.29716   1.32541
 Alpha virt. eigenvalues --    1.34912   1.43403   1.46234   1.48359   1.50036
 Alpha virt. eigenvalues --    1.52328   1.57075   1.59168   1.63777   1.69366
 Alpha virt. eigenvalues --    1.78875   1.81940   1.96933   2.06032   2.07753
 Alpha virt. eigenvalues --    2.15911   2.19573   2.22577   2.26804   2.32651
 Alpha virt. eigenvalues --    2.33075   2.36347   2.36736   2.41264   2.43545
 Alpha virt. eigenvalues --    2.45396   2.46154   2.48514   2.52127   2.52670
 Alpha virt. eigenvalues --    2.55020   2.58728   2.63885   2.65434   2.67674
 Alpha virt. eigenvalues --    2.68252   2.69879   2.70893   2.74973   2.77047
 Alpha virt. eigenvalues --    2.77593   2.78094   2.83696   2.87711   2.90499
 Alpha virt. eigenvalues --    2.92920   2.94094   2.98900   3.05073   3.07900
 Alpha virt. eigenvalues --    3.13594   3.20403   3.30187   3.31543   3.82402
 Alpha virt. eigenvalues --    3.90327   4.16065   4.22175   4.23325   4.26516
 Alpha virt. eigenvalues --    4.31927   4.40041   4.45823   4.47266   4.50088
 Alpha virt. eigenvalues --    4.58739   4.75187   4.86385   4.89127   4.96649
 Alpha virt. eigenvalues --    5.20462   5.25258   5.26139   5.37194   5.43939
 Alpha virt. eigenvalues --    5.45063   5.79705   6.18401   6.36099   6.47248
 Alpha virt. eigenvalues --    6.50054   6.62174   6.70047   6.75647   6.86391
 Alpha virt. eigenvalues --    6.99750   7.15578   7.17484   7.21188   7.22313
 Alpha virt. eigenvalues --    7.25502   7.28065   7.31527   7.33637   7.40095
 Alpha virt. eigenvalues --    7.48764   7.54261   7.61985   7.86863   7.90247
 Alpha virt. eigenvalues --    8.23783   8.47969   8.55243  14.73145  15.32121
          Condensed to atoms (all electrons):
               1          2          3          4          5
     1  O    8.136108  -0.086729   0.235034  -0.001082  -0.020519
     2  O   -0.086729   8.147990   0.010534   0.237032  -0.015560
     3  H    0.235034   0.010534   0.493868  -0.003572  -0.001086
     4  H   -0.001082   0.237032  -0.003572   0.495718  -0.006397
     5  Kr  -0.020519  -0.015560  -0.001086  -0.006397  36.031002
 Mulliken charges:
               1
     1  O   -0.262813
     2  O   -0.293268
     3  H    0.265221
     4  H    0.278300
     5  Kr   0.012560
 Sum of Mulliken charges =  -0.00000
 Mulliken charges with hydrogens summed into heavy atoms:
               1
     1  O    0.002408
     2  O   -0.014968
     5  Kr   0.012560
         Mulliken charges condensed to fragments:
      1     -0.012560
      2      0.012560
 Electronic spatial extent (au):  <R**2>=            479.8568
 Charge=              0.0000 electrons
 Dipole moment (field-independent basis, Debye):
    X=              2.7236    Y=             -0.2676    Z=              1.2967  Tot=              3.0284
 Quadrupole moment (field-independent basis, Debye-Ang):
   XX=            -37.7454   YY=            -27.8714   ZZ=            -29.1963
   XY=              1.1842   XZ=             -2.1099   YZ=             -1.6579
 Traceless Quadrupole moment (field-independent basis, Debye-Ang):
   XX=             -6.1410   YY=              3.7330   ZZ=              2.4080
   XY=              1.1842   XZ=             -2.1099   YZ=             -1.6579
 Octapole moment (field-independent basis, Debye-Ang**2):
  XXX=             41.7037  YYY=             -0.7336  ZZZ=              0.8277  XYY=              6.2636
  XXY=             -3.1514  XXZ=              2.5658  XZZ=              6.1509  YZZ=             -1.4198
  YYZ=              2.0310  XYZ=              2.6737
 Hexadecapole moment (field-independent basis, Debye-Ang**3):
 XXXX=           -461.1686 YYYY=            -62.1540 ZZZZ=            -28.8825 XXXY=              5.1028
 XXXZ=             -3.7616 YYYX=              2.2655 YYYZ=             -2.4257 ZZZX=             -1.7578
 ZZZY=             -1.5994 XXYY=            -83.8477 XXZZ=            -73.0469 YYZZ=            -15.8228
 XXYZ=             -4.4294 YYXZ=             -3.2373 ZZXY=              2.2649
 N-N= 1.502958878953D+02 E-N=-7.240607034130D+03  KE= 2.902647317082D+03
 Leave Link  601 at Thu Apr  2 17:23:08 2020, MaxMem=  2147483648 cpu:               0.5 elap:               0.0
 (Enter /usr/local/g16/g16/l122.exe)
 CPIOFr:  IOpCl= 0 IRwI=-1 IRwCP=  731 ICalc= -1 LCPTot=       59414 Len1MO=      159453 IndFrg=       59414
 CPIOFr:  IOpCl= 0 IRwI=-1 IRwCP=  731 ICalc=  0 LCPTot=       59414 Len1MO=      159453 IndFrg=      218867
 Counterpoise: doing calculation for fragment   1 using the basis set of the full-system, NewBq=T
 Leave Link  122 at Thu Apr  2 17:23:08 2020, MaxMem=  2147483648 cpu:               0.0 elap:               0.0
 (Enter /usr/local/g16/g16/l301.exe)
 Basis read from rwf:  (5D, 7F)
 No pseudopotential information found on rwf file.
 There are   229 symmetry adapted cartesian basis functions of A   symmetry.
 There are   197 symmetry adapted basis functions of A   symmetry.
   197 basis functions,   415 primitive gaussians,   229 cartesian basis functions
     9 alpha electrons        9 beta electrons
       nuclear repulsion energy        36.6440883394 Hartrees.
 IExCor=    0 DFT=F Ex=HF Corr=None ExCW=0 ScaHFX=  1.000000
 ScaDFX=  1.000000  1.000000  1.000000  1.000000 ScalE2=  1.000000  1.000000
 IRadAn=      5 IRanWt=     -1 IRanGd=            0 ICorTp=0 IEmpDi=  4
 NAtoms=    5 NActive=    5 NUniq=    5 SFac= 1.00D+00 NAtFMM=   60 NAOKFM=F Big=F
 Integral buffers will be    131072 words long.
 Raffenetti 1 integral format.
 Two-electron integral symmetry is turned on.
 No density basis found on file   718.
 Leave Link  301 at Thu Apr  2 17:23:08 2020, MaxMem=  2147483648 cpu:               0.4 elap:               0.0
 (Enter /usr/local/g16/g16/l302.exe)
 NPDir=0 NMtPBC=     1 NCelOv=     1 NCel=       1 NClECP=     1 NCelD=      1
         NCelK=      1 NCelE2=     1 NClLst=     1 CellRange=     0.0.
 One-electron integrals computed using PRISM.
 One-electron integral symmetry used in STVInt
 NBasis=   197 RedAO= T EigKep=  1.99D-04  NBF=   197
 NBsUse=   197 1.00D-06 EigRej= -1.00D+00 NBFU=   197
 Leave Link  302 at Thu Apr  2 17:23:08 2020, MaxMem=  2147483648 cpu:               1.8 elap:               0.1
 (Enter /usr/local/g16/g16/l303.exe)
 DipDrv:  MaxL=1.
 Leave Link  303 at Thu Apr  2 17:23:09 2020, MaxMem=  2147483648 cpu:               0.4 elap:               0.0
 (Enter /usr/local/g16/g16/l401.exe)
 ExpMin= 2.53D-02 ExpMax= 1.17D+07 ExpMxC= 1.33D+04 IAcc=3 IRadAn=         5 AccDes= 0.00D+00
 Harris functional with IExCor=  205 and IRadAn=       5 diagonalized for initial guess.
 HarFok:  IExCor=  205 AccDes= 0.00D+00 IRadAn=         5 IDoV= 1 UseB2=F ITyADJ=14
 ICtDFT=  3500011 ScaDFX=  1.000000  1.000000  1.000000  1.000000
 FoFCou: FMM=F IPFlag=           0 FMFlag=      100000 FMFlg1=           0
         NFxFlg=           0 DoJE=T BraDBF=F KetDBF=T FulRan=T
         wScrn=  0.000000 ICntrl=       500 IOpCl=  0 I1Cent=   200000004 NGrid=           0
         NMat0=    1 NMatS0=      1 NMatT0=    0 NMatD0=    1 NMtDS0=    0 NMtDT0=    0
 Petite list used in FoFCou.
 Harris En= -150.935328361492    
 JPrj=0 DoOrth=F DoCkMO=F.
 Leave Link  401 at Thu Apr  2 17:23:09 2020, MaxMem=  2147483648 cpu:               3.1 elap:               0.2
 (Enter /usr/local/g16/g16/l502.exe)
 Keep R1 ints in memory in canonical form, NReq=203138379.
 FoFCou: FMM=F IPFlag=           0 FMFlag=           0 FMFlg1=           0
         NFxFlg=           0 DoJE=F BraDBF=F KetDBF=F FulRan=T
         wScrn=  0.000000 ICntrl=       600 IOpCl=  0 I1Cent=           0 NGrid=           0
         NMat0=    1 NMatS0=  19503 NMatT0=    0 NMatD0=    1 NMtDS0=    0 NMtDT0=    0
 Symmetry not used in FoFCou.
 Two-electron integral symmetry not used.
 Closed shell SCF:
 Using DIIS extrapolation, IDIIS=  1040.
 NGot=  2147483648 LenX=  1957179903 LenY=  1957127021
 Requested convergence on RMS density matrix=1.00D-08 within 128 cycles.
 Requested convergence on MAX density matrix=1.00D-06.
 Requested convergence on             energy=1.00D-06.
 No special actions if energy rises.

 Cycle   1  Pass 1  IDiag  1:
 E= -150.769442175843    
 DIIS: error= 2.34D-02 at cycle   1 NSaved=   1.
 NSaved= 1 IEnMin= 1 EnMin= -150.769442175843     IErMin= 1 ErrMin= 2.34D-02
 ErrMax= 2.34D-02  0.00D+00 EMaxC= 1.00D-01 BMatC= 2.30D-01 BMatP= 2.30D-01
 IDIUse=3 WtCom= 7.66D-01 WtEn= 2.34D-01
 Coeff-Com:  0.100D+01
 Coeff-En:   0.100D+01
 Coeff:      0.100D+01
 Gap=     0.705 Goal=   None    Shift=    0.000
 GapD=    0.705 DampG=2.000 DampE=0.500 DampFc=1.0000 IDamp=-1.
 RMSDP=9.03D-04 MaxDP=2.88D-02              OVMax= 6.62D-02

 Cycle   2  Pass 1  IDiag  1:
 E= -150.823365867212     Delta-E=       -0.053923691369 Rises=F Damp=F
 DIIS: error= 6.43D-03 at cycle   2 NSaved=   2.
 NSaved= 2 IEnMin= 2 EnMin= -150.823365867212     IErMin= 2 ErrMin= 6.43D-03
 ErrMax= 6.43D-03  0.00D+00 EMaxC= 1.00D-01 BMatC= 1.69D-02 BMatP= 2.30D-01
 IDIUse=3 WtCom= 9.36D-01 WtEn= 6.43D-02
 Coeff-Com:  0.111D+00 0.889D+00
 Coeff-En:   0.000D+00 0.100D+01
 Coeff:      0.104D+00 0.896D+00
 Gap=     0.532 Goal=   None    Shift=    0.000
 RMSDP=5.13D-04 MaxDP=2.54D-02 DE=-5.39D-02 OVMax= 2.92D-02

 Cycle   3  Pass 1  IDiag  1:
 E= -150.831969756096     Delta-E=       -0.008603888884 Rises=F Damp=F
 DIIS: error= 2.76D-03 at cycle   3 NSaved=   3.
 NSaved= 3 IEnMin= 3 EnMin= -150.831969756096     IErMin= 3 ErrMin= 2.76D-03
 ErrMax= 2.76D-03  0.00D+00 EMaxC= 1.00D-01 BMatC= 2.39D-03 BMatP= 1.69D-02
 IDIUse=3 WtCom= 9.72D-01 WtEn= 2.76D-02
 Coeff-Com: -0.210D-01 0.252D+00 0.769D+00
 Coeff-En:   0.000D+00 0.000D+00 0.100D+01
 Coeff:     -0.205D-01 0.245D+00 0.775D+00
 Gap=     0.503 Goal=   None    Shift=    0.000
 RMSDP=1.16D-04 MaxDP=4.25D-03 DE=-8.60D-03 OVMax= 9.48D-03

 Cycle   4  Pass 1  IDiag  1:
 E= -150.833470322619     Delta-E=       -0.001500566523 Rises=F Damp=F
 DIIS: error= 2.10D-04 at cycle   4 NSaved=   4.
 NSaved= 4 IEnMin= 4 EnMin= -150.833470322619     IErMin= 4 ErrMin= 2.10D-04
 ErrMax= 2.10D-04  0.00D+00 EMaxC= 1.00D-01 BMatC= 1.55D-05 BMatP= 2.39D-03
 IDIUse=3 WtCom= 9.98D-01 WtEn= 2.10D-03
 Coeff-Com: -0.182D-02-0.108D-01 0.665D-02 0.101D+01
 Coeff-En:   0.000D+00 0.000D+00 0.000D+00 0.100D+01
 Coeff:     -0.182D-02-0.108D-01 0.664D-02 0.101D+01
 Gap=     0.504 Goal=   None    Shift=    0.000
 RMSDP=1.74D-05 MaxDP=4.53D-04 DE=-1.50D-03 OVMax= 1.43D-03

 Cycle   5  Pass 1  IDiag  1:
 E= -150.833493085369     Delta-E=       -0.000022762750 Rises=F Damp=F
 DIIS: error= 8.42D-05 at cycle   5 NSaved=   5.
 NSaved= 5 IEnMin= 5 EnMin= -150.833493085369     IErMin= 5 ErrMin= 8.42D-05
 ErrMax= 8.42D-05  0.00D+00 EMaxC= 1.00D-01 BMatC= 1.60D-06 BMatP= 1.55D-05
 IDIUse=1 WtCom= 1.00D+00 WtEn= 0.00D+00
 Coeff-Com:  0.174D-02-0.168D-01-0.587D-01-0.164D+00 0.124D+01
 Coeff:      0.174D-02-0.168D-01-0.587D-01-0.164D+00 0.124D+01
 Gap=     0.504 Goal=   None    Shift=    0.000
 RMSDP=9.63D-06 MaxDP=2.92D-04 DE=-2.28D-05 OVMax= 9.21D-04

 Cycle   6  Pass 1  IDiag  1:
 E= -150.833497102636     Delta-E=       -0.000004017267 Rises=F Damp=F
 DIIS: error= 1.73D-05 at cycle   6 NSaved=   6.
 NSaved= 6 IEnMin= 6 EnMin= -150.833497102636     IErMin= 6 ErrMin= 1.73D-05
 ErrMax= 1.73D-05  0.00D+00 EMaxC= 1.00D-01 BMatC= 8.85D-08 BMatP= 1.60D-06
 IDIUse=1 WtCom= 1.00D+00 WtEn= 0.00D+00
 Coeff-Com: -0.512D-03 0.605D-02 0.217D-01 0.323D-01-0.514D+00 0.145D+01
 Coeff:     -0.512D-03 0.605D-02 0.217D-01 0.323D-01-0.514D+00 0.145D+01
 Gap=     0.505 Goal=   None    Shift=    0.000
 RMSDP=3.16D-06 MaxDP=8.48D-05 DE=-4.02D-06 OVMax= 3.60D-04

 Cycle   7  Pass 1  IDiag  1:
 E= -150.833497404894     Delta-E=       -0.000000302258 Rises=F Damp=F
 DIIS: error= 4.37D-06 at cycle   7 NSaved=   7.
 NSaved= 7 IEnMin= 7 EnMin= -150.833497404894     IErMin= 7 ErrMin= 4.37D-06
 ErrMax= 4.37D-06  0.00D+00 EMaxC= 1.00D-01 BMatC= 5.56D-09 BMatP= 8.85D-08
 IDIUse=1 WtCom= 1.00D+00 WtEn= 0.00D+00
 Coeff-Com:  0.123D-03-0.168D-02-0.654D-02-0.469D-02 0.152D+00-0.579D+00
 Coeff-Com:  0.144D+01
 Coeff:      0.123D-03-0.168D-02-0.654D-02-0.469D-02 0.152D+00-0.579D+00
 Coeff:      0.144D+01
 Gap=     0.505 Goal=   None    Shift=    0.000
 RMSDP=7.70D-07 MaxDP=1.69D-05 DE=-3.02D-07 OVMax= 1.08D-04

 Cycle   8  Pass 1  IDiag  1:
 E= -150.833497426688     Delta-E=       -0.000000021794 Rises=F Damp=F
 DIIS: error= 1.46D-06 at cycle   8 NSaved=   8.
 NSaved= 8 IEnMin= 8 EnMin= -150.833497426688     IErMin= 8 ErrMin= 1.46D-06
 ErrMax= 1.46D-06  0.00D+00 EMaxC= 1.00D-01 BMatC= 7.54D-10 BMatP= 5.56D-09
 IDIUse=1 WtCom= 1.00D+00 WtEn= 0.00D+00
 Coeff-Com: -0.691D-05 0.222D-03 0.119D-02-0.236D-02-0.224D-01 0.154D+00
 Coeff-Com: -0.814D+00 0.168D+01
 Coeff:     -0.691D-05 0.222D-03 0.119D-02-0.236D-02-0.224D-01 0.154D+00
 Coeff:     -0.814D+00 0.168D+01
 Gap=     0.505 Goal=   None    Shift=    0.000
 RMSDP=3.36D-07 MaxDP=9.25D-06 DE=-2.18D-08 OVMax= 5.51D-05

 Cycle   9  Pass 1  IDiag  1:
 E= -150.833497430027     Delta-E=       -0.000000003339 Rises=F Damp=F
 DIIS: error= 3.70D-07 at cycle   9 NSaved=   9.
 NSaved= 9 IEnMin= 9 EnMin= -150.833497430027     IErMin= 9 ErrMin= 3.70D-07
 ErrMax= 3.70D-07  0.00D+00 EMaxC= 1.00D-01 BMatC= 5.40D-11 BMatP= 7.54D-10
 IDIUse=1 WtCom= 1.00D+00 WtEn= 0.00D+00
 Coeff-Com: -0.809D-05 0.118D-03 0.473D-03 0.444D-03-0.120D-01 0.489D-01
 Coeff-Com: -0.145D+00 0.111D+00 0.996D+00
 Coeff:     -0.809D-05 0.118D-03 0.473D-03 0.444D-03-0.120D-01 0.489D-01
 Coeff:     -0.145D+00 0.111D+00 0.996D+00
 Gap=     0.505 Goal=   None    Shift=    0.000
 RMSDP=5.48D-08 MaxDP=1.84D-06 DE=-3.34D-09 OVMax= 8.05D-06

 Cycle  10  Pass 1  IDiag  1:
 E= -150.833497430145     Delta-E=       -0.000000000119 Rises=F Damp=F
 DIIS: error= 2.00D-07 at cycle  10 NSaved=  10.
 NSaved=10 IEnMin=10 EnMin= -150.833497430145     IErMin=10 ErrMin= 2.00D-07
 ErrMax= 2.00D-07  0.00D+00 EMaxC= 1.00D-01 BMatC= 1.53D-11 BMatP= 5.40D-11
 IDIUse=1 WtCom= 1.00D+00 WtEn= 0.00D+00
 Coeff-Com: -0.883D-06-0.172D-04-0.143D-03 0.879D-03 0.104D-02-0.202D-01
 Coeff-Com:  0.148D+00-0.370D+00 0.331D+00 0.910D+00
 Coeff:     -0.883D-06-0.172D-04-0.143D-03 0.879D-03 0.104D-02-0.202D-01
 Coeff:      0.148D+00-0.370D+00 0.331D+00 0.910D+00
 Gap=     0.505 Goal=   None    Shift=    0.000
 RMSDP=2.56D-08 MaxDP=8.53D-07 DE=-1.19D-10 OVMax= 3.46D-06

 Cycle  11  Pass 1  IDiag  1:
 E= -150.833497430170     Delta-E=       -0.000000000024 Rises=F Damp=F
 DIIS: error= 4.04D-08 at cycle  11 NSaved=  11.
 NSaved=11 IEnMin=11 EnMin= -150.833497430170     IErMin=11 ErrMin= 4.04D-08
 ErrMax= 4.04D-08  0.00D+00 EMaxC= 1.00D-01 BMatC= 3.86D-13 BMatP= 1.53D-11
 IDIUse=1 WtCom= 1.00D+00 WtEn= 0.00D+00
 Coeff-Com:  0.941D-06-0.948D-05-0.230D-04-0.112D-03 0.740D-03-0.941D-03
 Coeff-Com: -0.110D-01 0.464D-01-0.122D+00-0.132D+00 0.122D+01
 Coeff:      0.941D-06-0.948D-05-0.230D-04-0.112D-03 0.740D-03-0.941D-03
 Coeff:     -0.110D-01 0.464D-01-0.122D+00-0.132D+00 0.122D+01
 Gap=     0.505 Goal=   None    Shift=    0.000
 RMSDP=5.72D-09 MaxDP=1.30D-07 DE=-2.43D-11 OVMax= 6.76D-07

 SCF Done:  E(RHF) =  -150.833497430     A.U. after   11 cycles
            NFock= 11  Conv=0.57D-08     -V/T= 2.0020
 KE= 1.505319934227D+02 PE=-4.314836762988D+02 EE= 9.347409710652D+01
 Leave Link  502 at Thu Apr  2 17:23:12 2020, MaxMem=  2147483648 cpu:              26.6 elap:               3.4
 (Enter /usr/local/g16/g16/l801.exe)
 Windowed orbitals will be sorted by symmetry type.
 ExpMin= 2.53D-02 ExpMax= 1.17D+07 ExpMxC= 1.33D+04 IAcc=3 IRadAn=         5 AccDes= 0.00D+00
 HarFok:  IExCor=  205 AccDes= 0.00D+00 IRadAn=         5 IDoV=-2 UseB2=F ITyADJ=14
 ICtDFT= 12500011 ScaDFX=  1.000000  1.000000  1.000000  1.000000
 Largest valence mixing into a core orbital is  1.19D-04
 Largest core mixing into a valence orbital is  2.07D-05
 Range of M.O.s used for correlation:     3   197
 NBasis=   197 NAE=     9 NBE=     9 NFC=     2 NFV=     0
 NROrb=    195 NOA=     7 NOB=     7 NVA=   188 NVB=   188

 **** Warning!!: The largest alpha MO coefficient is  0.14714164D+02

 Leave Link  801 at Thu Apr  2 17:23:12 2020, MaxMem=  2147483648 cpu:               0.6 elap:               0.0
 (Enter /usr/local/g16/g16/l804.exe)
 Closed-shell transformation, MDV=  2147483648 ITran=4 ISComp=1.
 Semi-Direct transformation.
 ModeAB=           2 MOrb=             7 LenV=    2146280197
 LASXX=     25261509 LTotXX=    25261509 LenRXX=    25261509
 LTotAB=    25646992 MaxLAS=    35947275 LenRXY=    35947275
 NonZer=    50523018 LenScr=    76544000 LnRSAI=           0
 LnScr1=           0 LExtra=           0 Total=    137752784
 MaxDsk=          -1 SrtSym=           F ITran=            4
 DoSDTr:  NPSUse= 16
 JobTyp=0 Pass  1:  I=   1 to   7.
 (rs|ai) integrals will be sorted in core.
 Complete sort for first half transformation.
 First half transformation complete.
 Complete sort for second half transformation.
 Second half transformation complete.
 SymMOI:  orbitals are not symmetric.
 Spin components of T(2) and E(2):
     alpha-alpha T2 =       0.1605426681D-01 E2=     -0.6287873689D-01
     alpha-beta  T2 =       0.9339116321D-01 E2=     -0.3822099960D+00
     beta-beta   T2 =       0.1605426681D-01 E2=     -0.6287873689D-01
 ANorm=    0.1060895705D+01
 E2 =    -0.5079674698D+00 EUMP2 =    -0.15134146489995D+03
 Leave Link  804 at Thu Apr  2 17:23:20 2020, MaxMem=  2147483648 cpu:             123.6 elap:               7.7
 (Enter /usr/local/g16/g16/l913.exe)
 CIDS:  MDV=  2147483648.
 Frozen-core window:  NFC=   2 NFV=   0.
 IFCWin=0 IBDFC=1 NFBD=     0     0 NFCmp=     0     0 NFFFC=     0     0
 Using DD3R+UMP44R for 1st iteration.
 Using DD4RQ for 2nd and later iterations.
 Keep R2 and R3 ints in memory in canonical form, NReq=393337056.
 FoFCou: FMM=F IPFlag=           0 FMFlag=           0 FMFlg1=           0
         NFxFlg=           0 DoJE=F BraDBF=F KetDBF=F FulRan=T
         wScrn=  0.000000 ICntrl=       600 IOpCl=  0 I1Cent=           0 NGrid=           0
         NMat0=    1 NMatS0=  19503 NMatT0=    0 NMatD0=    1 NMtDS0=    0 NMtDT0=    0
 Symmetry not used in FoFCou.
 Two-electron integral symmetry not used.
 CIDS: In Core Option IDoMem=           1.
 MP4(SDTQ)
 =========
 Produce multiple copies of IABC intergrals
 DD1Dir will call FoFMem   1 times, MxPair=        56
 NAB=    28 NAA=     0 NBB=     0.
 MP4(D)= -0.11260291D-01
 MP4(S)= -0.52261487D-02
 MP4(R+Q)=  0.10809421D-01
 T4(AAA)= -0.66382657D-03
 T4(AAB)= -0.10310818D-01
 Time for triples=      374.15 seconds.
 MP4(T)=   -0.21949288D-01
 E3=       -0.20187497D-02        EUMP3=      -0.15134348365D+03
 E4(DQ)=   -0.45087013D-03        UMP4(DQ)=   -0.15134393452D+03
 E4(SDQ)=  -0.56770188D-02        UMP4(SDQ)=  -0.15134916067D+03
 E4(SDTQ)= -0.27626307D-01        UMP4(SDTQ)= -0.15137110996D+03
 VARIATIONAL ENERGIES WITH THE FIRST-ORDER WAVEFUNCTION:
 E(VAR1)=  -0.15128661725D+03     E(CISD,4)=  -0.15129622033D+03
 Largest amplitude= 3.08D-02
 Discarding MO integrals.
 Leave Link  913 at Thu Apr  2 17:23:47 2020, MaxMem=  2147483648 cpu:             432.4 elap:              27.0
 (Enter /usr/local/g16/g16/l601.exe)
 Copying SCF densities to generalized density rwf, IOpCl= 0 IROHF=0.

 **********************************************************************

            Population analysis using the SCF density.

 **********************************************************************

 Orbital symmetries:
       Occupied  (A) (A) (A) (A) (A) (A) (A) (A) (A)
       Virtual   (A) (A) (A) (A) (A) (A) (A) (A) (A) (A) (A) (A)
                 (A) (A) (A) (A) (A) (A) (A) (A) (A) (A) (A) (A)
                 (A) (A) (A) (A) (A) (A) (A) (A) (A) (A) (A) (A)
                 (A) (A) (A) (A) (A) (A) (A) (A) (A) (A) (A) (A)
                 (A) (A) (A) (A) (A) (A) (A) (A) (A) (A) (A) (A)
                 (A) (A) (A) (A) (A) (A) (A) (A) (A) (A) (A) (A)
                 (A) (A) (A) (A) (A) (A) (A) (A) (A) (A) (A) (A)
                 (A) (A) (A) (A) (A) (A) (A) (A) (A) (A) (A) (A)
                 (A) (A) (A) (A) (A) (A) (A) (A) (A) (A) (A) (A)
                 (A) (A) (A) (A) (A) (A) (A) (A) (A) (A) (A) (A)
                 (A) (A) (A) (A) (A) (A) (A) (A) (A) (A) (A) (A)
                 (A) (A) (A) (A) (A) (A) (A) (A) (A) (A) (A) (A)
                 (A) (A) (A) (A) (A) (A) (A) (A) (A) (A) (A) (A)
                 (A) (A) (A) (A) (A) (A) (A) (A) (A) (A) (A) (A)
                 (A) (A) (A) (A) (A) (A) (A) (A) (A) (A) (A) (A)
                 (A) (A) (A) (A) (A) (A) (A) (A)
 The electronic state is 1-A.
 Alpha  occ. eigenvalues --  -20.63485 -20.63456  -1.47169  -1.22034  -0.75663
 Alpha  occ. eigenvalues --   -0.66682  -0.60134  -0.53538  -0.48014
 Alpha virt. eigenvalues --    0.02441   0.04087   0.07148   0.08131   0.10304
 Alpha virt. eigenvalues --    0.10648   0.13448   0.15273   0.17701   0.18309
 Alpha virt. eigenvalues --    0.19100   0.21150   0.22642   0.26579   0.27360
 Alpha virt. eigenvalues --    0.28317   0.30352   0.31005   0.34208   0.34624
 Alpha virt. eigenvalues --    0.35300   0.36622   0.38183   0.41107   0.42535
 Alpha virt. eigenvalues --    0.44006   0.45956   0.47816   0.49646   0.51916
 Alpha virt. eigenvalues --    0.55118   0.58876   0.64398   0.66491   0.70983
 Alpha virt. eigenvalues --    0.74522   0.77879   0.81144   0.81705   0.84122
 Alpha virt. eigenvalues --    0.85711   0.87213   0.91145   0.94442   0.94678
 Alpha virt. eigenvalues --    0.96544   0.97466   0.99373   1.01178   1.02483
 Alpha virt. eigenvalues --    1.05862   1.06318   1.07953   1.12409   1.14203
 Alpha virt. eigenvalues --    1.16391   1.17832   1.22427   1.24564   1.27343
 Alpha virt. eigenvalues --    1.30476   1.31050   1.31907   1.32733   1.34667
 Alpha virt. eigenvalues --    1.35458   1.36277   1.42431   1.43350   1.44224
 Alpha virt. eigenvalues --    1.52558   1.55019   1.57081   1.58695   1.61430
 Alpha virt. eigenvalues --    1.65100   1.70220   1.71006   1.81166   1.85358
 Alpha virt. eigenvalues --    1.89594   1.97968   2.06463   2.10980   2.16861
 Alpha virt. eigenvalues --    2.20142   2.24452   2.29710   2.33955   2.36587
 Alpha virt. eigenvalues --    2.42433   2.44264   2.47142   2.51021   2.51952
 Alpha virt. eigenvalues --    2.65908   2.69508   2.72078   2.76238   2.77267
 Alpha virt. eigenvalues --    2.81198   2.90558   2.98889   3.05811   3.11761
 Alpha virt. eigenvalues --    3.17171   3.24892   3.27722   3.28510   3.31804
 Alpha virt. eigenvalues --    3.45070   3.59350   3.76513   3.77737   3.79903
 Alpha virt. eigenvalues --    3.81754   3.81803   3.82441   3.82897   3.88950
 Alpha virt. eigenvalues --    3.91742   3.93906   3.95641   3.99814   4.03744
 Alpha virt. eigenvalues --    4.16464   4.18078   4.25027   4.26091   4.32626
 Alpha virt. eigenvalues --    4.35616   4.43906   4.46939   4.49460   4.52979
 Alpha virt. eigenvalues --    4.59453   4.76070   4.89445   4.96159   5.20053
 Alpha virt. eigenvalues --    5.25198   5.26187   5.37141   5.43798   5.45063
 Alpha virt. eigenvalues --    5.79209   6.18012   6.35207   6.46922   6.49767
 Alpha virt. eigenvalues --    6.61915   6.69756   6.75346   6.86129   6.99409
 Alpha virt. eigenvalues --    7.15121   7.17103   7.20662   7.21910   7.25063
 Alpha virt. eigenvalues --    7.27658   7.31184   7.33230   7.39647   7.48344
 Alpha virt. eigenvalues --    7.53860   7.61418   7.86397   7.89891   8.23323
 Alpha virt. eigenvalues --    8.47586   8.53747  10.95822  14.72372  14.82355
 Alpha virt. eigenvalues --   14.87791  15.07014  15.34220  29.01929  29.02273
 Alpha virt. eigenvalues --   29.06781  29.13735  29.22127  49.14037 148.30613
 Alpha virt. eigenvalues --  148.39431 148.70916 752.63770
          Condensed to atoms (all electrons):
               1          2          3          4          5
     1  O    8.107758  -0.085223   0.237995  -0.000463   0.001822
     2  O   -0.085223   8.129532   0.010291   0.231225  -0.001831
     3  H    0.237995   0.010291   0.491719  -0.002609  -0.001721
     4  H   -0.000463   0.231225  -0.002609   0.498193  -0.003664
     5  Kr   0.001822  -0.001831  -0.001721  -0.003664   0.001154
 Mulliken charges:
               1
     1  O   -0.261889
     2  O   -0.283993
     3  H    0.264324
     4  H    0.277318
     5  Kr   0.004239
 Sum of Mulliken charges =   0.00000
 Mulliken charges with hydrogens summed into heavy atoms:
               1
     1  O    0.002436
     2  O   -0.006675
     5  Kr   0.004239
         Mulliken charges condensed to fragments:
      1     -0.004239
      2      0.004239
 Electronic spatial extent (au):  <R**2>=            318.3722
 Charge=              0.0000 electrons
 Dipole moment (field-independent basis, Debye):
    X=              2.4519    Y=             -0.1300    Z=              1.4492  Tot=              2.8512
 Quadrupole moment (field-independent basis, Debye-Ang):
   XX=            -20.0693   YY=            -10.1959   ZZ=            -11.5856
   XY=              1.2754   XZ=             -1.9988   YZ=             -1.6854
 Traceless Quadrupole moment (field-independent basis, Debye-Ang):
   XX=             -6.1190   YY=              3.7544   ZZ=              2.3647
   XY=              1.2754   XZ=             -1.9988   YZ=             -1.6854
 Octapole moment (field-independent basis, Debye-Ang**2):
  XXX=             91.7286  YYY=             -0.8399  ZZZ=              0.9117  XYY=             23.2706
  XXY=             -3.0387  XXZ=              2.6549  XZZ=             23.2282  YZZ=             -1.4583
  YYZ=              2.0632  XYZ=              2.6759
 Hexadecapole moment (field-independent basis, Debye-Ang**3):
 XXXX=           -340.8049 YYYY=            -43.8892 ZZZZ=            -10.7140 XXXY=              4.9266
 XXXZ=             -3.6021 YYYX=              2.2288 YYYZ=             -2.4716 ZZZX=             -1.7427
 ZZZY=             -1.6429 XXYY=            -60.8005 XXZZ=            -50.2287 YYZZ=             -9.7405
 XXYZ=             -4.4364 YYXZ=             -3.2193 ZZXY=              2.2240
 N-N= 3.664408833937D+01 E-N=-4.314836759961D+02  KE= 1.505319934227D+02
 Leave Link  601 at Thu Apr  2 17:23:47 2020, MaxMem=  2147483648 cpu:               0.5 elap:               0.0
 (Enter /usr/local/g16/g16/l122.exe)
 CPIOFr:  IOpCl= 0 IRwI=-1 IRwCP=  731 ICalc=  1 LCPTot=       59414 Len1MO=      159453 IndFrg=      378320
 Counterpoise: doing calculation for fragment   2 using the basis set of the full-system, NewBq=T
 Leave Link  122 at Thu Apr  2 17:23:47 2020, MaxMem=  2147483648 cpu:               0.0 elap:               0.0
 (Enter /usr/local/g16/g16/l301.exe)
 Basis read from rwf:  (5D, 7F)
 No pseudopotential information found on rwf file.
 There are   229 symmetry adapted cartesian basis functions of A   symmetry.
 There are   197 symmetry adapted basis functions of A   symmetry.
   197 basis functions,   415 primitive gaussians,   229 cartesian basis functions
    18 alpha electrons       18 beta electrons
       nuclear repulsion energy         0.0000000000 Hartrees.
 IExCor=    0 DFT=F Ex=HF Corr=None ExCW=0 ScaHFX=  1.000000
 ScaDFX=  1.000000  1.000000  1.000000  1.000000 ScalE2=  1.000000  1.000000
 IRadAn=      5 IRanWt=     -1 IRanGd=            0 ICorTp=0 IEmpDi=  4
 NAtoms=    5 NActive=    5 NUniq=    5 SFac= 1.00D+00 NAtFMM=   60 NAOKFM=F Big=F
 Integral buffers will be    131072 words long.
 Raffenetti 1 integral format.
 Two-electron integral symmetry is turned on.
 No density basis found on file   718.
 Leave Link  301 at Thu Apr  2 17:23:47 2020, MaxMem=  2147483648 cpu:               0.4 elap:               0.0
 (Enter /usr/local/g16/g16/l302.exe)
 NPDir=0 NMtPBC=     1 NCelOv=     1 NCel=       1 NClECP=     1 NCelD=      1
         NCelK=      1 NCelE2=     1 NClLst=     1 CellRange=     0.0.
 One-electron integrals computed using PRISM.
 One-electron integral symmetry used in STVInt
 NBasis=   197 RedAO= T EigKep=  1.99D-04  NBF=   197
 NBsUse=   197 1.00D-06 EigRej= -1.00D+00 NBFU=   197
 Leave Link  302 at Thu Apr  2 17:23:48 2020, MaxMem=  2147483648 cpu:               1.7 elap:               0.1
 (Enter /usr/local/g16/g16/l303.exe)
 DipDrv:  MaxL=1.
 Leave Link  303 at Thu Apr  2 17:23:48 2020, MaxMem=  2147483648 cpu:               0.4 elap:               0.0
 (Enter /usr/local/g16/g16/l401.exe)
 ExpMin= 2.53D-02 ExpMax= 1.17D+07 ExpMxC= 1.33D+04 IAcc=3 IRadAn=         5 AccDes= 0.00D+00
 Harris functional with IExCor=  205 and IRadAn=       5 diagonalized for initial guess.
 HarFok:  IExCor=  205 AccDes= 0.00D+00 IRadAn=         5 IDoV= 1 UseB2=F ITyADJ=14
 ICtDFT=  3500011 ScaDFX=  1.000000  1.000000  1.000000  1.000000
 FoFCou: FMM=F IPFlag=           0 FMFlag=      100000 FMFlg1=           0
         NFxFlg=           0 DoJE=T BraDBF=F KetDBF=T FulRan=T
         wScrn=  0.000000 ICntrl=       500 IOpCl=  0 I1Cent=   200000004 NGrid=           0
         NMat0=    1 NMatS0=      1 NMatT0=    0 NMatD0=    1 NMtDS0=    0 NMtDT0=    0
 Petite list used in FoFCou.
 Harris En= -2751.06007400806    
 JPrj=0 DoOrth=F DoCkMO=F.
 Leave Link  401 at Thu Apr  2 17:23:48 2020, MaxMem=  2147483648 cpu:               3.1 elap:               0.2
 (Enter /usr/local/g16/g16/l502.exe)
 Keep R1 ints in memory in canonical form, NReq=203138379.
 FoFCou: FMM=F IPFlag=           0 FMFlag=           0 FMFlg1=           0
         NFxFlg=           0 DoJE=F BraDBF=F KetDBF=F FulRan=T
         wScrn=  0.000000 ICntrl=       600 IOpCl=  0 I1Cent=           0 NGrid=           0
         NMat0=    1 NMatS0=  19503 NMatT0=    0 NMatD0=    1 NMtDS0=    0 NMtDT0=    0
 Symmetry not used in FoFCou.
 Two-electron integral symmetry not used.
 Closed shell SCF:
 Using DIIS extrapolation, IDIIS=  1040.
 NGot=  2147483648 LenX=  1957179903 LenY=  1957127021
 Requested convergence on RMS density matrix=1.00D-08 within 128 cycles.
 Requested convergence on MAX density matrix=1.00D-06.
 Requested convergence on             energy=1.00D-06.
 No special actions if energy rises.

 Cycle   1  Pass 1  IDiag  1:
 E= -2752.00358583926    
 DIIS: error= 4.45D-02 at cycle   1 NSaved=   1.
 NSaved= 1 IEnMin= 1 EnMin= -2752.00358583926     IErMin= 1 ErrMin= 4.45D-02
 ErrMax= 4.45D-02  0.00D+00 EMaxC= 1.00D-01 BMatC= 4.30D-01 BMatP= 4.30D-01
 IDIUse=3 WtCom= 5.55D-01 WtEn= 4.45D-01
 Coeff-Com:  0.100D+01
 Coeff-En:   0.100D+01
 Coeff:      0.100D+01
 Gap=     0.630 Goal=   None    Shift=    0.000
 GapD=    0.630 DampG=2.000 DampE=0.500 DampFc=1.0000 IDamp=-1.
 RMSDP=1.75D-03 MaxDP=1.30D-01              OVMax= 2.38D-02

 Cycle   2  Pass 1  IDiag  1:
 E= -2752.04697882355     Delta-E=       -0.043392984288 Rises=F Damp=F
 DIIS: error= 6.40D-03 at cycle   2 NSaved=   2.
 NSaved= 2 IEnMin= 2 EnMin= -2752.04697882355     IErMin= 2 ErrMin= 6.40D-03
 ErrMax= 6.40D-03  0.00D+00 EMaxC= 1.00D-01 BMatC= 1.97D-02 BMatP= 4.30D-01
 IDIUse=3 WtCom= 9.36D-01 WtEn= 6.40D-02
 Coeff-Com:  0.152D+00 0.848D+00
 Coeff-En:   0.000D+00 0.100D+01
 Coeff:      0.142D+00 0.858D+00
 Gap=     0.545 Goal=   None    Shift=    0.000
 RMSDP=5.63D-04 MaxDP=3.51D-02 DE=-4.34D-02 OVMax= 1.31D-02

 Cycle   3  Pass 1  IDiag  1:
 E= -2752.05205888064     Delta-E=       -0.005080057088 Rises=F Damp=F
 DIIS: error= 1.15D-03 at cycle   3 NSaved=   3.
 NSaved= 3 IEnMin= 3 EnMin= -2752.05205888064     IErMin= 3 ErrMin= 1.15D-03
 ErrMax= 1.15D-03  0.00D+00 EMaxC= 1.00D-01 BMatC= 7.03D-04 BMatP= 1.97D-02
 IDIUse=3 WtCom= 9.88D-01 WtEn= 1.15D-02
 Coeff-Com: -0.129D-02 0.154D+00 0.847D+00
 Coeff-En:   0.000D+00 0.000D+00 0.100D+01
 Coeff:     -0.127D-02 0.152D+00 0.849D+00
 Gap=     0.556 Goal=   None    Shift=    0.000
 RMSDP=7.41D-05 MaxDP=4.36D-03 DE=-5.08D-03 OVMax= 2.87D-03

 Cycle   4  Pass 1  IDiag  1:
 E= -2752.05226766397     Delta-E=       -0.000208783326 Rises=F Damp=F
 DIIS: error= 3.79D-05 at cycle   4 NSaved=   4.
 NSaved= 4 IEnMin= 4 EnMin= -2752.05226766397     IErMin= 4 ErrMin= 3.79D-05
 ErrMax= 3.79D-05  0.00D+00 EMaxC= 1.00D-01 BMatC= 6.99D-07 BMatP= 7.03D-04
 IDIUse=1 WtCom= 1.00D+00 WtEn= 0.00D+00
 Coeff-Com: -0.363D-03-0.174D-01-0.593D-01 0.108D+01
 Coeff:     -0.363D-03-0.174D-01-0.593D-01 0.108D+01
 Gap=     0.555 Goal=   None    Shift=    0.000
 RMSDP=6.03D-06 MaxDP=2.86D-04 DE=-2.09D-04 OVMax= 2.69D-04

 Cycle   5  Pass 1  IDiag  1:
 E= -2752.05226809125     Delta-E=       -0.000000427283 Rises=F Damp=F
 DIIS: error= 3.11D-06 at cycle   5 NSaved=   5.
 NSaved= 5 IEnMin= 5 EnMin= -2752.05226809125     IErMin= 5 ErrMin= 3.11D-06
 ErrMax= 3.11D-06  0.00D+00 EMaxC= 1.00D-01 BMatC= 6.06D-09 BMatP= 6.99D-07
 IDIUse=1 WtCom= 1.00D+00 WtEn= 0.00D+00
 Coeff-Com:  0.613D-04 0.847D-05-0.518D-02-0.847D-01 0.109D+01
 Coeff:      0.613D-04 0.847D-05-0.518D-02-0.847D-01 0.109D+01
 Gap=     0.555 Goal=   None    Shift=    0.000
 RMSDP=6.70D-07 MaxDP=2.87D-05 DE=-4.27D-07 OVMax= 2.77D-05

 Cycle   6  Pass 1  IDiag  1:
 E= -2752.05226809711     Delta-E=       -0.000000005859 Rises=F Damp=F
 DIIS: error= 3.02D-07 at cycle   6 NSaved=   6.
 NSaved= 6 IEnMin= 6 EnMin= -2752.05226809711     IErMin= 6 ErrMin= 3.02D-07
 ErrMax= 3.02D-07  0.00D+00 EMaxC= 1.00D-01 BMatC= 4.12D-11 BMatP= 6.06D-09
 IDIUse=1 WtCom= 1.00D+00 WtEn= 0.00D+00
 Coeff-Com: -0.301D-05 0.978D-04 0.871D-03-0.187D-02-0.934D-01 0.109D+01
 Coeff:     -0.301D-05 0.978D-04 0.871D-03-0.187D-02-0.934D-01 0.109D+01
 Gap=     0.555 Goal=   None    Shift=    0.000
 RMSDP=6.35D-08 MaxDP=3.77D-06 DE=-5.86D-09 OVMax= 3.32D-06

 Cycle   7  Pass 1  IDiag  1:
 E= -2752.05226809715     Delta-E=       -0.000000000044 Rises=F Damp=F
 DIIS: error= 1.67D-08 at cycle   7 NSaved=   7.
 NSaved= 7 IEnMin= 7 EnMin= -2752.05226809715     IErMin= 7 ErrMin= 1.67D-08
 ErrMax= 1.67D-08  0.00D+00 EMaxC= 1.00D-01 BMatC= 1.47D-13 BMatP= 4.12D-11
 IDIUse=1 WtCom= 1.00D+00 WtEn= 0.00D+00
 Coeff-Com:  0.639D-07-0.404D-05-0.360D-04 0.240D-03 0.318D-02-0.678D-01
 Coeff-Com:  0.106D+01
 Coeff:      0.639D-07-0.404D-05-0.360D-04 0.240D-03 0.318D-02-0.678D-01
 Coeff:      0.106D+01
 Gap=     0.555 Goal=   None    Shift=    0.000
 RMSDP=5.63D-09 MaxDP=2.10D-07 DE=-4.41D-11 OVMax= 2.51D-07

 SCF Done:  E(RHF) =  -2752.05226810     A.U. after    7 cycles
            NFock=  7  Conv=0.56D-08     -V/T= 2.0000
 KE= 2.752039297376D+03 PE=-6.582554220518D+03 EE= 1.078462655045D+03
 Leave Link  502 at Thu Apr  2 17:23:50 2020, MaxMem=  2147483648 cpu:              25.1 elap:               2.7
 (Enter /usr/local/g16/g16/l801.exe)
 Windowed orbitals will be sorted by symmetry type.
 ExpMin= 2.53D-02 ExpMax= 1.17D+07 ExpMxC= 1.33D+04 IAcc=3 IRadAn=         5 AccDes= 0.00D+00
 HarFok:  IExCor=  205 AccDes= 0.00D+00 IRadAn=         5 IDoV=-2 UseB2=F ITyADJ=14
 ICtDFT= 12500011 ScaDFX=  1.000000  1.000000  1.000000  1.000000
 Largest valence mixing into a core orbital is  9.81D-05
 Largest core mixing into a valence orbital is  3.83D-05
 Range of M.O.s used for correlation:    10   197
 NBasis=   197 NAE=    18 NBE=    18 NFC=     9 NFV=     0
 NROrb=    188 NOA=     9 NOB=     9 NVA=   179 NVB=   179

 **** Warning!!: The largest alpha MO coefficient is  0.13986186D+02

 Leave Link  801 at Thu Apr  2 17:23:51 2020, MaxMem=  2147483648 cpu:               0.6 elap:               0.0
 (Enter /usr/local/g16/g16/l804.exe)
 Closed-shell transformation, MDV=  2147483648 ITran=4 ISComp=1.
 Semi-Direct transformation.
 ModeAB=           2 MOrb=             9 LenV=    2146334688
 LASXX=     28892340 LTotXX=    28892340 LenRXX=    28892340
 LTotAB=    29348001 MaxLAS=    44558820 LenRXY=    44558820
 NonZer=    57784680 LenScr=    87449600 LnRSAI=           0
 LnScr1=           0 LExtra=           0 Total=    160900760
 MaxDsk=          -1 SrtSym=           F ITran=            4
 DoSDTr:  NPSUse= 16
 JobTyp=0 Pass  1:  I=   1 to   9.
 (rs|ai) integrals will be sorted in core.
 Complete sort for first half transformation.
 First half transformation complete.
 Complete sort for second half transformation.
 Second half transformation complete.
 SymMOI:  orbitals are not symmetric.
 Spin components of T(2) and E(2):
     alpha-alpha T2 =       0.9504290250D-02 E2=     -0.3582361934D-01
     alpha-beta  T2 =       0.4819254587D-01 E2=     -0.1724253865D+00
     beta-beta   T2 =       0.9504290250D-02 E2=     -0.3582361934D-01
 ANorm=    0.1033054271D+01
 E2 =    -0.2440726252D+00 EUMP2 =    -0.27522963407224D+04
 Leave Link  804 at Thu Apr  2 17:23:59 2020, MaxMem=  2147483648 cpu:             133.9 elap:               8.4
 (Enter /usr/local/g16/g16/l913.exe)
 CIDS:  MDV=  2147483648.
 Frozen-core window:  NFC=   9 NFV=   0.
 IFCWin=0 IBDFC=1 NFBD=     0     0 NFCmp=     0     0 NFFFC=     0     0
 Using DD3R+UMP44R for 1st iteration.
 Using DD4RQ for 2nd and later iterations.
 Keep R2 and R3 ints in memory in canonical form, NReq=393337646.
 FoFCou: FMM=F IPFlag=           0 FMFlag=           0 FMFlg1=           0
         NFxFlg=           0 DoJE=F BraDBF=F KetDBF=F FulRan=T
         wScrn=  0.000000 ICntrl=       600 IOpCl=  0 I1Cent=           0 NGrid=           0
         NMat0=    1 NMatS0=  19503 NMatT0=    0 NMatD0=    1 NMtDS0=    0 NMtDT0=    0
 Symmetry not used in FoFCou.
 Two-electron integral symmetry not used.
 CIDS: In Core Option IDoMem=           1.
 MP4(SDTQ)
 =========
 Produce multiple copies of IABC intergrals
 DD1Dir will call FoFMem   1 times, MxPair=        90
 NAB=    45 NAA=     0 NBB=     0.
 MP4(D)= -0.37228073D-02
 MP4(S)= -0.10907422D-02
 MP4(R+Q)=  0.42502989D-02
 T4(AAA)= -0.32584188D-03
 T4(AAB)= -0.35661566D-02
 Time for triples=      478.99 seconds.
 MP4(T)=   -0.77839970D-02
 E3=       -0.98565454D-02        EUMP3=      -0.27523061973D+04
 E4(DQ)=    0.52749164D-03        UMP4(DQ)=   -0.27523056698D+04
 E4(SDQ)=  -0.56325054D-03        UMP4(SDQ)=  -0.27523067605D+04
 E4(SDTQ)= -0.83472475D-02        UMP4(SDTQ)= -0.27523145445D+04
 VARIATIONAL ENERGIES WITH THE FIRST-ORDER WAVEFUNCTION:
 E(VAR1)=  -0.27522902075D+04     E(CISD,4)=  -0.27522946089D+04
 Largest amplitude= 1.31D-02
 Discarding MO integrals.
 Leave Link  913 at Thu Apr  2 17:24:33 2020, MaxMem=  2147483648 cpu:             545.4 elap:              34.1
 (Enter /usr/local/g16/g16/l601.exe)
 Copying SCF densities to generalized density rwf, IOpCl= 0 IROHF=0.

 **********************************************************************

            Population analysis using the SCF density.

 **********************************************************************

 Orbital symmetries:
       Occupied  (A) (A) (A) (A) (A) (A) (A) (A) (A) (A) (A) (A)
                 (A) (A) (A) (A) (A) (A)
       Virtual   (A) (A) (A) (A) (A) (A) (A) (A) (A) (A) (A) (A)
                 (A) (A) (A) (A) (A) (A) (A) (A) (A) (A) (A) (A)
                 (A) (A) (A) (A) (A) (A) (A) (A) (A) (A) (A) (A)
                 (A) (A) (A) (A) (A) (A) (A) (A) (A) (A) (A) (A)
                 (A) (A) (A) (A) (A) (A) (A) (A) (A) (A) (A) (A)
                 (A) (A) (A) (A) (A) (A) (A) (A) (A) (A) (A) (A)
                 (A) (A) (A) (A) (A) (A) (A) (A) (A) (A) (A) (A)
                 (A) (A) (A) (A) (A) (A) (A) (A) (A) (A) (A) (A)
                 (A) (A) (A) (A) (A) (A) (A) (A) (A) (A) (A) (A)
                 (A) (A) (A) (A) (A) (A) (A) (A) (A) (A) (A) (A)
                 (A) (A) (A) (A) (A) (A) (A) (A) (A) (A) (A) (A)
                 (A) (A) (A) (A) (A) (A) (A) (A) (A) (A) (A) (A)
                 (A) (A) (A) (A) (A) (A) (A) (A) (A) (A) (A) (A)
                 (A) (A) (A) (A) (A) (A) (A) (A) (A) (A) (A) (A)
                 (A) (A) (A) (A) (A) (A) (A) (A) (A) (A) (A)
 The electronic state is 1-A.
 Alpha  occ. eigenvalues -- -520.16581 -69.90315 -63.00973 -63.00973 -63.00972
 Alpha  occ. eigenvalues --  -10.84954  -8.33154  -8.33154  -8.33153  -3.82531
 Alpha  occ. eigenvalues --   -3.82531  -3.82531  -3.82530  -3.82530  -1.15311
 Alpha  occ. eigenvalues --   -0.52431  -0.52429  -0.52428
 Alpha virt. eigenvalues --    0.03088   0.04982   0.08703   0.09377   0.12274
 Alpha virt. eigenvalues --    0.12738   0.13531   0.13841   0.16166   0.17249
 Alpha virt. eigenvalues --    0.18001   0.19557   0.21552   0.27058   0.28303
 Alpha virt. eigenvalues --    0.29242   0.29946   0.32691   0.34601   0.36098
 Alpha virt. eigenvalues --    0.37189   0.38605   0.39996   0.41597   0.42487
 Alpha virt. eigenvalues --    0.42673   0.46285   0.55698   0.58013   0.61676
 Alpha virt. eigenvalues --    0.62424   0.66861   0.68812   0.70299   0.72899
 Alpha virt. eigenvalues --    0.74653   0.77820   0.79588   0.81103   0.82719
 Alpha virt. eigenvalues --    0.83830   0.85888   0.87126   0.88207   0.89880
 Alpha virt. eigenvalues --    0.90764   0.91488   0.92768   0.94226   0.98451
 Alpha virt. eigenvalues --    0.99386   1.01384   1.03452   1.04353   1.06057
 Alpha virt. eigenvalues --    1.07814   1.10422   1.12995   1.16679   1.20907
 Alpha virt. eigenvalues --    1.21525   1.24923   1.27144   1.34153   1.34635
 Alpha virt. eigenvalues --    1.37454   1.40669   1.51135   1.51788   1.54792
 Alpha virt. eigenvalues --    1.57172   1.59747   1.65311   1.71450   1.79818
 Alpha virt. eigenvalues --    1.82207   1.83451   1.88903   1.96648   2.25466
 Alpha virt. eigenvalues --    2.31746   2.35941   2.37346   2.38611   2.39110
 Alpha virt. eigenvalues --    2.43253   2.44139   2.45505   2.50346   2.51548
 Alpha virt. eigenvalues --    2.53788   2.54850   2.56348   2.58224   2.60035
 Alpha virt. eigenvalues --    2.62367   2.65068   2.67492   2.68852   2.71125
 Alpha virt. eigenvalues --    2.72036   2.72549   2.80232   2.80969   2.83106
 Alpha virt. eigenvalues --    2.83243   2.88819   2.91417   2.92662   2.96866
 Alpha virt. eigenvalues --    3.01117   3.06055   3.08015   3.10768   3.18826
 Alpha virt. eigenvalues --    3.20540   3.28952   3.32177   3.40595   3.46768
 Alpha virt. eigenvalues --    3.61888   3.67274   3.82038   3.86964   4.03181
 Alpha virt. eigenvalues --    4.46895   4.51182   4.54917   4.60310   4.70276
 Alpha virt. eigenvalues --    4.80493   4.86126   4.89237   4.98367   5.10844
 Alpha virt. eigenvalues --    5.15302   5.28217   5.55853   5.70023   5.85091
 Alpha virt. eigenvalues --    5.89391   5.96032   6.16738   6.80243   6.82588
 Alpha virt. eigenvalues --    7.37918   7.44805   7.57018   7.67264   7.72514
 Alpha virt. eigenvalues --    7.81101   7.97656   8.16398   8.17332   8.23965
 Alpha virt. eigenvalues --    8.34544   8.50185   8.59595   8.90071   9.60076
 Alpha virt. eigenvalues --    9.74811   9.83826   9.86456   9.94701   9.98159
 Alpha virt. eigenvalues --   10.16892  10.24387  10.50613  10.94667  11.56550
 Alpha virt. eigenvalues --   11.60353  11.79861  12.01143  12.07669  13.19782
 Alpha virt. eigenvalues --   13.71096  14.51797  62.77337  64.67636
          Condensed to atoms (all electrons):
               1          2          3          4          5
     1  O    0.000374  -0.000463  -0.000188   0.000265  -0.002040
     2  O   -0.000463   0.001664   0.000153  -0.001115  -0.002867
     3  H   -0.000188   0.000153   0.000186  -0.000101  -0.000926
     4  H    0.000265  -0.001115  -0.000101   0.001054  -0.007591
     5  Kr  -0.002040  -0.002867  -0.000926  -0.007591  36.026465
 Mulliken charges:
               1
     1  O    0.002052
     2  O    0.002627
     3  H    0.000876
     4  H    0.007488
     5  Kr  -0.013043
 Sum of Mulliken charges =  -0.00000
 Mulliken charges with hydrogens summed into heavy atoms:
               1
     1  O    0.002928
     2  O    0.010115
     5  Kr  -0.013043
         Mulliken charges condensed to fragments:
      1      0.013043
      2     -0.013043
 Electronic spatial extent (au):  <R**2>=            161.6582
 Charge=             -0.0000 electrons
 Dipole moment (field-independent basis, Debye):
    X=             -0.0009    Y=              0.0004    Z=              0.0001  Tot=              0.0010
 Quadrupole moment (field-independent basis, Debye-Ang):
   XX=            -17.7266   YY=            -17.7325   ZZ=            -17.7367
   XY=             -0.0014   XZ=             -0.0012   YZ=             -0.0005
 Traceless Quadrupole moment (field-independent basis, Debye-Ang):
   XX=              0.0053   YY=             -0.0005   ZZ=             -0.0048
   XY=             -0.0014   XZ=             -0.0012   YZ=             -0.0005
 Octapole moment (field-independent basis, Debye-Ang**2):
  XXX=            -51.8277  YYY=              0.2564  ZZZ=              0.1749  XYY=            -17.2831
  XXY=              0.0810  XXZ=              0.0565  XZZ=            -17.2864  YZZ=              0.0855
  YYZ=              0.0589  XYZ=              0.0000
 Hexadecapole moment (field-independent basis, Debye-Ang**3):
 XXXX=           -119.5437 YYYY=            -18.5425 ZZZZ=            -18.5577 XXXY=              0.2405
 XXXZ=              0.1670 YYYX=              0.2431 YYYZ=             -0.0008 ZZZX=              0.1682
 ZZZY=             -0.0007 XXYY=            -23.0200 XXZZ=            -23.0246 YYZZ=             -6.1829
 XXYZ=             -0.0010 YYXZ=              0.0558 ZZXY=              0.0807
 N-N= 0.000000000000D+00 E-N=-6.582554222054D+03  KE= 2.752039297376D+03
 Leave Link  601 at Thu Apr  2 17:24:33 2020, MaxMem=  2147483648 cpu:               0.5 elap:               0.0
 (Enter /usr/local/g16/g16/l122.exe)
 CPIOFr:  IOpCl= 0 IRwI=-1 IRwCP=  731 ICalc=  2 LCPTot=       59414 Len1MO=      159453 IndFrg=      537773
 Counterpoise: doing calculation for fragment   1 using the basis set of the fragment.
 Leave Link  122 at Thu Apr  2 17:24:33 2020, MaxMem=  2147483648 cpu:               0.0 elap:               0.0
 (Enter /usr/local/g16/g16/l301.exe)
 Basis read from rwf:  (5D, 7F)
 No pseudopotential information found on rwf file.
 There are   160 symmetry adapted cartesian basis functions of A   symmetry.
 There are   138 symmetry adapted basis functions of A   symmetry.
   138 basis functions,   198 primitive gaussians,   160 cartesian basis functions
     9 alpha electrons        9 beta electrons
       nuclear repulsion energy        36.6440883394 Hartrees.
 IExCor=    0 DFT=F Ex=HF Corr=None ExCW=0 ScaHFX=  1.000000
 ScaDFX=  1.000000  1.000000  1.000000  1.000000 ScalE2=  1.000000  1.000000
 IRadAn=      5 IRanWt=     -1 IRanGd=            0 ICorTp=0 IEmpDi=  4
 NAtoms=    5 NActive=    4 NUniq=    4 SFac= 1.00D+00 NAtFMM=   60 NAOKFM=F Big=F
 Integral buffers will be    131072 words long.
 Raffenetti 1 integral format.
 Two-electron integral symmetry is turned on.
 No density basis found on file   718.
 Leave Link  301 at Thu Apr  2 17:24:33 2020, MaxMem=  2147483648 cpu:               0.4 elap:               0.0
 (Enter /usr/local/g16/g16/l302.exe)
 NPDir=0 NMtPBC=     1 NCelOv=     1 NCel=       1 NClECP=     1 NCelD=      1
         NCelK=      1 NCelE2=     1 NClLst=     1 CellRange=     0.0.
 One-electron integrals computed using PRISM.
 One-electron integral symmetry used in STVInt
 NBasis=   138 RedAO= T EigKep=  2.45D-04  NBF=   138
 NBsUse=   138 1.00D-06 EigRej= -1.00D+00 NBFU=   138
 Leave Link  302 at Thu Apr  2 17:24:34 2020, MaxMem=  2147483648 cpu:               1.4 elap:               0.1
 (Enter /usr/local/g16/g16/l303.exe)
 DipDrv:  MaxL=1.
 Leave Link  303 at Thu Apr  2 17:24:34 2020, MaxMem=  2147483648 cpu:               0.4 elap:               0.0
 (Enter /usr/local/g16/g16/l401.exe)
 ExpMin= 2.53D-02 ExpMax= 1.53D+04 ExpMxC= 5.22D+02 IAcc=3 IRadAn=         5 AccDes= 0.00D+00
 Harris functional with IExCor=  205 and IRadAn=       5 diagonalized for initial guess.
 HarFok:  IExCor=  205 AccDes= 0.00D+00 IRadAn=         5 IDoV= 1 UseB2=F ITyADJ=14
 ICtDFT=  3500011 ScaDFX=  1.000000  1.000000  1.000000  1.000000
 FoFCou: FMM=F IPFlag=           0 FMFlag=      100000 FMFlg1=           0
         NFxFlg=           0 DoJE=T BraDBF=F KetDBF=T FulRan=T
         wScrn=  0.000000 ICntrl=       500 IOpCl=  0 I1Cent=   200000004 NGrid=           0
         NMat0=    1 NMatS0=      1 NMatT0=    0 NMatD0=    1 NMtDS0=    0 NMtDT0=    0
 Petite list used in FoFCou.
 Harris En= -150.935239773267    
 JPrj=0 DoOrth=F DoCkMO=F.
 Leave Link  401 at Thu Apr  2 17:24:34 2020, MaxMem=  2147483648 cpu:               2.3 elap:               0.1
 (Enter /usr/local/g16/g16/l502.exe)
 Keep R1 ints in memory in canonical form, NReq=53860811.
 FoFCou: FMM=F IPFlag=           0 FMFlag=           0 FMFlg1=           0
         NFxFlg=           0 DoJE=F BraDBF=F KetDBF=F FulRan=T
         wScrn=  0.000000 ICntrl=       600 IOpCl=  0 I1Cent=           0 NGrid=           0
         NMat0=    1 NMatS0=   9591 NMatT0=    0 NMatD0=    1 NMtDS0=    0 NMtDT0=    0
 Symmetry not used in FoFCou.
 Two-electron integral symmetry not used.
 Closed shell SCF:
 Using DIIS extrapolation, IDIIS=  1040.
 NGot=  2147483648 LenX=  2101430001 LenY=  2101403960
 Requested convergence on RMS density matrix=1.00D-08 within 128 cycles.
 Requested convergence on MAX density matrix=1.00D-06.
 Requested convergence on             energy=1.00D-06.
 No special actions if energy rises.

 Cycle   1  Pass 1  IDiag  1:
 E= -150.769391115032    
 DIIS: error= 3.77D-02 at cycle   1 NSaved=   1.
 NSaved= 1 IEnMin= 1 EnMin= -150.769391115032     IErMin= 1 ErrMin= 3.77D-02
 ErrMax= 3.77D-02  0.00D+00 EMaxC= 1.00D-01 BMatC= 2.29D-01 BMatP= 2.29D-01
 IDIUse=3 WtCom= 6.23D-01 WtEn= 3.77D-01
 Coeff-Com:  0.100D+01
 Coeff-En:   0.100D+01
 Coeff:      0.100D+01
 Gap=     0.705 Goal=   None    Shift=    0.000
 GapD=    0.705 DampG=2.000 DampE=0.500 DampFc=1.0000 IDamp=-1.
 RMSDP=1.28D-03 MaxDP=2.85D-02              OVMax= 6.61D-02

 Cycle   2  Pass 1  IDiag  1:
 E= -150.823298010857     Delta-E=       -0.053906895825 Rises=F Damp=F
 DIIS: error= 1.04D-02 at cycle   2 NSaved=   2.
 NSaved= 2 IEnMin= 2 EnMin= -150.823298010857     IErMin= 2 ErrMin= 1.04D-02
 ErrMax= 1.04D-02  0.00D+00 EMaxC= 1.00D-01 BMatC= 1.69D-02 BMatP= 2.29D-01
 IDIUse=3 WtCom= 8.96D-01 WtEn= 1.04D-01
 Coeff-Com:  0.111D+00 0.889D+00
 Coeff-En:   0.000D+00 0.100D+01
 Coeff:      0.995D-01 0.900D+00
 Gap=     0.536 Goal=   None    Shift=    0.000
 RMSDP=7.27D-04 MaxDP=2.52D-02 DE=-5.39D-02 OVMax= 2.93D-02

 Cycle   3  Pass 1  IDiag  1:
 E= -150.831855943706     Delta-E=       -0.008557932849 Rises=F Damp=F
 DIIS: error= 4.24D-03 at cycle   3 NSaved=   3.
 NSaved= 3 IEnMin= 3 EnMin= -150.831855943706     IErMin= 3 ErrMin= 4.24D-03
 ErrMax= 4.24D-03  0.00D+00 EMaxC= 1.00D-01 BMatC= 2.47D-03 BMatP= 1.69D-02
 IDIUse=3 WtCom= 9.58D-01 WtEn= 4.24D-02
 Coeff-Com: -0.211D-01 0.256D+00 0.766D+00
 Coeff-En:   0.000D+00 0.000D+00 0.100D+01
 Coeff:     -0.202D-01 0.245D+00 0.775D+00
 Gap=     0.507 Goal=   None    Shift=    0.000
 RMSDP=1.68D-04 MaxDP=4.33D-03 DE=-8.56D-03 OVMax= 9.63D-03

 Cycle   4  Pass 1  IDiag  1:
 E= -150.833398758285     Delta-E=       -0.001542814579 Rises=F Damp=F
 DIIS: error= 4.32D-04 at cycle   4 NSaved=   4.
 NSaved= 4 IEnMin= 4 EnMin= -150.833398758285     IErMin= 4 ErrMin= 4.32D-04
 ErrMax= 4.32D-04  0.00D+00 EMaxC= 1.00D-01 BMatC= 1.66D-05 BMatP= 2.47D-03
 IDIUse=3 WtCom= 9.96D-01 WtEn= 4.32D-03
 Coeff-Com: -0.183D-02-0.117D-01 0.122D-01 0.100D+01
 Coeff-En:   0.000D+00 0.000D+00 0.000D+00 0.100D+01
 Coeff:     -0.182D-02-0.116D-01 0.121D-01 0.100D+01
 Gap=     0.508 Goal=   None    Shift=    0.000
 RMSDP=2.44D-05 MaxDP=4.30D-04 DE=-1.54D-03 OVMax= 1.44D-03

 Cycle   5  Pass 1  IDiag  1:
 E= -150.833422178113     Delta-E=       -0.000023419828 Rises=F Damp=F
 DIIS: error= 1.33D-04 at cycle   5 NSaved=   5.
 NSaved= 5 IEnMin= 5 EnMin= -150.833422178113     IErMin= 5 ErrMin= 1.33D-04
 ErrMax= 1.33D-04  0.00D+00 EMaxC= 1.00D-01 BMatC= 1.60D-06 BMatP= 1.66D-05
 IDIUse=3 WtCom= 9.99D-01 WtEn= 1.33D-03
 Coeff-Com:  0.174D-02-0.169D-01-0.593D-01-0.163D+00 0.124D+01
 Coeff-En:   0.000D+00 0.000D+00 0.000D+00 0.000D+00 0.100D+01
 Coeff:      0.174D-02-0.169D-01-0.593D-01-0.163D+00 0.124D+01
 Gap=     0.509 Goal=   None    Shift=    0.000
 RMSDP=1.36D-05 MaxDP=2.68D-04 DE=-2.34D-05 OVMax= 9.19D-04

 Cycle   6  Pass 1  IDiag  1:
[...]
 Symmetry not used in FoFCou.
 Two-electron integral symmetry not used.
 Closed shell SCF:
 Using DIIS extrapolation, IDIIS=  1040.
 NGot=  2147483648 LenX=  2101430001 LenY=  2101403960
 Requested convergence on RMS density matrix=1.00D-08 within 128 cycles.
 Requested convergence on MAX density matrix=1.00D-06.
 Requested convergence on             energy=1.00D-06.
 No special actions if energy rises.

 Cycle   1  Pass 1  IDiag  1:
 E= -150.833426517599    
 DIIS: error= 7.15D-11 at cycle   1 NSaved=   1.
 NSaved= 1 IEnMin= 1 EnMin= -150.833426517599     IErMin= 1 ErrMin= 7.15D-11
 ErrMax= 7.15D-11  0.00D+00 EMaxC= 1.00D-01 BMatC= 5.98D-19 BMatP= 5.98D-19
 IDIUse=1 WtCom= 1.00D+00 WtEn= 0.00D+00
 Coeff-Com:  0.100D+01
 Coeff:      0.100D+01
 Gap=     0.880 Goal=   None    Shift=    0.000
 RMSDP=4.47D-12 MaxDP=1.37D-10              OVMax= 3.06D-10

 SCF Done:  E(RHF) =  -150.833426518     A.U. after    1 cycles
            NFock=  1  Conv=0.45D-11     -V/T= 2.0020
 KE= 1.505323319488D+02 PE=-4.314829421035D+02 EE= 9.347309529772D+01
 Leave Link  502 at Thu Apr  2 18:40:45 2020, MaxMem=  2147483648 cpu:               7.7 elap:               0.5
 (Enter /usr/local/g16/g16/l801.exe)
 Windowed orbitals will be sorted by symmetry type.
 ExpMin= 2.53D-02 ExpMax= 1.53D+04 ExpMxC= 5.22D+02 IAcc=3 IRadAn=         5 AccDes= 0.00D+00
 HarFok:  IExCor=  205 AccDes= 0.00D+00 IRadAn=         5 IDoV=-2 UseB2=F ITyADJ=14
 ICtDFT= 12500011 ScaDFX=  1.000000  1.000000  1.000000  1.000000
 Largest valence mixing into a core orbital is  1.19D-04
 Largest core mixing into a valence orbital is  2.07D-05
 Range of M.O.s used for correlation:     3   138
 NBasis=   138 NAE=     9 NBE=     9 NFC=     2 NFV=     0
 NROrb=    136 NOA=     7 NOB=     7 NVA=   129 NVB=   129

 **** Warning!!: The largest alpha MO coefficient is  0.15872813D+02

 Leave Link  801 at Thu Apr  2 18:40:45 2020, MaxMem=  2147483648 cpu:               0.5 elap:               0.0
 (Enter /usr/local/g16/g16/l804.exe)
 Closed-shell transformation, MDV=  2147483648 ITran=4 ISComp=1.
 Semi-Direct transformation.
 ModeAB=           2 MOrb=             7 LenV=    2146849405
 LASXX=      8463147 LTotXX=     8463147 LenRXX=     8463147
 LTotAB=     8647912 MaxLAS=    12261760 LenRXY=    12261760
 NonZer=    16926294 LenScr=    26146816 LnRSAI=           0
 LnScr1=           0 LExtra=           0 Total=     46871723
 MaxDsk=          -1 SrtSym=           F ITran=            4
 DoSDTr:  NPSUse= 16
 JobTyp=0 Pass  1:  I=   1 to   7.
 (rs|ai) integrals will be sorted in core.
 Complete sort for first half transformation.
 First half transformation complete.
 Complete sort for second half transformation.
 Second half transformation complete.
 SymMOI:  orbitals are not symmetric.
 Spin components of T(2) and E(2):
     alpha-alpha T2 =       0.1605330783D-01 E2=     -0.6287089917D-01
     alpha-beta  T2 =       0.9338246012D-01 E2=     -0.3820315906D+00
     beta-beta   T2 =       0.1605330783D-01 E2=     -0.6287089917D-01
 ANorm=    0.1060890699D+01
 E2 =    -0.5077733890D+00 EUMP2 =    -0.15134119990659D+03
 Leave Link  804 at Thu Apr  2 18:40:47 2020, MaxMem=  2147483648 cpu:              27.5 elap:               1.7
 (Enter /usr/local/g16/g16/l913.exe)
 CIDS:  MDV=  2147483648.
 Frozen-core window:  NFC=   2 NFV=   0.
 IFCWin=0 IBDFC=1 NFBD=     0     0 NFCmp=     0     0 NFFFC=     0     0
 Using DD3R+UMP44R for 1st iteration.
 Using DD4RQ for 2nd and later iterations.
 Keep R2 and R3 ints in memory in canonical form, NReq=99863705.
 FoFCou: FMM=F IPFlag=           0 FMFlag=           0 FMFlg1=           0
         NFxFlg=           0 DoJE=F BraDBF=F KetDBF=F FulRan=T
         wScrn=  0.000000 ICntrl=       600 IOpCl=  0 I1Cent=           0 NGrid=           0
         NMat0=    1 NMatS0=   9591 NMatT0=    0 NMatD0=    1 NMtDS0=    0 NMtDT0=    0
 Symmetry not used in FoFCou.
 Two-electron integral symmetry not used.
 CIDS: In Core Option IDoMem=           1.
 MP4(SDTQ)
 =========
 Produce multiple copies of IABC intergrals
 DD1Dir will call FoFMem   1 times, MxPair=        56
 NAB=    28 NAA=     0 NBB=     0.
 MP4(D)= -0.11257680D-01
 MP4(S)= -0.52247346D-02
 MP4(R+Q)=  0.10800232D-01
 T4(AAA)= -0.66317510D-03
 T4(AAB)= -0.10301028D-01
 Time for triples=       94.65 seconds.
 MP4(T)=   -0.21928407D-01
 E3=       -0.20181074D-02        EUMP3=      -0.15134321801D+03
 E4(DQ)=   -0.45744787D-03        UMP4(DQ)=   -0.15134367546D+03
 E4(SDQ)=  -0.56821824D-02        UMP4(SDQ)=  -0.15134890020D+03
 E4(SDTQ)= -0.27610589D-01        UMP4(SDTQ)= -0.15137082860D+03
 VARIATIONAL ENERGIES WITH THE FIRST-ORDER WAVEFUNCTION:
 E(VAR1)=  -0.15128637760D+03     E(CISD,4)=  -0.15129598041D+03
 Largest amplitude= 4.53D-02
 Discarding MO integrals.
 Leave Link  913 at Thu Apr  2 18:40:54 2020, MaxMem=  2147483648 cpu:             117.8 elap:               7.4
 (Enter /usr/local/g16/g16/l122.exe)
 CPIOFr:  IOpCl= 0 IRwI=-1 IRwCP=  731 ICalc=  3 LCPTot=       59414 Len1MO=      159453 IndFrg=      697226
 Restoring MOs from calculation   5 to rwf and chk.
 CPIOFr:  IOpCl= 0 IRwI=-2 IRwCP=20731 ICalc=  4 LCPTot=       59414 Len1MO=      159453 IndFrg=      856679
 CPIOFr:  IOpCl= 0 IRwI= 4 IRwCP=20731 ICalc=  4 LCPTot=       59414 Len1MO=      159453 IndFrg=      856679
 Counterpoise: doing calculation for fragment   2 using the basis set of the fragment.
 Leave Link  122 at Thu Apr  2 18:40:54 2020, MaxMem=  2147483648 cpu:               0.1 elap:               0.0
 (Enter /usr/local/g16/g16/l301.exe)
 Basis read from rwf:  (5D, 7F)
 No pseudopotential information found on rwf file.
 There are    69 symmetry adapted cartesian basis functions of A   symmetry.
 There are    59 symmetry adapted basis functions of A   symmetry.
    59 basis functions,   217 primitive gaussians,    69 cartesian basis functions
    18 alpha electrons       18 beta electrons
       nuclear repulsion energy         0.0000000000 Hartrees.
 IExCor=    0 DFT=F Ex=HF Corr=None ExCW=0 ScaHFX=  1.000000
 ScaDFX=  1.000000  1.000000  1.000000  1.000000 ScalE2=  1.000000  1.000000
 IRadAn=      5 IRanWt=     -1 IRanGd=            0 ICorTp=0 IEmpDi=  4
 NAtoms=    5 NActive=    1 NUniq=    1 SFac= 1.00D+00 NAtFMM=   60 NAOKFM=F Big=F
 Integral buffers will be    131072 words long.
 Raffenetti 1 integral format.
 Two-electron integral symmetry is turned on.
 No density basis found on file   718.
 Leave Link  301 at Thu Apr  2 18:40:54 2020, MaxMem=  2147483648 cpu:               0.4 elap:               0.0
 (Enter /usr/local/g16/g16/l302.exe)
 NPDir=0 NMtPBC=     1 NCelOv=     1 NCel=       1 NClECP=     1 NCelD=      1
         NCelK=      1 NCelE2=     1 NClLst=     1 CellRange=     0.0.
 One-electron integrals computed using PRISM.
 One-electron integral symmetry used in STVInt
 NBasis=    59 RedAO= T EigKep=  1.06D-02  NBF=    59
 NBsUse=    59 1.00D-06 EigRej= -1.00D+00 NBFU=    59
 Leave Link  302 at Thu Apr  2 18:40:54 2020, MaxMem=  2147483648 cpu:               1.3 elap:               0.1
 (Enter /usr/local/g16/g16/l303.exe)
 DipDrv:  MaxL=1.
 Leave Link  303 at Thu Apr  2 18:40:54 2020, MaxMem=  2147483648 cpu:               0.3 elap:               0.0
 (Enter /usr/local/g16/g16/l401.exe)
 Initial guess from the checkpoint file:  "/mnt/driveB/scratch/matheus/Gau-60243.chk"
 B after Tr=     0.062989    0.000112    0.000077
         Rot=    1.000000    0.000000    0.000000    0.000000 Ang=   0.00 deg.
 Guess basis will be translated and rotated to current coordinates.
 JPrj=2 DoOrth=T DoCkMO=T.
 Generating alternative initial guess.
 ExpMin= 4.00D-02 ExpMax= 1.17D+07 ExpMxC= 1.33D+04 IAcc=3 IRadAn=         5 AccDes= 0.00D+00
 Harris functional with IExCor=  205 and IRadAn=       5 diagonalized for initial guess.
 HarFok:  IExCor=  205 AccDes= 0.00D+00 IRadAn=         5 IDoV= 1 UseB2=F ITyADJ=14
 ICtDFT=  3500011 ScaDFX=  1.000000  1.000000  1.000000  1.000000
 FoFCou: FMM=F IPFlag=           0 FMFlag=      100000 FMFlg1=           0
         NFxFlg=           0 DoJE=T BraDBF=F KetDBF=T FulRan=T
         wScrn=  0.000000 ICntrl=       500 IOpCl=  0 I1Cent=   200000004 NGrid=           0
         NMat0=    1 NMatS0=      1 NMatT0=    0 NMatD0=    1 NMtDS0=    0 NMtDT0=    0
 Petite list used in FoFCou.
 Harris En= -2751.05937170533    
 Leave Link  401 at Thu Apr  2 18:40:54 2020, MaxMem=  2147483648 cpu:               2.3 elap:               0.1
 (Enter /usr/local/g16/g16/l502.exe)
 Keep R1 ints in memory in canonical form, NReq=14291944.
 FoFCou: FMM=F IPFlag=           0 FMFlag=           0 FMFlg1=           0
         NFxFlg=           0 DoJE=F BraDBF=F KetDBF=F FulRan=T
         wScrn=  0.000000 ICntrl=       600 IOpCl=  0 I1Cent=           0 NGrid=           0
         NMat0=    1 NMatS0=   1770 NMatT0=    0 NMatD0=    1 NMtDS0=    0 NMtDT0=    0
 Symmetry not used in FoFCou.
 Two-electron integral symmetry not used.
 Closed shell SCF:
 Using DIIS extrapolation, IDIIS=  1040.
 NGot=  2147483648 LenX=  2145904888 LenY=  2145899686
 Requested convergence on RMS density matrix=1.00D-08 within 128 cycles.
 Requested convergence on MAX density matrix=1.00D-06.
 Requested convergence on             energy=1.00D-06.
 No special actions if energy rises.

 Cycle   1  Pass 1  IDiag  1:
 E= -2752.05222307625    
 DIIS: error= 3.49D-13 at cycle   1 NSaved=   1.
 NSaved= 1 IEnMin= 1 EnMin= -2752.05222307625     IErMin= 1 ErrMin= 3.49D-13
 ErrMax= 3.49D-13  0.00D+00 EMaxC= 1.00D-01 BMatC= 1.92D-24 BMatP= 1.92D-24
 IDIUse=1 WtCom= 1.00D+00 WtEn= 0.00D+00
 Coeff-Com:  0.100D+01
 Coeff:      0.100D+01
 Gap=     0.719 Goal=   None    Shift=    0.000
 RMSDP=1.09D-14 MaxDP=3.34D-13              OVMax= 5.79D-14

 SCF Done:  E(RHF) =  -2752.05222308     A.U. after    1 cycles
            NFock=  1  Conv=0.11D-13     -V/T= 2.0000
 KE= 2.752048106937D+03 PE=-6.582565276257D+03 EE= 1.078464946243D+03
 Leave Link  502 at Thu Apr  2 18:40:55 2020, MaxMem=  2147483648 cpu:               9.3 elap:               0.6
 (Enter /usr/local/g16/g16/l801.exe)
 Windowed orbitals will be sorted by symmetry type.
 ExpMin= 4.00D-02 ExpMax= 1.17D+07 ExpMxC= 1.33D+04 IAcc=3 IRadAn=         5 AccDes= 0.00D+00
 HarFok:  IExCor=  205 AccDes= 0.00D+00 IRadAn=         5 IDoV=-2 UseB2=F ITyADJ=14
 ICtDFT= 12500011 ScaDFX=  1.000000  1.000000  1.000000  1.000000
 Largest valence mixing into a core orbital is  9.79D-05
 Largest core mixing into a valence orbital is  3.83D-05
 Range of M.O.s used for correlation:    10    59
 NBasis=    59 NAE=    18 NBE=    18 NFC=     9 NFV=     0
 NROrb=     50 NOA=     9 NOB=     9 NVA=    41 NVB=    41
 Leave Link  801 at Thu Apr  2 18:40:55 2020, MaxMem=  2147483648 cpu:               0.5 elap:               0.0
 (Enter /usr/local/g16/g16/l804.exe)
 Closed-shell transformation, MDV=  2147483648 ITran=4 ISComp=1.
 Semi-Direct transformation.
 ModeAB=           2 MOrb=             9 LenV=    2147140326
 LASXX=       482211 LTotXX=      482211 LenRXX=      482211
 LTotAB=      511245 MaxLAS=     1086750 LenRXY=     1086750
 NonZer=     1162350 LenScr=     2357760 LnRSAI=           0
 LnScr1=           0 LExtra=           0 Total=      3926721
 MaxDsk=          -1 SrtSym=           F ITran=            4
 DoSDTr:  NPSUse= 16
 JobTyp=0 Pass  1:  I=   1 to   9.
 (rs|ai) integrals will be sorted in core.
 Complete sort for first half transformation.
 First half transformation complete.
 Complete sort for second half transformation.
 Second half transformation complete.
 SymMOI:  orbitals are not symmetric.
 Spin components of T(2) and E(2):
     alpha-alpha T2 =       0.9484485167D-02 E2=     -0.3552398032D-01
     alpha-beta  T2 =       0.4799866946D-01 E2=     -0.1708433112D+00
     beta-beta   T2 =       0.9484485167D-02 E2=     -0.3552398032D-01
 ANorm=    0.1032941257D+01
 E2 =    -0.2418912719D+00 EUMP2 =    -0.27522941143481D+04
 Leave Link  804 at Thu Apr  2 18:40:55 2020, MaxMem=  2147483648 cpu:               5.4 elap:               0.3
 (Enter /usr/local/g16/g16/l913.exe)
 CIDS:  MDV=  2147483648.
 Frozen-core window:  NFC=   9 NFV=   0.
 IFCWin=0 IBDFC=1 NFBD=     0     0 NFCmp=     0     0 NFFFC=     0     0
 Using DD3R+UMP44R for 1st iteration.
 Using DD4RQ for 2nd and later iterations.
 Keep R2 and R3 ints in memory in canonical form, NReq=15862484.
 FoFCou: FMM=F IPFlag=           0 FMFlag=           0 FMFlg1=           0
         NFxFlg=           0 DoJE=F BraDBF=F KetDBF=F FulRan=T
         wScrn=  0.000000 ICntrl=       600 IOpCl=  0 I1Cent=           0 NGrid=           0
         NMat0=    1 NMatS0=   1770 NMatT0=    0 NMatD0=    1 NMtDS0=    0 NMtDT0=    0
 Symmetry not used in FoFCou.
 Two-electron integral symmetry not used.
 CIDS: In Core Option IDoMem=           1.
 MP4(SDTQ)
 =========
 Produce multiple copies of IABC intergrals
 DD1Dir will call FoFMem   1 times, MxPair=        90
 NAB=    45 NAA=     0 NBB=     0.
 MP4(D)= -0.36913093D-02
 MP4(S)= -0.10734540D-02
 MP4(R+Q)=  0.42077927D-02
 T4(AAA)= -0.32336090D-03
 T4(AAB)= -0.35259699D-02
 Time for triples=        3.38 seconds.
 MP4(T)=   -0.76986616D-02
 E3=       -0.99406389D-02        EUMP3=      -0.27523040550D+04
 E4(DQ)=    0.51648341D-03        UMP4(DQ)=   -0.27523035385D+04
 E4(SDQ)=  -0.55697064D-03        UMP4(SDQ)=  -0.27523046120D+04
 E4(SDTQ)= -0.82556322D-02        UMP4(SDTQ)= -0.27523123106D+04
 VARIATIONAL ENERGIES WITH THE FIRST-ORDER WAVEFUNCTION:
 E(VAR1)=  -0.27522882489D+04     E(CISD,4)=  -0.27522926209D+04
 Largest amplitude= 2.14D-02
 Discarding MO integrals.
 Leave Link  913 at Thu Apr  2 18:40:56 2020, MaxMem=  2147483648 cpu:              13.6 elap:               0.9
 (Enter /usr/local/g16/g16/l122.exe)
 CPIOFr:  IOpCl= 0 IRwI=-1 IRwCP=  731 ICalc=  4 LCPTot=       59414 Len1MO=      159453 IndFrg=      856679
 Restoring MOs from calculation   1 to rwf.
 CPIOFr:  IOpCl= 0 IRwI=-2 IRwCP=  731 ICalc=  0 LCPTot=       59414 Len1MO=      159453 IndFrg=      218867
 Counterpoise corrected energy =   -2903.683441843905
                   BSSE energy =       0.000234546529
              sum of fragments =   -2903.683139222304
           complexation energy =      -0.34 kcal/mole (raw)
           complexation energy =      -0.19 kcal/mole (corrected)
 Leave Link  122 at Thu Apr  2 18:40:56 2020, MaxMem=  2147483648 cpu:               0.1 elap:               0.0
 (Enter /usr/local/g16/g16/l108.exe)
 Scan completed.
 
 Summary of the potential surface scan, energies are +2752 a.u.:
   N      R1          SCF          MP2          MP3         MP4DQ       MP4SDQ       MP4SDTQ  
 ----  ---------  -----------  -----------  -----------  -----------  -----------  -----------
    1     3.0000     -0.05222     -0.29411     -0.30405     -0.30354     -0.30461     -0.31231
    2     3.1000     -0.05222     -0.29411     -0.30405     -0.30354     -0.30461     -0.31231
    3     3.2000     -0.05222     -0.29411     -0.30405     -0.30354     -0.30461     -0.31231
    4     3.3000     -0.05222     -0.29411     -0.30405     -0.30354     -0.30461     -0.31231
    5     3.4000     -0.05222     -0.29411     -0.30405     -0.30354     -0.30461     -0.31231
    6     3.5000     -0.05222     -0.29411     -0.30405     -0.30354     -0.30461     -0.31231
    7     3.6000     -0.05222     -0.29411     -0.30405     -0.30354     -0.30461     -0.31231
    8     3.7000     -0.05222     -0.29411     -0.30405     -0.30354     -0.30461     -0.31231
    9     3.8000     -0.05222     -0.29411     -0.30405     -0.30354     -0.30461     -0.31231
   10     3.9000     -0.05222     -0.29411     -0.30405     -0.30354     -0.30461     -0.31231
   11     4.0000     -0.05222     -0.29411     -0.30405     -0.30354     -0.30461     -0.31231
   12     4.1000     -0.05222     -0.29411     -0.30405     -0.30354     -0.30461     -0.31231
   13     4.2000     -0.05222     -0.29411     -0.30405     -0.30354     -0.30461     -0.31231
   14     4.3000     -0.05222     -0.29411     -0.30405     -0.30354     -0.30461     -0.31231
   15     4.4000     -0.05222     -0.29411     -0.30405     -0.30354     -0.30461     -0.31231
   16     4.5000     -0.05222     -0.29411     -0.30405     -0.30354     -0.30461     -0.31231
   17     4.6000     -0.05222     -0.29411     -0.30405     -0.30354     -0.30461     -0.31231
   18     4.7000     -0.05222     -0.29411     -0.30405     -0.30354     -0.30461     -0.31231
   19     4.8000     -0.05222     -0.29411     -0.30405     -0.30354     -0.30461     -0.31231
   20     4.9000     -0.05222     -0.29411     -0.30405     -0.30354     -0.30461     -0.31231
   21     5.0000     -0.05222     -0.29411     -0.30405     -0.30354     -0.30461     -0.31231
 ----  ---------  -----------  -----------  -----------  -----------  -----------  -----------
  
 Leave Link  108 at Thu Apr  2 18:40:56 2020, MaxMem=  2147483648 cpu:               0.1 elap:               0.0
 (Enter /usr/local/g16/g16/l9999.exe)
 1\1\GINC-ARTHUR-MS-7B09\Scan\RMP4SDTQ-FC\Aug-CC-pVTZ\H2Kr1O2\MATHEUS\0
 2-Apr-2020\1\\#p mp4/aug-cc-PVTz int=ultrafine counterpoise=2 Scan\\PT
 CC\\0,1\O,0,0.,0.,0.725\O,0,0.,0.,-0.725\H,0,-0.795635374,0.4593602974
 ,1.0235104166\H,0,0.,0.9187205947,-1.0235104166\Kr,0,0.,R1,0.\\R1=3.,s
 ,20,0.1\\Version=ES64L-G16RevA.03\HF=-2752.0522231,-2752.0522231,-2752
 .0522231,-2752.0522231,-2752.0522231,-2752.0522231,-2752.0522231,-2752
 .0522231,-2752.0522231,-2752.0522231,-2752.0522231,-2752.0522231,-2752
 .0522231,-2752.0522231,-2752.0522231,-2752.0522231,-2752.0522231,-2752
 .0522231,-2752.0522231,-2752.0522231,-2752.0522231\MP2=-2752.2941143,-
 2752.2941143,-2752.2941143,-2752.2941143,-2752.2941143,-2752.2941143,-
 2752.2941143,-2752.2941143,-2752.2941143,-2752.2941143,-2752.2941143,-
 2752.2941143,-2752.2941143,-2752.2941143,-2752.2941143,-2752.2941143,-
 2752.2941143,-2752.2941143,-2752.2941143,-2752.2941143,-2752.2941143\M
 P3=-2752.304055,-2752.304055,-2752.304055,-2752.304055,-2752.304055,-2
 752.304055,-2752.304055,-2752.304055,-2752.304055,-2752.304055,-2752.3
 04055,-2752.304055,-2752.304055,-2752.304055,-2752.304055,-2752.304055
 ,-2752.304055,-2752.304055,-2752.304055,-2752.304055,-2752.304055\MP4D
 =-2752.3077463,-2752.3077463,-2752.3077463,-2752.3077463,-2752.3077463
 ,-2752.3077463,-2752.3077463,-2752.3077463,-2752.3077463,-2752.3077463
 ,-2752.3077463,-2752.3077463,-2752.3077463,-2752.3077463,-2752.3077463
 ,-2752.3077463,-2752.3077463,-2752.3077463,-2752.3077463,-2752.3077463
 ,-2752.3077463\MP4DQ=-2752.3035385,-2752.3035385,-2752.3035385,-2752.3
 035385,-2752.3035385,-2752.3035385,-2752.3035385,-2752.3035385,-2752.3
 035385,-2752.3035385,-2752.3035385,-2752.3035385,-2752.3035385,-2752.3
 035385,-2752.3035385,-2752.3035385,-2752.3035385,-2752.3035385,-2752.3
 035385,-2752.3035385,-2752.3035385\MP4SDQ=-2752.304612,-2752.304612,-2
 752.304612,-2752.304612,-2752.304612,-2752.304612,-2752.304612,-2752.3
 04612,-2752.304612,-2752.304612,-2752.304612,-2752.304612,-2752.304612
 ,-2752.304612,-2752.304612,-2752.304612,-2752.304612,-2752.304612,-275
 2.304612,-2752.304612,-2752.304612\MP4SDTQ=-2752.3123106,-2752.3123106
 ,-2752.3123106,-2752.3123106,-2752.3123106,-2752.3123106,-2752.3123106
 ,-2752.3123106,-2752.3123106,-2752.3123106,-2752.3123106,-2752.3123106
 ,-2752.3123106,-2752.3123106,-2752.3123106,-2752.3123106,-2752.3123106
 ,-2752.3123106,-2752.3123106,-2752.3123106,-2752.3123106\RMSD=9.887e-1
 0,1.149e-10,2.884e-11,7.211e-12,1.870e-12,4.717e-13,1.315e-13,3.488e-1
 4,2.257e-14,1.271e-14,9.468e-15,1.042e-14,8.537e-15,5.879e-15,6.800e-1
 5,7.895e-15,5.981e-15,6.379e-15,1.107e-14,8.850e-15,1.087e-14\PG=C01 [
 X(H2Kr1O2)]\\@


 DEFINE YOUR TERMS, YOU WILL PERMIT ME AGAIN TO SAY, 
 OR WE SHALL NEVER UNDERSTAND ONE ANOTHER.

                                    -- VOLTAIRE
 Job cpu time:       0 days 20 hours 50 minutes 16.5 seconds.
 Elapsed time:       0 days  1 hours 19 minutes 22.7 seconds.
 File lengths (MBytes):  RWF=   4067 Int=      0 D2E=      0 Chk=     12 Scr=      1
 Normal termination of Gaussian 16 at Thu Apr  2 18:40:57 2020.
