 Entering Gaussian System, Link 0=g16
 Input=Inputs/H2O2-Kr_0.com
 Output=Logs/H2O2-Kr_0.log
 Initial command:
 /usr/local/g16/g16/l1.exe "/mnt/driveB/scratch/matheus/Gau-76293.inp" -scrdir="/mnt/driveB/scratch/matheus/"
 Entering Link 1 = /usr/local/g16/g16/l1.exe PID=     76295.
  
 Copyright (c) 1988,1990,1992,1993,1995,1998,2003,2009,2016,
            Gaussian, Inc.  All Rights Reserved.
  
 This is part of the Gaussian(R) 16 program.  It is based on
 the Gaussian(R) 09 system (copyright 2009, Gaussian, Inc.),
 the Gaussian(R) 03 system (copyright 2003, Gaussian, Inc.),
 the Gaussian(R) 98 system (copyright 1998, Gaussian, Inc.),
 the Gaussian(R) 94 system (copyright 1995, Gaussian, Inc.),
 the Gaussian 92(TM) system (copyright 1992, Gaussian, Inc.),
 the Gaussian 90(TM) system (copyright 1990, Gaussian, Inc.),
 the Gaussian 88(TM) system (copyright 1988, Gaussian, Inc.),
 the Gaussian 86(TM) system (copyright 1986, Carnegie Mellon
 University), and the Gaussian 82(TM) system (copyright 1983,
 Carnegie Mellon University). Gaussian is a federally registered
 trademark of Gaussian, Inc.
  
 This software contains proprietary and confidential information,
 including trade secrets, belonging to Gaussian, Inc.
  
 This software is provided under written license and may be
 used, copied, transmitted, or stored only in accord with that
 written license.
  
 The following legend is applicable only to US Government
 contracts under FAR:
  
                    RESTRICTED RIGHTS LEGEND
  
 Use, reproduction and disclosure by the US Government is
 subject to restrictions as set forth in subparagraphs (a)
 and (c) of the Commercial Computer Software - Restricted
 Rights clause in FAR 52.227-19.
  
 Gaussian, Inc.
 340 Quinnipiac St., Bldg. 40, Wallingford CT 06492
  
  
 ---------------------------------------------------------------
 Warning -- This program may not be used in any manner that
 competes with the business of Gaussian, Inc. or will provide
 assistance to any competitor of Gaussian, Inc.  The licensee
 of this program is prohibited from giving any competitor of
 Gaussian, Inc. access to this program.  By using this program,
 the user acknowledges that Gaussian, Inc. is engaged in the
 business of creating and licensing software in the field of
 computational chemistry and represents and warrants to the
 licensee that it is not a competitor of Gaussian, Inc. and that
 it will not use this program in any manner prohibited above.
 ---------------------------------------------------------------
  

 Cite this work as:
 Gaussian 16, Revision A.03,
 M. J. Frisch, G. W. Trucks, H. B. Schlegel, G. E. Scuseria, 
 M. A. Robb, J. R. Cheeseman, G. Scalmani, V. Barone, 
 G. A. Petersson, H. Nakatsuji, X. Li, M. Caricato, A. V. Marenich, 
 J. Bloino, B. G. Janesko, R. Gomperts, B. Mennucci, H. P. Hratchian, 
 J. V. Ortiz, A. F. Izmaylov, J. L. Sonnenberg, D. Williams-Young, 
 F. Ding, F. Lipparini, F. Egidi, J. Goings, B. Peng, A. Petrone, 
 T. Henderson, D. Ranasinghe, V. G. Zakrzewski, J. Gao, N. Rega, 
 G. Zheng, W. Liang, M. Hada, M. Ehara, K. Toyota, R. Fukuda, 
 J. Hasegawa, M. Ishida, T. Nakajima, Y. Honda, O. Kitao, H. Nakai, 
 T. Vreven, K. Throssell, J. A. Montgomery, Jr., J. E. Peralta, 
 F. Ogliaro, M. J. Bearpark, J. J. Heyd, E. N. Brothers, K. N. Kudin, 
 V. N. Staroverov, T. A. Keith, R. Kobayashi, J. Normand, 
 K. Raghavachari, A. P. Rendell, J. C. Burant, S. S. Iyengar, 
 J. Tomasi, M. Cossi, J. M. Millam, M. Klene, C. Adamo, R. Cammi, 
 J. W. Ochterski, R. L. Martin, K. Morokuma, O. Farkas, 
 J. B. Foresman, and D. J. Fox, Gaussian, Inc., Wallingford CT, 2016.
 
 ******************************************
 Gaussian 16:  ES64L-G16RevA.03 25-Dec-2016
                30-Mar-2020 
 ******************************************
 %mem=16GB
 %nproc=16
 Will use up to   16 processors via shared memory.
 ----------------------------------------------------
 #p mp4/aug-cc-PVTz int=ultrafine counterpoise=2 Scan
 ----------------------------------------------------
 1/38=1,60=1,62=2,172=1/1,8;
 2/12=2,17=6,18=5,29=3,40=1/2;
 1/38=1,53=2,62=2,63=1/22;
 3/5=16,6=1,7=10,11=9,25=1,30=1,75=-5/1,2,3;
 4//1;
 5/5=2,38=5/2;
 8/6=4,9=120000,10=1/1,4;
 9/5=5/13;
 6/7=2,8=2,9=2,10=2,18=1/1;
 1/53=2,62=2,63=1/22;
 3/5=7,6=11,7=10,11=9,25=1,30=1,75=-5,82=7/1,2,3;
 4//1;
 5/5=2,38=5/2;
 8/6=4,9=120000,10=1/1,4;
 9/5=5/13;
 6/7=2,8=2,9=2,10=2,18=1/1;
 1/53=2,62=2,63=1/22(-6);
 1/60=1,62=2/8(1);
 99/9=1/99;
 2/29=3/2;
 1/53=3,62=2,63=1/22;
 3/5=7,6=11,7=10,11=9,25=1,30=1,75=-5,82=7/1,2,3;
 4/5=5,16=3,69=1/1;
 5/5=2,38=5/2;
 8/6=4,9=120000,10=1/1,4;
 9/5=5/13;
 1/53=3,62=2,63=1/22(-5);
 1/60=1,62=2/8(-8);
 99/9=1/99;
 Leave Link    1 at Mon Mar 30 07:08:36 2020, MaxMem=  2147483648 cpu:               0.3 elap:               0.0
 (Enter /usr/local/g16/g16/l101.exe)
 ----
 PTCC
 ----
 Symbolic Z-matrix:
 Charge =  0 Multiplicity = 1 in supermolecule
 Charge =  0 Multiplicity = 1 in fragment      1.
 Charge =  0 Multiplicity = 1 in fragment      2.
 O(Fragment=1)         0.        0.        0.725 
 O(Fragment=1)         0.        0.       -0.725 
 H(Fragment=1)         0.        0.91872   1.02351 
 H(Fragment=1)         0.        0.91872  -1.02351 
 Kr(Fragment=2)        0.       R1        0. 
       Variables:
  R1                    3.     Scan 20    0.1    
 
 ITRead=  0  0  0  0  0
 MicOpt= -1 -1 -1 -1 -1
 NAtoms=      5 NQM=        5 NQMF=       0 NMMI=      0 NMMIF=      0
                NMic=       0 NMicF=      0.
                    Isotopes and Nuclear Properties:
 (Nuclear quadrupole moments (NQMom) in fm**2, nuclear magnetic moments (NMagM)
  in nuclear magnetons)

  Atom         1           2           3           4           5
 IAtWgt=          16          16           1           1          84
 AtmWgt=  15.9949146  15.9949146   1.0078250   1.0078250  83.9115064
 NucSpn=           0           0           1           1           0
 AtZEff=  -0.0000000  -0.0000000  -0.0000000  -0.0000000  -0.0000000
 NQMom=    0.0000000   0.0000000   0.0000000   0.0000000   0.0000000
 NMagM=    0.0000000   0.0000000   2.7928460   2.7928460   0.0000000
 AtZNuc=   8.0000000   8.0000000   1.0000000   1.0000000  36.0000000
 Leave Link  101 at Mon Mar 30 07:08:36 2020, MaxMem=  2147483648 cpu:               1.3 elap:               0.1
 (Enter /usr/local/g16/g16/l108.exe)
 Scan the potential surface.
 Variable   Value     No. Steps Step-Size
 -------- ----------- --------- ---------
     1       3.000000      20      0.1000
 A total of     21 points will be computed.
 Leave Link  108 at Mon Mar 30 07:08:36 2020, MaxMem=  2147483648 cpu:               0.0 elap:               0.0
 (Enter /usr/local/g16/g16/l202.exe)
 ---------------------------------------------------------------------------------------------------
                            Z-MATRIX (ANGSTROMS AND DEGREES)
   CD    Cent   Atom    N1       Length/X        N2       Alpha/Y        N3        Beta/Z          J
 ---------------------------------------------------------------------------------------------------
      1      1  O        0   0.000000          0.000000          0.725000
      2      2  O        0   0.000000          0.000000         -0.725000
      3      3  H        0   0.000000          0.918721          1.023510
      4      4  H        0   0.000000          0.918721         -1.023510
      5      5  Kr       0   0.000000          3.000000          0.000000
 ---------------------------------------------------------------------------------------------------
                         Z-Matrix orientation:                         
 ---------------------------------------------------------------------
 Center     Atomic      Atomic             Coordinates (Angstroms)
 Number     Number       Type             X           Y           Z
 ---------------------------------------------------------------------
      1          8           0        0.000000    0.000000    0.725000
      2          8           0        0.000000    0.000000   -0.725000
      3          1           0        0.000000    0.918721    1.023510
      4          1           0        0.000000    0.918721   -1.023510
      5         36           0        0.000000    3.000000    0.000000
 ---------------------------------------------------------------------
                    Distance matrix (angstroms):
                    1          2          3          4          5
     1  O    0.000000
     2  O    1.450000   0.000000
     3  H    0.966000   1.975180   0.000000
     4  H    1.975180   0.966000   2.047021   0.000000
     5  Kr   3.086361   3.086361   2.319331   2.319331   0.000000
 Stoichiometry    H2KrO2
 Framework group  C2V[C2(Kr),SGV(H2O2)]
 Deg. of freedom     4
 Full point group                 C2V     NOp   4
 Largest Abelian subgroup         C2V     NOp   4
 Largest concise Abelian subgroup C2      NOp   2
                         Standard orientation:                         
 ---------------------------------------------------------------------
 Center     Atomic      Atomic             Coordinates (Angstroms)
 Number     Number       Type             X           Y           Z
 ---------------------------------------------------------------------
      1          8           0        0.000000    0.725000   -2.034027
      2          8           0       -0.000000   -0.725000   -2.034027
      3          1           0        0.000000    1.023510   -1.115306
      4          1           0       -0.000000   -1.023510   -1.115306
      5         36           0        0.000000   -0.000000    0.965973
 ---------------------------------------------------------------------
 Rotational constants (GHZ):          26.7026198           2.3888795           2.1927141
 Leave Link  202 at Mon Mar 30 07:08:36 2020, MaxMem=  2147483648 cpu:               0.0 elap:               0.0
 (Enter /usr/local/g16/g16/l122.exe)
 Counterpoise: doing full-system calculation.
 Leave Link  122 at Mon Mar 30 07:08:36 2020, MaxMem=  2147483648 cpu:               0.0 elap:               0.0
 (Enter /usr/local/g16/g16/l301.exe)
 Standard basis: Aug-CC-pVTZ (5D, 7F)
 Ernie: Thresh=  0.10000D-02 Tol=  0.10000D-05 Strict=F.
 Ernie:  38 primitive shells out of 205 were deleted.
 There are    86 symmetry adapted cartesian basis functions of A1  symmetry.
 There are    31 symmetry adapted cartesian basis functions of A2  symmetry.
 There are    41 symmetry adapted cartesian basis functions of B1  symmetry.
 There are    71 symmetry adapted cartesian basis functions of B2  symmetry.
 There are    71 symmetry adapted basis functions of A1  symmetry.
 There are    29 symmetry adapted basis functions of A2  symmetry.
 There are    37 symmetry adapted basis functions of B1  symmetry.
 There are    60 symmetry adapted basis functions of B2  symmetry.
   197 basis functions,   415 primitive gaussians,   229 cartesian basis functions
    27 alpha electrons       27 beta electrons
       nuclear repulsion energy       151.8532724982 Hartrees.
 IExCor=    0 DFT=F Ex=HF Corr=None ExCW=0 ScaHFX=  1.000000
 ScaDFX=  1.000000  1.000000  1.000000  1.000000 ScalE2=  1.000000  1.000000
 IRadAn=      5 IRanWt=     -1 IRanGd=            0 ICorTp=0 IEmpDi=  4
 NAtoms=    5 NActive=    5 NUniq=    3 SFac= 2.78D+00 NAtFMM=   60 NAOKFM=F Big=F
 Integral buffers will be    131072 words long.
 Raffenetti 1 integral format.
 Two-electron integral symmetry is turned on.
 Leave Link  301 at Mon Mar 30 07:08:36 2020, MaxMem=  2147483648 cpu:               0.3 elap:               0.0
 (Enter /usr/local/g16/g16/l302.exe)
 NPDir=0 NMtPBC=     1 NCelOv=     1 NCel=       1 NClECP=     1 NCelD=      1
         NCelK=      1 NCelE2=     1 NClLst=     1 CellRange=     0.0.
 One-electron integrals computed using PRISM.
 One-electron integral symmetry used in STVInt
 NBasis=   197 RedAO= T EigKep=  1.41D-04  NBF=    71    29    37    60
 NBsUse=   197 1.00D-06 EigRej= -1.00D+00 NBFU=    71    29    37    60
 Leave Link  302 at Mon Mar 30 07:08:36 2020, MaxMem=  2147483648 cpu:               1.7 elap:               0.1
 (Enter /usr/local/g16/g16/l303.exe)
 DipDrv:  MaxL=1.
 Leave Link  303 at Mon Mar 30 07:08:36 2020, MaxMem=  2147483648 cpu:               0.4 elap:               0.0
 (Enter /usr/local/g16/g16/l401.exe)
 ExpMin= 2.53D-02 ExpMax= 1.17D+07 ExpMxC= 1.33D+04 IAcc=3 IRadAn=         5 AccDes= 0.00D+00
 Harris functional with IExCor=  205 and IRadAn=       5 diagonalized for initial guess.
 HarFok:  IExCor=  205 AccDes= 0.00D+00 IRadAn=         5 IDoV= 1 UseB2=F ITyADJ=14
 ICtDFT=  3500011 ScaDFX=  1.000000  1.000000  1.000000  1.000000
 FoFCou: FMM=F IPFlag=           0 FMFlag=      100000 FMFlg1=           0
         NFxFlg=           0 DoJE=T BraDBF=F KetDBF=T FulRan=T
         wScrn=  0.000000 ICntrl=       500 IOpCl=  0 I1Cent=   200000004 NGrid=           0
         NMat0=    1 NMatS0=      1 NMatT0=    0 NMatD0=    1 NMtDS0=    0 NMtDT0=    0
 Petite list used in FoFCou.
 Harris En= -2901.98464792350    
 JPrj=0 DoOrth=F DoCkMO=F.
 Initial guess orbital symmetries:
       Occupied  (A1) (A1) (A1) (B2) (B1) (B2) (A1) (A1) (A1) (B2)
                 (B1) (A1) (B2) (B1) (A1) (A2) (A1) (B2) (A1) (A1)
                 (A1) (B1) (B2) (A1) (B1) (B2) (A2)
       Virtual   (B2) (A1) (B2) (A1) (B1) (B2) (A1) (A1) (B1) (B2)
                 (A1) (A2) (A1) (B1) (B2) (A1) (A2) (B2) (A1) (A1)
                 (B1) (B2) (B2) (A1) (A2) (B2) (B2) (A1) (B1) (A1)
                 (A1) (B1) (A1) (B2) (B2) (B1) (A2) (B1) (A1) (A1)
                 (B2) (A2) (A1) (A1) (A2) (B2) (A1) (B2) (B1) (B1)
                 (A2) (A1) (B2) (B1) (B2) (A1) (B1) (A1) (B2) (A2)
                 (B2) (A2) (A1) (A1) (B2) (A1) (B2) (B1) (A2) (B1)
                 (A1) (B2) (A2) (A1) (B2) (A1) (B2) (B1) (A1) (B2)
                 (A1) (B1) (A1) (A2) (B1) (A1) (B2) (B1) (B2) (A2)
                 (A1) (B2) (A2) (A1) (A1) (B1) (A1) (B2) (B1) (B2)
                 (B1) (B2) (A1) (A2) (B1) (B2) (A1) (B1) (A2) (A1)
                 (B2) (A2) (B2) (A1) (A1) (B2) (B2) (A2) (B2) (A1)
                 (B1) (B2) (B1) (A2) (A1) (B1) (A2) (A1) (B2) (A2)
                 (A1) (A1) (B2) (B2) (A1) (A1) (B1) (A1) (B2) (A2)
                 (B2) (B2) (A1) (B1) (B2) (A1) (B1) (A1) (A2) (B2)
                 (B1) (A1) (A1) (A2) (B1) (B1) (A2) (B2) (A2) (B2)
                 (A1) (A2) (A1) (B2) (B2) (A1) (B2) (B2) (A1) (B2)
 The electronic state of the initial guess is 1-A1.
 Leave Link  401 at Mon Mar 30 07:08:36 2020, MaxMem=  2147483648 cpu:               2.4 elap:               0.2
 (Enter /usr/local/g16/g16/l502.exe)
 Keep R1 ints in memory in symmetry-blocked form, NReq=238417312.
 FoFCou: FMM=F IPFlag=           0 FMFlag=           0 FMFlg1=           0
         NFxFlg=           0 DoJE=F BraDBF=F KetDBF=F FulRan=T
         wScrn=  0.000000 ICntrl=       600 IOpCl=  0 I1Cent=           0 NGrid=           0
         NMat0=    1 NMatS0=  19503 NMatT0=    0 NMatD0=    1 NMtDS0=    0 NMtDT0=    0
 Petite list used in FoFCou.
 Closed shell SCF:
 Using DIIS extrapolation, IDIIS=  1040.
 NGot=  2147483648 LenX=  2099150232 LenY=  2099097350
 Requested convergence on RMS density matrix=1.00D-08 within 128 cycles.
 Requested convergence on MAX density matrix=1.00D-06.
 Requested convergence on             energy=1.00D-06.
 No special actions if energy rises.

 Cycle   1  Pass 1  IDiag  1:
 E= -2902.75225912991    
 DIIS: error= 6.55D-02 at cycle   1 NSaved=   1.
 NSaved= 1 IEnMin= 1 EnMin= -2902.75225912991     IErMin= 1 ErrMin= 6.55D-02
 ErrMax= 6.55D-02  0.00D+00 EMaxC= 1.00D-01 BMatC= 6.72D-01 BMatP= 6.72D-01
 IDIUse=3 WtCom= 3.45D-01 WtEn= 6.55D-01
 Coeff-Com:  0.100D+01
 Coeff-En:   0.100D+01
 Coeff:      0.100D+01
 Gap=     0.470 Goal=   None    Shift=    0.000
 GapD=    0.470 DampG=2.000 DampE=0.500 DampFc=1.0000 IDamp=-1.
 RMSDP=2.08D-03 MaxDP=1.34D-01              OVMax= 6.16D-02

 Cycle   2  Pass 1  IDiag  1:
 E= -2902.85131791502     Delta-E=       -0.099058785108 Rises=F Damp=F
 DIIS: error= 1.11D-02 at cycle   2 NSaved=   2.
 NSaved= 2 IEnMin= 2 EnMin= -2902.85131791502     IErMin= 2 ErrMin= 1.11D-02
 ErrMax= 1.11D-02  0.00D+00 EMaxC= 1.00D-01 BMatC= 4.00D-02 BMatP= 6.72D-01
 IDIUse=3 WtCom= 8.89D-01 WtEn= 1.11D-01
 Coeff-Com:  0.145D+00 0.855D+00
 Coeff-En:   0.000D+00 0.100D+01
 Coeff:      0.129D+00 0.871D+00
 Gap=     0.516 Goal=   None    Shift=    0.000
 RMSDP=8.57D-04 MaxDP=3.88D-02 DE=-9.91D-02 OVMax= 2.83D-02

 Cycle   3  Pass 1  IDiag  1:
 E= -2902.86641593757     Delta-E=       -0.015098022555 Rises=F Damp=F
 DIIS: error= 4.43D-03 at cycle   3 NSaved=   3.
 NSaved= 3 IEnMin= 3 EnMin= -2902.86641593757     IErMin= 3 ErrMin= 4.43D-03
 ErrMax= 4.43D-03  0.00D+00 EMaxC= 1.00D-01 BMatC= 3.24D-03 BMatP= 4.00D-02
 IDIUse=3 WtCom= 9.56D-01 WtEn= 4.43D-02
 Coeff-Com: -0.595D-02 0.202D+00 0.804D+00
 Coeff-En:   0.000D+00 0.000D+00 0.100D+01
 Coeff:     -0.568D-02 0.193D+00 0.813D+00
 Gap=     0.486 Goal=   None    Shift=    0.000
 RMSDP=1.55D-04 MaxDP=5.33D-03 DE=-1.51D-02 OVMax= 8.72D-03

 Cycle   4  Pass 1  IDiag  1:
 E= -2902.86808583779     Delta-E=       -0.001669900219 Rises=F Damp=F
 DIIS: error= 8.31D-04 at cycle   4 NSaved=   4.
 NSaved= 4 IEnMin= 4 EnMin= -2902.86808583779     IErMin= 4 ErrMin= 8.31D-04
 ErrMax= 8.31D-04  0.00D+00 EMaxC= 1.00D-01 BMatC= 5.63D-05 BMatP= 3.24D-03
 IDIUse=3 WtCom= 9.92D-01 WtEn= 8.31D-03
 Coeff-Com: -0.434D-02 0.159D-01 0.151D+00 0.837D+00
 Coeff-En:   0.000D+00 0.000D+00 0.000D+00 0.100D+01
 Coeff:     -0.430D-02 0.158D-01 0.150D+00 0.839D+00
 Gap=     0.491 Goal=   None    Shift=    0.000
 RMSDP=2.55D-05 MaxDP=6.62D-04 DE=-1.67D-03 OVMax= 1.87D-03

 Cycle   5  Pass 1  IDiag  1:
 E= -2902.86813137228     Delta-E=       -0.000045534486 Rises=F Damp=F
 DIIS: error= 1.81D-04 at cycle   5 NSaved=   5.
 NSaved= 5 IEnMin= 5 EnMin= -2902.86813137228     IErMin= 5 ErrMin= 1.81D-04
 ErrMax= 1.81D-04  0.00D+00 EMaxC= 1.00D-01 BMatC= 3.56D-06 BMatP= 5.63D-05
 IDIUse=3 WtCom= 9.98D-01 WtEn= 1.81D-03
 Coeff-Com:  0.867D-03-0.167D-01-0.686D-01 0.486D-03 0.108D+01
 Coeff-En:   0.000D+00 0.000D+00 0.000D+00 0.000D+00 0.100D+01
 Coeff:      0.865D-03-0.166D-01-0.685D-01 0.485D-03 0.108D+01
 Gap=     0.490 Goal=   None    Shift=    0.000
 RMSDP=1.08D-05 MaxDP=3.26D-04 DE=-4.55D-05 OVMax= 6.99D-04

 Cycle   6  Pass 1  IDiag  1:
 E= -2902.86813632430     Delta-E=       -0.000004952022 Rises=F Damp=F
 DIIS: error= 3.26D-05 at cycle   6 NSaved=   6.
 NSaved= 6 IEnMin= 6 EnMin= -2902.86813632430     IErMin= 6 ErrMin= 3.26D-05
 ErrMax= 3.26D-05  0.00D+00 EMaxC= 1.00D-01 BMatC= 1.66D-07 BMatP= 3.56D-06
 IDIUse=1 WtCom= 1.00D+00 WtEn= 0.00D+00
 Coeff-Com:  0.143D-03 0.270D-03-0.448D-02-0.454D-01-0.493D-01 0.110D+01
 Coeff:      0.143D-03 0.270D-03-0.448D-02-0.454D-01-0.493D-01 0.110D+01
 Gap=     0.491 Goal=   None    Shift=    0.000
 RMSDP=2.81D-06 MaxDP=8.22D-05 DE=-4.95D-06 OVMax= 1.76D-04

 Cycle   7  Pass 1  IDiag  1:
 E= -2902.86813666527     Delta-E=       -0.000000340974 Rises=F Damp=F
 DIIS: error= 1.01D-05 at cycle   7 NSaved=   7.
 NSaved= 7 IEnMin= 7 EnMin= -2902.86813666527     IErMin= 7 ErrMin= 1.01D-05
 ErrMax= 1.01D-05  0.00D+00 EMaxC= 1.00D-01 BMatC= 1.02D-08 BMatP= 1.66D-07
 IDIUse=1 WtCom= 1.00D+00 WtEn= 0.00D+00
 Coeff-Com: -0.502D-04 0.843D-03 0.404D-02 0.530D-02-0.565D-01-0.164D+00
 Coeff-Com:  0.121D+01
 Coeff:     -0.502D-04 0.843D-03 0.404D-02 0.530D-02-0.565D-01-0.164D+00
 Coeff:      0.121D+01
 Gap=     0.491 Goal=   None    Shift=    0.000
 RMSDP=1.10D-06 MaxDP=3.69D-05 DE=-3.41D-07 OVMax= 7.08D-05

 Cycle   8  Pass 1  IDiag  1:
 E= -2902.86813669502     Delta-E=       -0.000000029749 Rises=F Damp=F
 DIIS: error= 2.92D-06 at cycle   8 NSaved=   8.
 NSaved= 8 IEnMin= 8 EnMin= -2902.86813669502     IErMin= 8 ErrMin= 2.92D-06
 ErrMax= 2.92D-06  0.00D+00 EMaxC= 1.00D-01 BMatC= 6.59D-10 BMatP= 1.02D-08
 IDIUse=1 WtCom= 1.00D+00 WtEn= 0.00D+00
 Coeff-Com:  0.329D-05-0.242D-03-0.744D-03 0.164D-02 0.149D-01-0.218D-01
 Coeff-Com: -0.258D+00 0.126D+01
 Coeff:      0.329D-05-0.242D-03-0.744D-03 0.164D-02 0.149D-01-0.218D-01
 Coeff:     -0.258D+00 0.126D+01
 Gap=     0.491 Goal=   None    Shift=    0.000
 RMSDP=2.68D-07 MaxDP=5.75D-06 DE=-2.97D-08 OVMax= 2.20D-05

 Cycle   9  Pass 1  IDiag  1:
 E= -2902.86813669702     Delta-E=       -0.000000001995 Rises=F Damp=F
 DIIS: error= 9.83D-07 at cycle   9 NSaved=   9.
 NSaved= 9 IEnMin= 9 EnMin= -2902.86813669702     IErMin= 9 ErrMin= 9.83D-07
 ErrMax= 9.83D-07  0.00D+00 EMaxC= 1.00D-01 BMatC= 6.76D-11 BMatP= 6.59D-10
 IDIUse=1 WtCom= 1.00D+00 WtEn= 0.00D+00
 Coeff-Com:  0.295D-05 0.231D-04-0.646D-04-0.117D-02-0.605D-03 0.205D-01
 Coeff-Com:  0.858D-03-0.434D+00 0.141D+01
 Coeff:      0.295D-05 0.231D-04-0.646D-04-0.117D-02-0.605D-03 0.205D-01
 Coeff:      0.858D-03-0.434D+00 0.141D+01
 Gap=     0.491 Goal=   None    Shift=    0.000
 RMSDP=8.90D-08 MaxDP=1.87D-06 DE=-2.00D-09 OVMax= 8.28D-06

 Cycle  10  Pass 1  IDiag  1:
 E= -2902.86813669726     Delta-E=       -0.000000000246 Rises=F Damp=F
 DIIS: error= 3.35D-07 at cycle  10 NSaved=  10.
 NSaved=10 IEnMin=10 EnMin= -2902.86813669726     IErMin=10 ErrMin= 3.35D-07
 ErrMax= 3.35D-07  0.00D+00 EMaxC= 1.00D-01 BMatC= 5.60D-12 BMatP= 6.76D-11
 IDIUse=1 WtCom= 1.00D+00 WtEn= 0.00D+00
 Coeff-Com: -0.338D-06 0.212D-04 0.707D-04-0.989D-04-0.143D-02 0.145D-02
 Coeff-Com:  0.271D-01-0.122D+00-0.112D-01 0.111D+01
 Coeff:     -0.338D-06 0.212D-04 0.707D-04-0.989D-04-0.143D-02 0.145D-02
 Coeff:      0.271D-01-0.122D+00-0.112D-01 0.111D+01
 Gap=     0.491 Goal=   None    Shift=    0.000
 RMSDP=2.30D-08 MaxDP=5.68D-07 DE=-2.46D-10 OVMax= 2.34D-06

 Cycle  11  Pass 1  IDiag  1:
 E= -2902.86813669728     Delta-E=       -0.000000000018 Rises=F Damp=F
 DIIS: error= 9.62D-08 at cycle  11 NSaved=  11.
 NSaved=11 IEnMin=11 EnMin= -2902.86813669728     IErMin=11 ErrMin= 9.62D-08
 ErrMax= 9.62D-08  0.00D+00 EMaxC= 1.00D-01 BMatC= 6.47D-13 BMatP= 5.60D-12
 IDIUse=1 WtCom= 1.00D+00 WtEn= 0.00D+00
 Coeff-Com: -0.308D-06-0.836D-05-0.835D-05 0.205D-03 0.338D-03-0.339D-02
 Coeff-Com: -0.362D-02 0.742D-01-0.162D+00-0.236D+00 0.133D+01
 Coeff:     -0.308D-06-0.836D-05-0.835D-05 0.205D-03 0.338D-03-0.339D-02
 Coeff:     -0.362D-02 0.742D-01-0.162D+00-0.236D+00 0.133D+01
 Gap=     0.491 Goal=   None    Shift=    0.000
 RMSDP=8.59D-09 MaxDP=2.31D-07 DE=-1.82D-11 OVMax= 8.16D-07

 SCF Done:  E(RHF) =  -2902.86813670     A.U. after   11 cycles
            NFock= 11  Conv=0.86D-08     -V/T= 2.0001
 KE= 2.902675081830D+03 PE=-7.243158001677D+03 EE= 1.285761510651D+03
 Leave Link  502 at Mon Mar 30 07:08:38 2020, MaxMem=  2147483648 cpu:              26.0 elap:               1.8
 (Enter /usr/local/g16/g16/l801.exe)
 Windowed orbitals will be sorted by symmetry type.
 ExpMin= 2.53D-02 ExpMax= 1.17D+07 ExpMxC= 1.33D+04 IAcc=3 IRadAn=         5 AccDes= 0.00D+00
 HarFok:  IExCor=  205 AccDes= 0.00D+00 IRadAn=         5 IDoV=-2 UseB2=F ITyADJ=14
 ICtDFT= 12500011 ScaDFX=  1.000000  1.000000  1.000000  1.000000
 Largest valence mixing into a core orbital is  1.19D-04
 Largest core mixing into a valence orbital is  3.83D-05
 Range of M.O.s used for correlation:    12   197
 NBasis=   197 NAE=    27 NBE=    27 NFC=    11 NFV=     0
 NROrb=    186 NOA=    16 NOB=    16 NVA=   170 NVB=   170

 **** Warning!!: The largest alpha MO coefficient is  0.16769148D+02

 Leave Link  801 at Mon Mar 30 07:08:38 2020, MaxMem=  2147483648 cpu:               0.8 elap:               0.1
 (Enter /usr/local/g16/g16/l804.exe)
 Closed-shell transformation, MDV=  2147483648 ITran=4 ISComp=2.
 Unit  1 TFree=       1288077 TCopy=        709325.
 Semi-Direct transformation.
 ModeAB=           4 MOrb=            16 LenV=    2146373976
 LASXX=     12259514 LTotXX=    12259514 LenRXX=    24734919
 LTotAB=    12475405 MaxLAS=    44205504 LenRXY=           0
 NonZer=    36994433 LenScr=    56254464 LnRSAI=    44205504
 LnScr1=    67060736 LExtra=           0 Total=    192255623
 MaxDsk=          -1 SrtSym=           T ITran=            4
 DoSDTr:  NPSUse= 16
 JobTyp=0 Pass  1:  I=   1 to  16.
 (rs|ai) integrals will be sorted in core.
 Complete sort for first half transformation.
 First half transformation complete.
 Begin second half transformation for I=  10.
 Complete sort for second half transformation.
 Second half transformation complete.
 Spin components of T(2) and E(2):
     alpha-alpha T2 =       0.2625148009D-01 E2=     -0.1006669973D+00
     alpha-beta  T2 =       0.1425071965D+00 E2=     -0.5584041989D+00
     beta-beta   T2 =       0.2625148009D-01 E2=     -0.1006669973D+00
 ANorm=    0.1093165201D+01
 E2 =    -0.7597381936D+00 EUMP2 =    -0.29036278748909D+04
 Leave Link  804 at Mon Mar 30 07:08:43 2020, MaxMem=  2147483648 cpu:              79.5 elap:               5.0
 (Enter /usr/local/g16/g16/l913.exe)
 CIDS:  MDV=  2147483648.
 Frozen-core window:  NFC=  11 NFV=   0.
 IFCWin=0 IBDFC=1 NFBD=     0     0 NFCmp=     0     0 NFFFC=     0     0
 Using DD3R+UMP44R for 1st iteration.
 Using DD4RQ for 2nd and later iterations.
 Keep R2 and R3 ints in memory in symmetry-blocked form, NReq=238425736.
 FoFCou: FMM=F IPFlag=           0 FMFlag=           0 FMFlg1=           0
         NFxFlg=           0 DoJE=F BraDBF=F KetDBF=F FulRan=T
         wScrn=  0.000000 ICntrl=       600 IOpCl=  0 I1Cent=           0 NGrid=           0
         NMat0=    1 NMatS0=  19503 NMatT0=    0 NMatD0=    1 NMtDS0=    0 NMtDT0=    0
 Petite list used in FoFCou.
 CIDS: In Core Option IDoMem=           1.
 MP4(SDTQ)
 =========
 Produce multiple copies of IABC intergrals
 DD1Dir will call FoFMem   1 times, MxPair=       272
 NAB=   136 NAA=     0 NBB=     0.
 MP4(D)= -0.14911788D-01
 MP4(S)= -0.65954034D-02
 MP4(R+Q)=  0.15705996D-01
 IPart=  7 IA=   10   10.34% done.
 IPart=  8 IA=   19   20.11% done.
 IPart=  4 IA=   29   30.31% done.
 IPart=  3 IA=   40   40.72% done.
 IPart=  7 IA=   51   50.30% done.
 IPart= 15 IA=   64   60.52% done.
 IPart=  8 IA=   78   70.22% done.
 IPart= 11 IA=   95   80.16% done.
 IPart=  7 IA=  117   90.04% done.
 Time for triples=      809.42 seconds.
 MP4(T)=   -0.31035618D-01
 E3=       -0.10900371D-01        EUMP3=      -0.29036387753D+04
 E4(DQ)=    0.79420766D-03        UMP4(DQ)=   -0.29036379811D+04
 E4(SDQ)=  -0.58011958D-02        UMP4(SDQ)=  -0.29036445765D+04
 E4(SDTQ)= -0.36836814D-01        UMP4(SDTQ)= -0.29036756121D+04
 VARIATIONAL ENERGIES WITH THE FIRST-ORDER WAVEFUNCTION:
 E(VAR1)=  -0.29035130170D+04     E(CISD,4)=  -0.29035121258D+04
 Largest amplitude= 3.95D-02
 Discarding MO integrals.
 Leave Link  913 at Mon Mar 30 07:09:37 2020, MaxMem=  2147483648 cpu:             864.2 elap:              54.1
 (Enter /usr/local/g16/g16/l601.exe)
 Copying SCF densities to generalized density rwf, IOpCl= 0 IROHF=0.

 **********************************************************************

            Population analysis using the SCF density.

 **********************************************************************

 Orbital symmetries:
       Occupied  (A1) (A1) (B2) (A1) (B1) (A1) (B2) (A1) (A1) (B2)
                 (B1) (A1) (B2) (B1) (A2) (A1) (A1) (B2) (A1) (A1)
                 (B1) (A1) (B2) (B1) (A1) (B2) (A2)
       Virtual   (A1) (B2) (A1) (B1) (B2) (A1) (B2) (B1) (A1) (B2)
                 (A2) (A1) (A1) (B1) (A1) (A2) (B2) (B2) (A1) (B2)
                 (A1) (B1) (A2) (A1) (B2) (B2) (B2) (A1) (B1) (A1)
                 (A1) (B2) (B1) (A1) (B2) (B1) (A2) (A1) (B1) (B2)
                 (A1) (A2) (A1) (A2) (A1) (B2) (B2) (B1) (A1) (B1)
                 (A2) (B2) (A1) (B2) (A1) (B1) (A1) (B2) (A2) (B1)
                 (B2) (A2) (A1) (B2) (A1) (B2) (A1) (B1) (A2) (B2)
                 (B1) (A1) (A2) (A1) (B2) (B2) (A1) (B1) (A1) (B2)
                 (B1) (A1) (A1) (A2) (B1) (A1) (B2) (B1) (B2) (A2)
                 (A1) (B2) (A1) (A2) (A1) (B1) (A1) (B2) (B2) (B1)
                 (B1) (B2) (A1) (A2) (B1) (B2) (A2) (B1) (A1) (B2)
                 (A2) (A1) (B2) (A1) (A1) (B2) (A2) (B2) (B2) (A1)
                 (B2) (B1) (B1) (B1) (A2) (A1) (A2) (B2) (A1) (A2)
                 (A1) (A1) (B2) (B2) (A1) (A1) (B1) (A1) (B2) (A2)
                 (B2) (B2) (A1) (B1) (B2) (A1) (B1) (A1) (A2) (B2)
                 (A1) (B1) (A2) (B1) (A1) (B1) (B2) (A2) (A2) (B2)
                 (A1) (A2) (A1) (B2) (B2) (A1) (B2) (B2) (A1) (B2)
 The electronic state is 1-A1.
 Alpha  occ. eigenvalues -- -520.20627 -69.94385 -63.05041 -63.05041 -63.05039
 Alpha  occ. eigenvalues --  -20.62501 -20.62473 -10.89050  -8.37266  -8.37252
 Alpha  occ. eigenvalues --   -8.37235  -3.86642  -3.86641  -3.86620  -3.86613
 Alpha  occ. eigenvalues --   -3.86609  -1.46658  -1.21379  -1.19789  -0.77061
 Alpha  occ. eigenvalues --   -0.62323  -0.59859  -0.59274  -0.56342  -0.55834
 Alpha  occ. eigenvalues --   -0.55023  -0.45420
 Alpha virt. eigenvalues --    0.03645   0.04616   0.08505   0.09238   0.11284
 Alpha virt. eigenvalues --    0.13523   0.14797   0.18038   0.18113   0.18580
 Alpha virt. eigenvalues --    0.19586   0.19749   0.24103   0.25257   0.25678
 Alpha virt. eigenvalues --    0.26570   0.28428   0.28848   0.33867   0.35891
 Alpha virt. eigenvalues --    0.36342   0.40167   0.40861   0.41414   0.42101
 Alpha virt. eigenvalues --    0.47064   0.50107   0.52594   0.55767   0.57127
 Alpha virt. eigenvalues --    0.64631   0.65916   0.67630   0.68630   0.69152
 Alpha virt. eigenvalues --    0.74512   0.75105   0.76535   0.78323   0.82036
 Alpha virt. eigenvalues --    0.82148   0.82771   0.86005   0.89931   0.90990
 Alpha virt. eigenvalues --    0.91250   0.92102   0.94960   0.97799   0.98030
 Alpha virt. eigenvalues --    1.00387   1.03312   1.04193   1.05544   1.09524
 Alpha virt. eigenvalues --    1.09548   1.13805   1.15671   1.16151   1.16798
 Alpha virt. eigenvalues --    1.20394   1.25934   1.29808   1.35884   1.37389
 Alpha virt. eigenvalues --    1.39247   1.43255   1.47107   1.49322   1.54745
 Alpha virt. eigenvalues --    1.55772   1.58691   1.64382   1.67564   1.69337
 Alpha virt. eigenvalues --    1.74890   1.79350   1.93091   2.08200   2.09312
 Alpha virt. eigenvalues --    2.12668   2.13267   2.27233   2.28255   2.33184
 Alpha virt. eigenvalues --    2.36463   2.38888   2.39326   2.41382   2.44400
 Alpha virt. eigenvalues --    2.48483   2.49113   2.52203   2.53092   2.55399
 Alpha virt. eigenvalues --    2.57631   2.58883   2.59394   2.65034   2.65702
 Alpha virt. eigenvalues --    2.67224   2.69729   2.77356   2.77964   2.80024
 Alpha virt. eigenvalues --    2.84266   2.86992   2.88064   2.88575   2.90179
 Alpha virt. eigenvalues --    2.91435   2.93355   2.99103   3.07229   3.11609
 Alpha virt. eigenvalues --    3.13814   3.31313   3.33449   3.36298   3.75972
 Alpha virt. eigenvalues --    3.98646   4.08858   4.18639   4.28793   4.29883
 Alpha virt. eigenvalues --    4.32372   4.37508   4.40252   4.40571   4.52178
 Alpha virt. eigenvalues --    4.59918   4.77136   4.78537   5.03696   5.04587
 Alpha virt. eigenvalues --    5.22453   5.26684   5.29461   5.32682   5.41759
 Alpha virt. eigenvalues --    5.47908   5.89510   6.14737   6.31247   6.42222
 Alpha virt. eigenvalues --    6.46803   6.66014   6.73244   6.83628   6.93536
 Alpha virt. eigenvalues --    7.05608   7.10623   7.11367   7.17757   7.18974
 Alpha virt. eigenvalues --    7.26122   7.26250   7.27604   7.30795   7.48964
 Alpha virt. eigenvalues --    7.53215   7.63240   7.67368   7.69390   8.00763
 Alpha virt. eigenvalues --    8.37504   8.47550   8.62550  14.46267  15.43655
          Condensed to atoms (all electrons):
               1          2          3          4          5
     1  O    8.140588  -0.112848   0.235628   0.020625  -0.014247
     2  O   -0.112848   8.140588   0.020625   0.235628  -0.014247
     3  H    0.235628   0.020625   0.510253  -0.018165  -0.010936
     4  H    0.020625   0.235628  -0.018165   0.510253  -0.010936
     5  Kr  -0.014247  -0.014247  -0.010936  -0.010936  36.036065
 Mulliken charges:
               1
     1  O   -0.269746
     2  O   -0.269746
     3  H    0.262595
     4  H    0.262595
     5  Kr   0.014302
 Sum of Mulliken charges =  -0.00000
 Mulliken charges with hydrogens summed into heavy atoms:
               1
     1  O   -0.007151
     2  O   -0.007151
     5  Kr   0.014302
         Mulliken charges condensed to fragments:
      1     -0.014302
      2      0.014302
 Electronic spatial extent (au):  <R**2>=            475.4399
 Charge=             -0.0000 electrons
 Dipole moment (field-independent basis, Debye):
    X=             -0.0000    Y=              0.0000    Z=              3.8342  Tot=              3.8342
 Quadrupole moment (field-independent basis, Debye-Ang):
   XX=            -30.3797   YY=            -28.1099   ZZ=            -39.2833
   XY=              0.0000   XZ=             -0.0000   YZ=              0.0000
 Traceless Quadrupole moment (field-independent basis, Debye-Ang):
   XX=              2.2113   YY=              4.4811   ZZ=             -6.6924
   XY=              0.0000   XZ=             -0.0000   YZ=              0.0000
 Octapole moment (field-independent basis, Debye-Ang**2):
  XXX=              0.0000  YYY=              0.0000  ZZZ=             45.0733  XYY=              0.0000
  XXY=             -0.0000  XXZ=              8.5367  XZZ=              0.0000  YZZ=              0.0000
  YYZ=              8.0373  XYZ=              0.0000
 Hexadecapole moment (field-independent basis, Debye-Ang**3):
 XXXX=            -28.1984 YYYY=            -62.5739 ZZZZ=           -455.0150 XXXY=             -0.0000
 XXXZ=             -0.0000 YYYX=             -0.0000 YYYZ=             -0.0000 ZZZX=             -0.0000
 ZZZY=              0.0000 XXYY=            -17.0167 XXZZ=            -75.7588 YYZZ=            -86.4874
 XXYZ=              0.0000 YYXZ=             -0.0000 ZZXY=             -0.0000
 N-N= 1.518532724982D+02 E-N=-7.243157998214D+03  KE= 2.902675081830D+03
 Symmetry A1   KE= 2.058622255709D+03
 Symmetry A2   KE= 5.311303020776D+01
 Symmetry B1   KE= 3.631743676807D+02
 Symmetry B2   KE= 4.277654282331D+02
 Leave Link  601 at Mon Mar 30 07:09:37 2020, MaxMem=  2147483648 cpu:               0.6 elap:               0.1
 (Enter /usr/local/g16/g16/l122.exe)
 CPIOFr:  IOpCl= 0 IRwI=-1 IRwCP=  731 ICalc= -1 LCPTot=       59414 Len1MO=      159453 IndFrg=       59414
 CPIOFr:  IOpCl= 0 IRwI=-1 IRwCP=  731 ICalc=  0 LCPTot=       59414 Len1MO=      159453 IndFrg=      218867
 Counterpoise: doing calculation for fragment   1 using the basis set of the full-system, NewBq=T
 Leave Link  122 at Mon Mar 30 07:09:37 2020, MaxMem=  2147483648 cpu:               0.1 elap:               0.0
 (Enter /usr/local/g16/g16/l301.exe)
 Basis read from rwf:  (5D, 7F)
 No pseudopotential information found on rwf file.
 There are    86 symmetry adapted cartesian basis functions of A1  symmetry.
 There are    31 symmetry adapted cartesian basis functions of A2  symmetry.
 There are    41 symmetry adapted cartesian basis functions of B1  symmetry.
 There are    71 symmetry adapted cartesian basis functions of B2  symmetry.
 There are    71 symmetry adapted basis functions of A1  symmetry.
 There are    29 symmetry adapted basis functions of A2  symmetry.
 There are    37 symmetry adapted basis functions of B1  symmetry.
 There are    60 symmetry adapted basis functions of B2  symmetry.
   197 basis functions,   415 primitive gaussians,   229 cartesian basis functions
     9 alpha electrons        9 beta electrons
       nuclear repulsion energy        36.6667525571 Hartrees.
 IExCor=    0 DFT=F Ex=HF Corr=None ExCW=0 ScaHFX=  1.000000
 ScaDFX=  1.000000  1.000000  1.000000  1.000000 ScalE2=  1.000000  1.000000
 IRadAn=      5 IRanWt=     -1 IRanGd=            0 ICorTp=0 IEmpDi=  4
 NAtoms=    5 NActive=    5 NUniq=    3 SFac= 2.78D+00 NAtFMM=   60 NAOKFM=F Big=F
 Integral buffers will be    131072 words long.
 Raffenetti 1 integral format.
 Two-electron integral symmetry is turned on.
 No density basis found on file   718.
 Leave Link  301 at Mon Mar 30 07:09:37 2020, MaxMem=  2147483648 cpu:               0.4 elap:               0.0
 (Enter /usr/local/g16/g16/l302.exe)
 NPDir=0 NMtPBC=     1 NCelOv=     1 NCel=       1 NClECP=     1 NCelD=      1
         NCelK=      1 NCelE2=     1 NClLst=     1 CellRange=     0.0.
 One-electron integrals computed using PRISM.
 One-electron integral symmetry used in STVInt
 NBasis=   197 RedAO= T EigKep=  1.41D-04  NBF=    71    29    37    60
 NBsUse=   197 1.00D-06 EigRej= -1.00D+00 NBFU=    71    29    37    60
 Leave Link  302 at Mon Mar 30 07:09:38 2020, MaxMem=  2147483648 cpu:               1.6 elap:               0.1
 (Enter /usr/local/g16/g16/l303.exe)
 DipDrv:  MaxL=1.
 Leave Link  303 at Mon Mar 30 07:09:38 2020, MaxMem=  2147483648 cpu:               0.4 elap:               0.0
 (Enter /usr/local/g16/g16/l401.exe)
 ExpMin= 2.53D-02 ExpMax= 1.17D+07 ExpMxC= 1.33D+04 IAcc=3 IRadAn=         5 AccDes= 0.00D+00
 Harris functional with IExCor=  205 and IRadAn=       5 diagonalized for initial guess.
 HarFok:  IExCor=  205 AccDes= 0.00D+00 IRadAn=         5 IDoV= 1 UseB2=F ITyADJ=14
 ICtDFT=  3500011 ScaDFX=  1.000000  1.000000  1.000000  1.000000
 FoFCou: FMM=F IPFlag=           0 FMFlag=      100000 FMFlg1=           0
         NFxFlg=           0 DoJE=T BraDBF=F KetDBF=T FulRan=T
         wScrn=  0.000000 ICntrl=       500 IOpCl=  0 I1Cent=   200000004 NGrid=           0
         NMat0=    1 NMatS0=      1 NMatT0=    0 NMatD0=    1 NMtDS0=    0 NMtDT0=    0
 Petite list used in FoFCou.
 Harris En= -150.932267931004    
 JPrj=0 DoOrth=F DoCkMO=F.
 Initial guess orbital symmetries:
       Occupied  (B2) (A1) (A1) (B2) (A1) (A1) (B1) (B2) (A2)
       Virtual   (B2) (A1) (B2) (A1) (B1) (A1) (B2) (A1) (B2) (B1)
                 (A1) (A2) (B2) (A1) (A1) (B1) (B2) (A1) (A2) (B2)
                 (A1) (B2) (B1) (B2) (A1) (A1) (A2) (B1) (A1) (B2)
                 (A1) (A1) (B2) (B1) (B1) (B2) (A1) (A2) (A1) (A2)
                 (B1) (B2) (A1) (A1) (B2) (B1) (B2) (A2) (B2) (A1)
                 (B2) (B1) (A1) (A2) (A1) (B1) (B2) (A1) (A2) (B2)
                 (B2) (A1) (B1) (A2) (A1) (A1) (B1) (B2) (A1) (A1)
                 (B2) (A2) (B1) (B2) (B1) (A1) (A2) (A1) (B2) (B1)
                 (A1) (B2) (A1) (B1) (A1) (B2) (A2) (B2) (A1) (B1)
                 (A2) (A1) (B2) (A1) (B2) (A1) (B1) (B2) (B1) (A2)
                 (B2) (A2) (A1) (A1) (B2) (B2) (A2) (B2) (B1) (A1)
                 (B2) (A1) (B1) (B2) (A1) (A2) (A1) (B1) (A2) (B1)
                 (A1) (B2) (B1) (A1) (B1) (A2) (B2) (A1) (A2) (B1)
                 (A1) (B2) (A2) (B2) (A1) (A1) (B2) (A1) (B2) (A1)
                 (B1) (A1) (B2) (A2) (B2) (B2) (A1) (B1) (B2) (A1)
                 (B1) (A1) (A2) (B2) (B1) (A1) (A1) (A2) (B1) (A2)
                 (B1) (B2) (A2) (B2) (A1) (A2) (A1) (B2) (B2) (A1)
                 (B2) (B2) (A1) (A1) (B2) (B1) (B2) (A1) (A2) (A1)
                 (B1) (A1) (B2) (A1) (B1) (B2) (A1) (A1)
 The electronic state of the initial guess is 1-A1.
 Leave Link  401 at Mon Mar 30 07:09:38 2020, MaxMem=  2147483648 cpu:               2.5 elap:               0.2
 (Enter /usr/local/g16/g16/l502.exe)
 Keep R1 ints in memory in symmetry-blocked form, NReq=238417312.
 FoFCou: FMM=F IPFlag=           0 FMFlag=           0 FMFlg1=           0
         NFxFlg=           0 DoJE=F BraDBF=F KetDBF=F FulRan=T
         wScrn=  0.000000 ICntrl=       600 IOpCl=  0 I1Cent=           0 NGrid=           0
         NMat0=    1 NMatS0=  19503 NMatT0=    0 NMatD0=    1 NMtDS0=    0 NMtDT0=    0
 Petite list used in FoFCou.
 Closed shell SCF:
 Using DIIS extrapolation, IDIIS=  1040.
 NGot=  2147483648 LenX=  2099150232 LenY=  2099097350
 Requested convergence on RMS density matrix=1.00D-08 within 128 cycles.
 Requested convergence on MAX density matrix=1.00D-06.
 Requested convergence on             energy=1.00D-06.
 No special actions if energy rises.

 Cycle   1  Pass 1  IDiag  1:
 E= -150.761315964205    
 DIIS: error= 2.34D-02 at cycle   1 NSaved=   1.
 NSaved= 1 IEnMin= 1 EnMin= -150.761315964205     IErMin= 1 ErrMin= 2.34D-02
 ErrMax= 2.34D-02  0.00D+00 EMaxC= 1.00D-01 BMatC= 2.32D-01 BMatP= 2.32D-01
 IDIUse=3 WtCom= 7.66D-01 WtEn= 2.34D-01
 Coeff-Com:  0.100D+01
 Coeff-En:   0.100D+01
 Coeff:      0.100D+01
 Gap=     0.463 Goal=   None    Shift=    0.000
 GapD=    0.463 DampG=2.000 DampE=0.500 DampFc=1.0000 IDamp=-1.
 RMSDP=8.97D-04 MaxDP=2.90D-02              OVMax= 6.96D-02

 Cycle   2  Pass 1  IDiag  1:
 E= -150.816779566305     Delta-E=       -0.055463602099 Rises=F Damp=F
 DIIS: error= 1.20D-02 at cycle   2 NSaved=   2.
 NSaved= 2 IEnMin= 2 EnMin= -150.816779566305     IErMin= 2 ErrMin= 1.20D-02
 ErrMax= 1.20D-02  0.00D+00 EMaxC= 1.00D-01 BMatC= 1.81D-02 BMatP= 2.32D-01
 IDIUse=3 WtCom= 8.80D-01 WtEn= 1.20D-01
 Coeff-Com:  0.118D+00 0.882D+00
 Coeff-En:   0.000D+00 0.100D+01
 Coeff:      0.104D+00 0.896D+00
 Gap=     0.512 Goal=   None    Shift=    0.000
 RMSDP=5.62D-04 MaxDP=2.52D-02 DE=-5.55D-02 OVMax= 3.03D-02

 Cycle   3  Pass 1  IDiag  1:
 E= -150.826042744812     Delta-E=       -0.009263178507 Rises=F Damp=F
 DIIS: error= 4.91D-03 at cycle   3 NSaved=   3.
 NSaved= 3 IEnMin= 3 EnMin= -150.826042744812     IErMin= 3 ErrMin= 4.91D-03
 ErrMax= 4.91D-03  0.00D+00 EMaxC= 1.00D-01 BMatC= 2.64D-03 BMatP= 1.81D-02
 IDIUse=3 WtCom= 9.51D-01 WtEn= 4.91D-02
 Coeff-Com: -0.212D-01 0.255D+00 0.766D+00
 Coeff-En:   0.000D+00 0.000D+00 0.100D+01
 Coeff:     -0.201D-01 0.243D+00 0.777D+00
 Gap=     0.481 Goal=   None    Shift=    0.000
 RMSDP=1.32D-04 MaxDP=4.80D-03 DE=-9.26D-03 OVMax= 1.03D-02

 Cycle   4  Pass 1  IDiag  1:
 E= -150.827697031737     Delta-E=       -0.001654286926 Rises=F Damp=F
 DIIS: error= 4.60D-04 at cycle   4 NSaved=   4.
 NSaved= 4 IEnMin= 4 EnMin= -150.827697031737     IErMin= 4 ErrMin= 4.60D-04
 ErrMax= 4.60D-04  0.00D+00 EMaxC= 1.00D-01 BMatC= 1.78D-05 BMatP= 2.64D-03
 IDIUse=3 WtCom= 9.95D-01 WtEn= 4.60D-03
 Coeff-Com: -0.189D-02-0.123D-01 0.131D-01 0.100D+01
 Coeff-En:   0.000D+00 0.000D+00 0.000D+00 0.100D+01
 Coeff:     -0.189D-02-0.123D-01 0.131D-01 0.100D+01
 Gap=     0.483 Goal=   None    Shift=    0.000
 RMSDP=1.73D-05 MaxDP=4.57D-04 DE=-1.65D-03 OVMax= 1.39D-03

 Cycle   5  Pass 1  IDiag  1:
 E= -150.827721163015     Delta-E=       -0.000024131277 Rises=F Damp=F
 DIIS: error= 1.07D-04 at cycle   5 NSaved=   5.
 NSaved= 5 IEnMin= 5 EnMin= -150.827721163015     IErMin= 5 ErrMin= 1.07D-04
 ErrMax= 1.07D-04  0.00D+00 EMaxC= 1.00D-01 BMatC= 1.57D-06 BMatP= 1.78D-05
 IDIUse=3 WtCom= 9.99D-01 WtEn= 1.07D-03
 Coeff-Com:  0.175D-02-0.169D-01-0.595D-01-0.153D+00 0.123D+01
 Coeff-En:   0.000D+00 0.000D+00 0.000D+00 0.000D+00 0.100D+01
 Coeff:      0.175D-02-0.168D-01-0.594D-01-0.153D+00 0.123D+01
 Gap=     0.483 Goal=   None    Shift=    0.000
 RMSDP=9.37D-06 MaxDP=3.14D-04 DE=-2.41D-05 OVMax= 8.26D-04

 Cycle   6  Pass 1  IDiag  1:
 E= -150.827724802183     Delta-E=       -0.000003639169 Rises=F Damp=F
 DIIS: error= 3.09D-05 at cycle   6 NSaved=   6.
 NSaved= 6 IEnMin= 6 EnMin= -150.827724802183     IErMin= 6 ErrMin= 3.09D-05
 ErrMax= 3.09D-05  0.00D+00 EMaxC= 1.00D-01 BMatC= 6.23D-08 BMatP= 1.57D-06
 IDIUse=1 WtCom= 1.00D+00 WtEn= 0.00D+00
 Coeff-Com: -0.450D-03 0.530D-02 0.193D-01 0.283D-01-0.460D+00 0.141D+01
 Coeff:     -0.450D-03 0.530D-02 0.193D-01 0.283D-01-0.460D+00 0.141D+01
 Gap=     0.483 Goal=   None    Shift=    0.000
 RMSDP=2.54D-06 MaxDP=7.89D-05 DE=-3.64D-06 OVMax= 2.35D-04

 Cycle   7  Pass 1  IDiag  1:
 E= -150.827724975904     Delta-E=       -0.000000173721 Rises=F Damp=F
 DIIS: error= 3.74D-06 at cycle   7 NSaved=   7.
 NSaved= 7 IEnMin= 7 EnMin= -150.827724975904     IErMin= 7 ErrMin= 3.74D-06
 ErrMax= 3.74D-06  0.00D+00 EMaxC= 1.00D-01 BMatC= 1.67D-09 BMatP= 6.23D-08
 IDIUse=1 WtCom= 1.00D+00 WtEn= 0.00D+00
 Coeff-Com:  0.652D-04-0.936D-03-0.368D-02-0.122D-02 0.834D-01-0.353D+00
 Coeff-Com:  0.128D+01
 Coeff:      0.652D-04-0.936D-03-0.368D-02-0.122D-02 0.834D-01-0.353D+00
 Coeff:      0.128D+01
 Gap=     0.483 Goal=   None    Shift=    0.000
 RMSDP=3.94D-07 MaxDP=1.01D-05 DE=-1.74D-07 OVMax= 4.11D-05

 Cycle   8  Pass 1  IDiag  1:
 E= -150.827724980380     Delta-E=       -0.000000004476 Rises=F Damp=F
 DIIS: error= 1.45D-06 at cycle   8 NSaved=   8.
 NSaved= 8 IEnMin= 8 EnMin= -150.827724980380     IErMin= 8 ErrMin= 1.45D-06
 ErrMax= 1.45D-06  0.00D+00 EMaxC= 1.00D-01 BMatC= 1.65D-10 BMatP= 1.67D-09
 IDIUse=1 WtCom= 1.00D+00 WtEn= 0.00D+00
 Coeff-Com: -0.631D-05 0.165D-03 0.811D-03-0.153D-02-0.156D-01 0.100D+00
 Coeff-Com: -0.660D+00 0.158D+01
 Coeff:     -0.631D-05 0.165D-03 0.811D-03-0.153D-02-0.156D-01 0.100D+00
 Coeff:     -0.660D+00 0.158D+01
 Gap=     0.483 Goal=   None    Shift=    0.000
 RMSDP=1.41D-07 MaxDP=3.13D-06 DE=-4.48D-09 OVMax= 1.86D-05

 Cycle   9  Pass 1  IDiag  1:
 E= -150.827724980974     Delta-E=       -0.000000000595 Rises=F Damp=F
 DIIS: error= 4.19D-07 at cycle   9 NSaved=   9.
 NSaved= 9 IEnMin= 9 EnMin= -150.827724980974     IErMin= 9 ErrMin= 4.19D-07
 ErrMax= 4.19D-07  0.00D+00 EMaxC= 1.00D-01 BMatC= 9.64D-12 BMatP= 1.65D-10
 IDIUse=1 WtCom= 1.00D+00 WtEn= 0.00D+00
 Coeff-Com: -0.177D-06-0.266D-04-0.179D-03 0.860D-03 0.207D-02-0.220D-01
 Coeff-Com:  0.199D+00-0.678D+00 0.150D+01
 Coeff:     -0.177D-06-0.266D-04-0.179D-03 0.860D-03 0.207D-02-0.220D-01
 Coeff:      0.199D+00-0.678D+00 0.150D+01
 Gap=     0.483 Goal=   None    Shift=    0.000
 RMSDP=3.70D-08 MaxDP=1.16D-06 DE=-5.95D-10 OVMax= 5.20D-06

 Cycle  10  Pass 1  IDiag  1:
 E= -150.827724981009     Delta-E=       -0.000000000035 Rises=F Damp=F
 DIIS: error= 7.87D-08 at cycle  10 NSaved=  10.
 NSaved=10 IEnMin=10 EnMin= -150.827724981009     IErMin=10 ErrMin= 7.87D-08
 ErrMax= 7.87D-08  0.00D+00 EMaxC= 1.00D-01 BMatC= 4.00D-13 BMatP= 9.64D-12
 IDIUse=1 WtCom= 1.00D+00 WtEn= 0.00D+00
 Coeff-Com:  0.603D-06-0.498D-05-0.336D-05-0.118D-03 0.271D-03-0.417D-04
 Coeff-Com: -0.163D-01 0.106D+00-0.472D+00 0.138D+01
 Coeff:      0.603D-06-0.498D-05-0.336D-05-0.118D-03 0.271D-03-0.417D-04
 Coeff:     -0.163D-01 0.106D+00-0.472D+00 0.138D+01
 Gap=     0.483 Goal=   None    Shift=    0.000
 RMSDP=7.67D-09 MaxDP=2.35D-07 DE=-3.47D-11 OVMax= 9.75D-07

 SCF Done:  E(RHF) =  -150.827724981     A.U. after   10 cycles
            NFock= 10  Conv=0.77D-08     -V/T= 2.0019
 KE= 1.505470791337D+02 PE=-4.315235407566D+02 EE= 9.348198408476D+01
 Leave Link  502 at Mon Mar 30 07:09:40 2020, MaxMem=  2147483648 cpu:              25.2 elap:               1.7
 (Enter /usr/local/g16/g16/l801.exe)
 Windowed orbitals will be sorted by symmetry type.
 ExpMin= 2.53D-02 ExpMax= 1.17D+07 ExpMxC= 1.33D+04 IAcc=3 IRadAn=         5 AccDes= 0.00D+00
 HarFok:  IExCor=  205 AccDes= 0.00D+00 IRadAn=         5 IDoV=-2 UseB2=F ITyADJ=14
 ICtDFT= 12500011 ScaDFX=  1.000000  1.000000  1.000000  1.000000
 Largest valence mixing into a core orbital is  1.19D-04
 Largest core mixing into a valence orbital is  2.08D-05
 Range of M.O.s used for correlation:     3   197
 NBasis=   197 NAE=     9 NBE=     9 NFC=     2 NFV=     0
 NROrb=    195 NOA=     7 NOB=     7 NVA=   188 NVB=   188

 **** Warning!!: The largest alpha MO coefficient is  0.20664702D+02

 Leave Link  801 at Mon Mar 30 07:09:40 2020, MaxMem=  2147483648 cpu:               0.5 elap:               0.0
 (Enter /usr/local/g16/g16/l804.exe)
 Closed-shell transformation, MDV=  2147483648 ITran=4 ISComp=2.
 Semi-Direct transformation.
 ModeAB=           4 MOrb=             7 LenV=    2146293966
 LASXX=      6401074 LTotXX=     6401074 LenRXX=    12911978
 LTotAB=     6510904 MaxLAS=    20275710 LenRXY=           0
 NonZer=    19313052 LenScr=    29748224 LnRSAI=    20275710
 LnScr1=    31191040 LExtra=           0 Total=     94126952
 MaxDsk=          -1 SrtSym=           T ITran=            4
 DoSDTr:  NPSUse= 16
 JobTyp=0 Pass  1:  I=   1 to   7.
 (rs|ai) integrals will be sorted in core.
 Complete sort for first half transformation.
 First half transformation complete.
 Complete sort for second half transformation.
 Second half transformation complete.
 Spin components of T(2) and E(2):
     alpha-alpha T2 =       0.1606680310D-01 E2=     -0.6287050762D-01
     alpha-beta  T2 =       0.9337740775D-01 E2=     -0.3820504652D+00
     beta-beta   T2 =       0.1606680310D-01 E2=     -0.6287050762D-01
 ANorm=    0.1060901039D+01
 E2 =    -0.5077914805D+00 EUMP2 =    -0.15133551646148D+03
 Leave Link  804 at Mon Mar 30 07:09:43 2020, MaxMem=  2147483648 cpu:              58.9 elap:               3.7
 (Enter /usr/local/g16/g16/l913.exe)
 CIDS:  MDV=  2147483648.
 Frozen-core window:  NFC=   2 NFV=   0.
 IFCWin=0 IBDFC=1 NFBD=     0     0 NFCmp=     0     0 NFFFC=     0     0
 Using DD3R+UMP44R for 1st iteration.
 Using DD4RQ for 2nd and later iterations.
 Keep R2 and R3 ints in memory in symmetry-blocked form, NReq=238422928.
 FoFCou: FMM=F IPFlag=           0 FMFlag=           0 FMFlg1=           0
         NFxFlg=           0 DoJE=F BraDBF=F KetDBF=F FulRan=T
         wScrn=  0.000000 ICntrl=       600 IOpCl=  0 I1Cent=           0 NGrid=           0
         NMat0=    1 NMatS0=  19503 NMatT0=    0 NMatD0=    1 NMtDS0=    0 NMtDT0=    0
 Petite list used in FoFCou.
 CIDS: In Core Option IDoMem=           1.
 MP4(SDTQ)
 =========
 Produce multiple copies of IABC intergrals
 DD1Dir will call FoFMem   1 times, MxPair=        56
 NAB=    28 NAA=     0 NBB=     0.
 MP4(D)= -0.11208232D-01
 MP4(S)= -0.52121720D-02
 MP4(R+Q)=  0.10833224D-01
 IPart= 15 IA=   11   10.38% done.
 IPart=  3 IA=   21   20.20% done.
 IPart= 16 IA=   32   30.33% done.
 IPart= 10 IA=   44   40.61% done.
 IPart= 14 IA=   56   50.06% done.
 IPart=  3 IA=   70   60.06% done.
 IPart= 10 IA=   86   70.12% done.
 IPart= 10 IA=  105   80.17% done.
 IPart=  9 IA=  130   90.27% done.
 Time for triples=      284.49 seconds.
 MP4(T)=   -0.21986474D-01
 E3=       -0.20637380D-02        EUMP3=      -0.15133758020D+03
 E4(DQ)=   -0.37500875D-03        UMP4(DQ)=   -0.15133795521D+03
 E4(SDQ)=  -0.55871807D-02        UMP4(SDQ)=  -0.15134316738D+03
 E4(SDTQ)= -0.27573655D-01        UMP4(SDTQ)= -0.15136515385D+03
 VARIATIONAL ENERGIES WITH THE FIRST-ORDER WAVEFUNCTION:
 E(VAR1)=  -0.15128072385D+03     E(CISD,4)=  -0.15129026718D+03
 Largest amplitude= 4.77D-02
 Discarding MO integrals.
 Leave Link  913 at Mon Mar 30 07:10:03 2020, MaxMem=  2147483648 cpu:             316.2 elap:              19.8
 (Enter /usr/local/g16/g16/l601.exe)
 Copying SCF densities to generalized density rwf, IOpCl= 0 IROHF=0.

 **********************************************************************

            Population analysis using the SCF density.

 **********************************************************************

 Orbital symmetries:
       Occupied  (A1) (B2) (A1) (B2) (A1) (B1) (A1) (B2) (A2)
       Virtual   (A1) (B2) (A1) (B1) (A1) (B2) (B2) (A1) (B1) (A1)
                 (B2) (A2) (A1) (B1) (B2) (A1) (B2) (A1) (A2) (A1)
                 (B2) (B1) (B2) (A1) (A2) (A1) (B2) (B1) (B2) (A1)
                 (A1) (B2) (A1) (B1) (B2) (A1) (B1) (A2) (A1) (A2)
                 (B1) (B2) (A1) (B2) (A1) (B1) (A1) (B2) (A2) (B2)
                 (B2) (A1) (B1) (B1) (A1) (A2) (B2) (A1) (A2) (B2)
                 (B1) (A1) (B2) (A2) (B1) (A1) (A1) (B2) (A1) (B2)
                 (B1) (A1) (A2) (B2) (B1) (A1) (A2) (B2) (A1) (A1)
                 (B2) (B1) (A1) (B2) (B1) (A1) (A2) (A1) (B2) (B1)
                 (A1) (A2) (B2) (A1) (B2) (A1) (B1) (B2) (B1) (A2)
                 (B2) (A2) (A1) (A1) (B2) (B1) (B2) (A2) (B2) (B2)
                 (A1) (A1) (A1) (A2) (B1) (A1) (B1) (B2) (B2) (A2)
                 (A1) (B1) (A1) (B2) (B1) (B2) (B1) (A1) (B1) (A2)
                 (A1) (A2) (B2) (A1) (A2) (A1) (B2) (A1) (B2) (A1)
                 (B1) (A1) (B2) (A2) (B2) (B2) (A1) (B1) (B2) (A1)
                 (B1) (A1) (A2) (B2) (A1) (B1) (A2) (B1) (A1) (B1)
                 (B2) (A2) (A2) (B2) (A1) (A2) (A1) (B2) (B2) (A1)
                 (B2) (B2) (A1) (A1) (B1) (B2) (A1) (B2) (A2) (A1)
                 (B1) (A1) (B2) (A1) (B1) (B2) (A1) (A1)
 The electronic state is 1-A1.
 Alpha  occ. eigenvalues --  -20.63478 -20.63451  -1.47332  -1.22049  -0.77058
 Alpha  occ. eigenvalues --   -0.63033  -0.59947  -0.58038  -0.46238
 Alpha virt. eigenvalues --    0.02084   0.04107   0.07337   0.07607   0.09719
 Alpha virt. eigenvalues --    0.10255   0.14149   0.17429   0.18090   0.18336
 Alpha virt. eigenvalues --    0.19056   0.19776   0.23018   0.27155   0.27514
 Alpha virt. eigenvalues --    0.28163   0.29429   0.29543   0.31831   0.35422
 Alpha virt. eigenvalues --    0.35773   0.36327   0.38729   0.42226   0.45505
 Alpha virt. eigenvalues --    0.46190   0.47309   0.48523   0.51235   0.55230
 Alpha virt. eigenvalues --    0.57016   0.59501   0.63187   0.68711   0.69524
 Alpha virt. eigenvalues --    0.72916   0.75412   0.80567   0.80911   0.84643
 Alpha virt. eigenvalues --    0.87103   0.88402   0.89916   0.92143   0.93841
 Alpha virt. eigenvalues --    0.97861   1.00607   1.00835   1.02254   1.03747
 Alpha virt. eigenvalues --    1.06109   1.07924   1.10756   1.12089   1.14684
 Alpha virt. eigenvalues --    1.16219   1.21361   1.26467   1.26779   1.28166
 Alpha virt. eigenvalues --    1.32279   1.32987   1.33745   1.34079   1.34319
 Alpha virt. eigenvalues --    1.35997   1.39886   1.41580   1.47888   1.53097
 Alpha virt. eigenvalues --    1.55418   1.55742   1.57375   1.60197   1.67061
 Alpha virt. eigenvalues --    1.68116   1.69421   1.78556   1.80319   1.87047
 Alpha virt. eigenvalues --    1.91080   1.93204   2.09408   2.12310   2.13049
 Alpha virt. eigenvalues --    2.17065   2.28035   2.38600   2.39150   2.40797
 Alpha virt. eigenvalues --    2.41262   2.45656   2.48766   2.49119   2.58236
 Alpha virt. eigenvalues --    2.59828   2.66771   2.68802   2.77065   2.85600
 Alpha virt. eigenvalues --    2.86263   2.90052   2.98264   3.08660   3.11074
 Alpha virt. eigenvalues --    3.23398   3.29651   3.30427   3.33028   3.38792
 Alpha virt. eigenvalues --    3.40791   3.61071   3.72278   3.77880   3.79965
 Alpha virt. eigenvalues --    3.80816   3.82452   3.83102   3.86757   3.91072
 Alpha virt. eigenvalues --    3.92139   3.96518   3.98609   4.04593   4.09548
 Alpha virt. eigenvalues --    4.14378   4.18365   4.20274   4.29072   4.29956
 Alpha virt. eigenvalues --    4.33378   4.37393   4.42864   4.47032   4.52001
 Alpha virt. eigenvalues --    4.66371   4.80548   4.83817   5.03320   5.20273
 Alpha virt. eigenvalues --    5.26219   5.29312   5.32620   5.41339   5.47655
 Alpha virt. eigenvalues --    5.89108   6.14091   6.30588   6.41663   6.45321
 Alpha virt. eigenvalues --    6.65406   6.72512   6.82937   6.92825   7.05035
 Alpha virt. eigenvalues --    7.09835   7.10635   7.17054   7.17870   7.25346
 Alpha virt. eigenvalues --    7.25544   7.26885   7.29995   7.48305   7.52233
 Alpha virt. eigenvalues --    7.62476   7.66421   7.68631   8.00112   8.36562
 Alpha virt. eigenvalues --    8.46754   8.61794  11.09477  14.45405  14.80431
 Alpha virt. eigenvalues --   14.95937  15.10057  15.43260  29.01609  29.02346
 Alpha virt. eigenvalues --   29.05848  29.20254  29.25003  49.23881 148.28566
 Alpha virt. eigenvalues --  148.52577 148.72546 753.00778
          Condensed to atoms (all electrons):
               1          2          3          4          5
     1  O    8.118556  -0.112229   0.231452   0.019591   0.001495
     2  O   -0.112229   8.118556   0.019591   0.231452   0.001495
     3  H    0.231452   0.019591   0.507058  -0.013643  -0.003428
     4  H    0.019591   0.231452  -0.013643   0.507058  -0.003428
     5  Kr   0.001495   0.001495  -0.003428  -0.003428   0.004075
 Mulliken charges:
               1
     1  O   -0.258866
     2  O   -0.258866
     3  H    0.258971
     4  H    0.258971
     5  Kr  -0.000209
 Sum of Mulliken charges =   0.00000
 Mulliken charges with hydrogens summed into heavy atoms:
               1
     1  O    0.000105
     2  O    0.000105
     5  Kr  -0.000209
         Mulliken charges condensed to fragments:
      1      0.000209
      2     -0.000209
 Electronic spatial extent (au):  <R**2>=            316.3357
 Charge=              0.0000 electrons
 Dipole moment (field-independent basis, Debye):
    X=             -0.0000    Y=             -0.0000    Z=              3.2692  Tot=              3.2692
 Quadrupole moment (field-independent basis, Debye-Ang):
   XX=            -12.8755   YY=            -10.4559   ZZ=            -21.7890
   XY=              0.0000   XZ=             -0.0000   YZ=              0.0000
 Traceless Quadrupole moment (field-independent basis, Debye-Ang):
   XX=              2.1646   YY=              4.5842   ZZ=             -6.7489
   XY=              0.0000   XZ=             -0.0000   YZ=              0.0000
 Octapole moment (field-independent basis, Debye-Ang**2):
  XXX=              0.0000  YYY=              0.0000  ZZZ=             93.1703  XYY=              0.0000
  XXY=              0.0000  XXZ=             25.2549  XZZ=              0.0000  YZZ=             -0.0000
  YYZ=             24.6231  XYZ=              0.0000
 Hexadecapole moment (field-independent basis, Debye-Ang**3):
 XXXX=            -10.3529 YYYY=            -44.4165 ZZZZ=           -336.6972 XXXY=             -0.0000
 XXXZ=             -0.0000 YYYX=             -0.0000 YYYZ=              0.0000 ZZZX=             -0.0000
 ZZZY=             -0.0000 XXYY=            -11.0104 XXZZ=            -53.4127 YYZZ=            -63.7832
 XXYZ=              0.0000 YYXZ=             -0.0000 ZZXY=             -0.0000
 N-N= 3.666675255711D+01 E-N=-4.315235408840D+02  KE= 1.505470791337D+02
 Symmetry A1   KE= 7.186926910796D+01
 Symmetry A2   KE= 5.334427742194D+00
 Symmetry B1   KE= 4.361117681779D+00
 Symmetry B2   KE= 6.898226460179D+01
 Leave Link  601 at Mon Mar 30 07:10:03 2020, MaxMem=  2147483648 cpu:               0.9 elap:               0.1
 (Enter /usr/local/g16/g16/l122.exe)
 CPIOFr:  IOpCl= 0 IRwI=-1 IRwCP=  731 ICalc=  1 LCPTot=       59414 Len1MO=      159453 IndFrg=      378320
 Counterpoise: doing calculation for fragment   2 using the basis set of the full-system, NewBq=T
 Leave Link  122 at Mon Mar 30 07:10:03 2020, MaxMem=  2147483648 cpu:               0.0 elap:               0.0
 (Enter /usr/local/g16/g16/l301.exe)
 Basis read from rwf:  (5D, 7F)
 No pseudopotential information found on rwf file.
 There are    86 symmetry adapted cartesian basis functions of A1  symmetry.
 There are    31 symmetry adapted cartesian basis functions of A2  symmetry.
 There are    41 symmetry adapted cartesian basis functions of B1  symmetry.
 There are    71 symmetry adapted cartesian basis functions of B2  symmetry.
 There are    71 symmetry adapted basis functions of A1  symmetry.
 There are    29 symmetry adapted basis functions of A2  symmetry.
 There are    37 symmetry adapted basis functions of B1  symmetry.
 There are    60 symmetry adapted basis functions of B2  symmetry.
   197 basis functions,   415 primitive gaussians,   229 cartesian basis functions
    18 alpha electrons       18 beta electrons
       nuclear repulsion energy         0.0000000000 Hartrees.
 IExCor=    0 DFT=F Ex=HF Corr=None ExCW=0 ScaHFX=  1.000000
 ScaDFX=  1.000000  1.000000  1.000000  1.000000 ScalE2=  1.000000  1.000000
 IRadAn=      5 IRanWt=     -1 IRanGd=            0 ICorTp=0 IEmpDi=  4
 NAtoms=    5 NActive=    5 NUniq=    3 SFac= 2.78D+00 NAtFMM=   60 NAOKFM=F Big=F
 Integral buffers will be    131072 words long.
 Raffenetti 1 integral format.
 Two-electron integral symmetry is turned on.
 No density basis found on file   718.
 Leave Link  301 at Mon Mar 30 07:10:03 2020, MaxMem=  2147483648 cpu:               0.4 elap:               0.0
 (Enter /usr/local/g16/g16/l302.exe)
 NPDir=0 NMtPBC=     1 NCelOv=     1 NCel=       1 NClECP=     1 NCelD=      1
         NCelK=      1 NCelE2=     1 NClLst=     1 CellRange=     0.0.
 One-electron integrals computed using PRISM.
 One-electron integral symmetry used in STVInt
 NBasis=   197 RedAO= T EigKep=  1.41D-04  NBF=    71    29    37    60
 NBsUse=   197 1.00D-06 EigRej= -1.00D+00 NBFU=    71    29    37    60
 Leave Link  302 at Mon Mar 30 07:10:03 2020, MaxMem=  2147483648 cpu:               1.6 elap:               0.1
 (Enter /usr/local/g16/g16/l303.exe)
 DipDrv:  MaxL=1.
 Leave Link  303 at Mon Mar 30 07:10:03 2020, MaxMem=  2147483648 cpu:               0.4 elap:               0.0
 (Enter /usr/local/g16/g16/l401.exe)
 ExpMin= 2.53D-02 ExpMax= 1.17D+07 ExpMxC= 1.33D+04 IAcc=3 IRadAn=         5 AccDes= 0.00D+00
 Harris functional with IExCor=  205 and IRadAn=       5 diagonalized for initial guess.
 HarFok:  IExCor=  205 AccDes= 0.00D+00 IRadAn=         5 IDoV= 1 UseB2=F ITyADJ=14
 ICtDFT=  3500011 ScaDFX=  1.000000  1.000000  1.000000  1.000000
 FoFCou: FMM=F IPFlag=           0 FMFlag=      100000 FMFlg1=           0
         NFxFlg=           0 DoJE=T BraDBF=F KetDBF=T FulRan=T
         wScrn=  0.000000 ICntrl=       500 IOpCl=  0 I1Cent=   200000004 NGrid=           0
         NMat0=    1 NMatS0=      1 NMatT0=    0 NMatD0=    1 NMtDS0=    0 NMtDT0=    0
 Petite list used in FoFCou.
 Harris En= -2751.06023613981    
 JPrj=0 DoOrth=F DoCkMO=F.
 Initial guess orbital symmetries:
       Occupied  (A1) (A1) (A1) (B2) (B1) (A1) (A1) (B2) (B1) (B2)
                 (A1) (B1) (A1) (A2) (A1) (A1) (B2) (B1)
       Virtual   (A1) (B2) (A1) (B1) (B2) (A1) (B1) (A1) (A2) (A1)
                 (B2) (A1) (B2) (B1) (A1) (A2) (A1) (B2) (A1) (B1)
                 (B2) (A1) (B2) (A2) (B2) (A1) (B2) (B1) (A1) (A1)
                 (B2) (B1) (A2) (A1) (A1) (B2) (B1) (A1) (B1) (B2)
                 (A2) (A1) (A1) (B1) (A2) (B2) (A1) (B2) (B1) (A1)
                 (B2) (A1) (B1) (A2) (B2) (B2) (B1) (B2) (A1) (A2)
                 (A1) (A1) (A2) (B2) (A1) (B1) (A2) (B2) (A1) (B2)
                 (A1) (B2) (B2) (B1) (A1) (A2) (A1) (B2) (B2) (B1)
                 (A1) (B2) (A2) (A1) (B1) (B1) (A1) (B1) (B2) (A1)
                 (B1) (A2) (A1) (A1) (B1) (A1) (B2) (A1) (B2) (A2)
                 (B1) (A2) (B2) (B1) (B2) (A2) (A1) (B2) (A1) (B1)
                 (A1) (B2) (A1) (A2) (B2) (B1) (A2) (B2) (A1) (B2)
                 (B2) (A1) (B2) (A2) (A1) (A1) (B1) (B2) (A2) (A1)
                 (B2) (B1) (A1) (A2) (B2) (A1) (B2) (B1) (A1) (A2)
                 (A1) (B2) (B2) (A1) (B2) (B1) (A1) (B1) (A1) (A2)
                 (B2) (A1) (B1) (A2) (A2) (B2) (A1) (B2) (B2) (A1)
                 (B1) (B2) (B1) (A2) (A1) (A2) (B2) (B2) (A1) (B1)
                 (A2) (A1) (A1) (B2) (B2) (A1) (B2) (A1) (B2)
 The electronic state of the initial guess is 1-A1.
 Leave Link  401 at Mon Mar 30 07:10:04 2020, MaxMem=  2147483648 cpu:               2.4 elap:               0.2
 (Enter /usr/local/g16/g16/l502.exe)
 Keep R1 ints in memory in symmetry-blocked form, NReq=238417312.
 FoFCou: FMM=F IPFlag=           0 FMFlag=           0 FMFlg1=           0
         NFxFlg=           0 DoJE=F BraDBF=F KetDBF=F FulRan=T
         wScrn=  0.000000 ICntrl=       600 IOpCl=  0 I1Cent=           0 NGrid=           0
         NMat0=    1 NMatS0=  19503 NMatT0=    0 NMatD0=    1 NMtDS0=    0 NMtDT0=    0
 Petite list used in FoFCou.
 Closed shell SCF:
 Using DIIS extrapolation, IDIIS=  1040.
 NGot=  2147483648 LenX=  2099150232 LenY=  2099097350
 Requested convergence on RMS density matrix=1.00D-08 within 128 cycles.
 Requested convergence on MAX density matrix=1.00D-06.
 Requested convergence on             energy=1.00D-06.
 No special actions if energy rises.

 Cycle   1  Pass 1  IDiag  1:
 E= -2752.00341367589    
 DIIS: error= 6.51D-02 at cycle   1 NSaved=   1.
 NSaved= 1 IEnMin= 1 EnMin= -2752.00341367589     IErMin= 1 ErrMin= 6.51D-02
 ErrMax= 6.51D-02  0.00D+00 EMaxC= 1.00D-01 BMatC= 4.35D-01 BMatP= 4.35D-01
 IDIUse=3 WtCom= 3.49D-01 WtEn= 6.51D-01
 Coeff-Com:  0.100D+01
 Coeff-En:   0.100D+01
 Coeff:      0.100D+01
 Gap=     0.627 Goal=   None    Shift=    0.000
 GapD=    0.627 DampG=2.000 DampE=0.500 DampFc=1.0000 IDamp=-1.
 RMSDP=1.83D-03 MaxDP=1.33D-01              OVMax= 2.38D-02

 Cycle   2  Pass 1  IDiag  1:
 E= -2752.04695016982     Delta-E=       -0.043536493930 Rises=F Damp=F
 DIIS: error= 7.86D-03 at cycle   2 NSaved=   2.
 NSaved= 2 IEnMin= 2 EnMin= -2752.04695016982     IErMin= 2 ErrMin= 7.86D-03
 ErrMax= 7.86D-03  0.00D+00 EMaxC= 1.00D-01 BMatC= 2.00D-02 BMatP= 4.35D-01
 IDIUse=3 WtCom= 9.21D-01 WtEn= 7.86D-02
 Coeff-Com:  0.152D+00 0.848D+00
 Coeff-En:   0.000D+00 0.100D+01
 Coeff:      0.140D+00 0.860D+00
 Gap=     0.545 Goal=   None    Shift=    0.000
 RMSDP=6.13D-04 MaxDP=3.63D-02 DE=-4.35D-02 OVMax= 1.31D-02

 Cycle   3  Pass 1  IDiag  1:
 E= -2752.05205890062     Delta-E=       -0.005108730797 Rises=F Damp=F
 DIIS: error= 1.51D-03 at cycle   3 NSaved=   3.
 NSaved= 3 IEnMin= 3 EnMin= -2752.05205890062     IErMin= 3 ErrMin= 1.51D-03
 ErrMax= 1.51D-03  0.00D+00 EMaxC= 1.00D-01 BMatC= 7.41D-04 BMatP= 2.00D-02
 IDIUse=3 WtCom= 9.85D-01 WtEn= 1.51D-02
 Coeff-Com: -0.133D-02 0.157D+00 0.845D+00
 Coeff-En:   0.000D+00 0.000D+00 0.100D+01
 Coeff:     -0.131D-02 0.154D+00 0.847D+00
 Gap=     0.556 Goal=   None    Shift=    0.000
 RMSDP=7.94D-05 MaxDP=4.59D-03 DE=-5.11D-03 OVMax= 2.92D-03

 Cycle   4  Pass 1  IDiag  1:
 E= -2752.05227726161     Delta-E=       -0.000218360989 Rises=F Damp=F
 DIIS: error= 5.36D-05 at cycle   4 NSaved=   4.
 NSaved= 4 IEnMin= 4 EnMin= -2752.05227726161     IErMin= 4 ErrMin= 5.36D-05
 ErrMax= 5.36D-05  0.00D+00 EMaxC= 1.00D-01 BMatC= 7.67D-07 BMatP= 7.41D-04
 IDIUse=1 WtCom= 1.00D+00 WtEn= 0.00D+00
 Coeff-Com: -0.355D-03-0.173D-01-0.561D-01 0.107D+01
 Coeff:     -0.355D-03-0.173D-01-0.561D-01 0.107D+01
 Gap=     0.555 Goal=   None    Shift=    0.000
 RMSDP=6.30D-06 MaxDP=2.91D-04 DE=-2.18D-04 OVMax= 2.72D-04

 Cycle   5  Pass 1  IDiag  1:
 E= -2752.05227770850     Delta-E=       -0.000000446888 Rises=F Damp=F
 DIIS: error= 3.83D-06 at cycle   5 NSaved=   5.
 NSaved= 5 IEnMin= 5 EnMin= -2752.05227770850     IErMin= 5 ErrMin= 3.83D-06
 ErrMax= 3.83D-06  0.00D+00 EMaxC= 1.00D-01 BMatC= 6.19D-09 BMatP= 7.67D-07
 IDIUse=1 WtCom= 1.00D+00 WtEn= 0.00D+00
 Coeff-Com:  0.612D-04-0.149D-04-0.535D-02-0.850D-01 0.109D+01
 Coeff:      0.612D-04-0.149D-04-0.535D-02-0.850D-01 0.109D+01
 Gap=     0.556 Goal=   None    Shift=    0.000
 RMSDP=6.97D-07 MaxDP=2.97D-05 DE=-4.47D-07 OVMax= 2.81D-05

 Cycle   6  Pass 1  IDiag  1:
 E= -2752.05227771450     Delta-E=       -0.000000006000 Rises=F Damp=F
 DIIS: error= 3.92D-07 at cycle   6 NSaved=   6.
 NSaved= 6 IEnMin= 6 EnMin= -2752.05227771450     IErMin= 6 ErrMin= 3.92D-07
 ErrMax= 3.92D-07  0.00D+00 EMaxC= 1.00D-01 BMatC= 4.36D-11 BMatP= 6.19D-09
 IDIUse=1 WtCom= 1.00D+00 WtEn= 0.00D+00
 Coeff-Com: -0.285D-05 0.104D-03 0.867D-03-0.231D-02-0.904D-01 0.109D+01
 Coeff:     -0.285D-05 0.104D-03 0.867D-03-0.231D-02-0.904D-01 0.109D+01
 Gap=     0.556 Goal=   None    Shift=    0.000
 RMSDP=6.77D-08 MaxDP=3.77D-06 DE=-6.00D-09 OVMax= 3.37D-06

 Cycle   7  Pass 1  IDiag  1:
 E= -2752.05227771454     Delta-E=       -0.000000000045 Rises=F Damp=F
 DIIS: error= 3.20D-08 at cycle   7 NSaved=   7.
 NSaved= 7 IEnMin= 7 EnMin= -2752.05227771454     IErMin= 7 ErrMin= 3.20D-08
 ErrMax= 3.20D-08  0.00D+00 EMaxC= 1.00D-01 BMatC= 2.16D-13 BMatP= 4.36D-11
 IDIUse=1 WtCom= 1.00D+00 WtEn= 0.00D+00
 Coeff-Com: -0.211D-06 0.403D-05 0.376D-04 0.123D-03-0.483D-02 0.201D-01
 Coeff-Com:  0.985D+00
 Coeff:     -0.211D-06 0.403D-05 0.376D-04 0.123D-03-0.483D-02 0.201D-01
 Coeff:      0.985D+00
 Gap=     0.556 Goal=   None    Shift=    0.000
 RMSDP=5.53D-09 MaxDP=1.90D-07 DE=-4.55D-11 OVMax= 2.71D-07

 SCF Done:  E(RHF) =  -2752.05227771     A.U. after    7 cycles
            NFock=  7  Conv=0.55D-08     -V/T= 2.0000
 KE= 2.752036708893D+03 PE=-6.582550598248D+03 EE= 1.078461611640D+03
 Leave Link  502 at Mon Mar 30 07:10:05 2020, MaxMem=  2147483648 cpu:              24.4 elap:               1.6
 (Enter /usr/local/g16/g16/l801.exe)
 Windowed orbitals will be sorted by symmetry type.
 ExpMin= 2.53D-02 ExpMax= 1.17D+07 ExpMxC= 1.33D+04 IAcc=3 IRadAn=         5 AccDes= 0.00D+00
 HarFok:  IExCor=  205 AccDes= 0.00D+00 IRadAn=         5 IDoV=-2 UseB2=F ITyADJ=14
 ICtDFT= 12500011 ScaDFX=  1.000000  1.000000  1.000000  1.000000
 Largest valence mixing into a core orbital is  9.82D-05
 Largest core mixing into a valence orbital is  3.83D-05
 Range of M.O.s used for correlation:    10   197
 NBasis=   197 NAE=    18 NBE=    18 NFC=     9 NFV=     0
 NROrb=    188 NOA=     9 NOB=     9 NVA=   179 NVB=   179

 **** Warning!!: The largest alpha MO coefficient is  0.18018760D+02

 Leave Link  801 at Mon Mar 30 07:10:05 2020, MaxMem=  2147483648 cpu:               0.5 elap:               0.0
 (Enter /usr/local/g16/g16/l804.exe)
 Closed-shell transformation, MDV=  2147483648 ITran=4 ISComp=2.
 Semi-Direct transformation.
 ModeAB=           4 MOrb=             9 LenV=    2146348478
 LASXX=      7296131 LTotXX=     7296131 LenRXX=    14720061
 LTotAB=     7423930 MaxLAS=    25132968 LenRXY=           0
 NonZer=    22016192 LenScr=    33794560 LnRSAI=    25132968
 LnScr1=    38459904 LExtra=           0 Total=    112107493
 MaxDsk=          -1 SrtSym=           T ITran=            4
 DoSDTr:  NPSUse= 16
 JobTyp=0 Pass  1:  I=   1 to   9.
 (rs|ai) integrals will be sorted in core.
 Complete sort for first half transformation.
 First half transformation complete.
 Complete sort for second half transformation.
 Second half transformation complete.
 Spin components of T(2) and E(2):
     alpha-alpha T2 =       0.9510559909D-02 E2=     -0.3591411348D-01
     alpha-beta  T2 =       0.4827253299D-01 E2=     -0.1729785734D+00
     beta-beta   T2 =       0.9510559909D-02 E2=     -0.3591411348D-01
 ANorm=    0.1033099053D+01
 E2 =    -0.2448068003D+00 EUMP2 =    -0.27522970845149D+04
 Leave Link  804 at Mon Mar 30 07:10:09 2020, MaxMem=  2147483648 cpu:              61.9 elap:               3.9
 (Enter /usr/local/g16/g16/l913.exe)
 CIDS:  MDV=  2147483648.
 Frozen-core window:  NFC=   9 NFV=   0.
 IFCWin=0 IBDFC=1 NFBD=     0     0 NFCmp=     0     0 NFFFC=     0     0
 Using DD3R+UMP44R for 1st iteration.
 Using DD4RQ for 2nd and later iterations.
 Keep R2 and R3 ints in memory in symmetry-blocked form, NReq=238423518.
 FoFCou: FMM=F IPFlag=           0 FMFlag=           0 FMFlg1=           0
         NFxFlg=           0 DoJE=F BraDBF=F KetDBF=F FulRan=T
         wScrn=  0.000000 ICntrl=       600 IOpCl=  0 I1Cent=           0 NGrid=           0
         NMat0=    1 NMatS0=  19503 NMatT0=    0 NMatD0=    1 NMtDS0=    0 NMtDT0=    0
 Petite list used in FoFCou.
 CIDS: In Core Option IDoMem=           1.
 MP4(SDTQ)
 =========
 Produce multiple copies of IABC intergrals
 DD1Dir will call FoFMem   1 times, MxPair=        90
 NAB=    45 NAA=     0 NBB=     0.
 MP4(D)= -0.37376116D-02
 MP4(S)= -0.10949148D-02
 MP4(R+Q)=  0.42671537D-02
 IPart=  7 IA=   11   10.89% done.
 IPart=  5 IA=   20   20.16% done.
 IPart=  9 IA=   31   30.79% done.
 IPart= 11 IA=   42   40.66% done.
 IPart=  6 IA=   54   50.57% done.
 IPart=  5 IA=   67   60.28% done.
 IPart=  9 IA=   82   70.17% done.
 IPart=  7 IA=  100   80.16% done.
 IPart=  2 IA=  124   90.33% done.
 Time for triples=      334.92 seconds.
 MP4(T)=   -0.78155343D-02
 E3=       -0.98433243D-02        EUMP3=      -0.27523069278D+04
 E4(DQ)=    0.52954215D-03        UMP4(DQ)=   -0.27523063983D+04
 E4(SDQ)=  -0.56537265D-03        UMP4(SDQ)=  -0.27523074932D+04
 E4(SDTQ)= -0.83809069D-02        UMP4(SDTQ)= -0.27523153087D+04
 VARIATIONAL ENERGIES WITH THE FIRST-ORDER WAVEFUNCTION:
 E(VAR1)=  -0.27522908720D+04     E(CISD,4)=  -0.27522952864D+04
 Largest amplitude= 1.59D-02
 Discarding MO integrals.
 Leave Link  913 at Mon Mar 30 07:10:32 2020, MaxMem=  2147483648 cpu:             368.6 elap:              23.0
 (Enter /usr/local/g16/g16/l601.exe)
 Copying SCF densities to generalized density rwf, IOpCl= 0 IROHF=0.

 **********************************************************************

            Population analysis using the SCF density.

 **********************************************************************

 Orbital symmetries:
       Occupied  (A1) (A1) (B1) (B2) (A1) (A1) (B1) (B2) (A1) (A2)
                 (A1) (B1) (A1) (B2) (A1) (A1) (B2) (B1)
       Virtual   (A1) (B2) (A1) (B1) (B2) (A1) (A1) (B1) (B2) (A1)
                 (A2) (B2) (A1) (B1) (A1) (A2) (B2) (A1) (B2) (A1)
                 (B1) (B2) (A1) (A2) (A1) (B2) (B2) (A1) (B1) (A1)
                 (B1) (B2) (A2) (A1) (B2) (B1) (A1) (A1) (B2) (B1)
                 (A2) (A1) (A1) (B1) (B2) (B2) (A1) (A2) (B2) (B1)
                 (B2) (A1) (A2) (A1) (B2) (B1) (A2) (A1) (A1) (B1)
                 (B2) (A2) (A1) (B2) (B2) (A1) (A2) (B1) (B2) (A1)
                 (A1) (B2) (B2) (B1) (A1) (A2) (A1) (B2) (B2) (B1)
                 (A1) (B1) (A1) (A1) (B1) (A2) (B2) (B1) (A1) (B2)
                 (A2) (A1) (A2) (B1) (B2) (A1) (B1) (A2) (B2) (B1)
                 (A1) (B2) (A1) (A1) (B1) (A2) (B2) (B1) (A1) (B2)
                 (B2) (A1) (A2) (A1) (B2) (B1) (A2) (B2) (A1) (B2)
                 (B2) (A1) (A2) (B2) (A1) (B1) (A1) (B2) (A2) (B2)
                 (A1) (B1) (A1) (A2) (B2) (A1) (B2) (B1) (A1) (A2)
                 (A1) (B2) (B2) (A1) (B2) (B1) (A1) (B1) (A1) (A2)
                 (B2) (A1) (B1) (A2) (A2) (B2) (A1) (B2) (B2) (A1)
                 (B1) (B2) (B1) (A2) (A1) (A2) (B2) (B2) (A1) (B1)
                 (A2) (A1) (A1) (B2) (B2) (A1) (B2) (A1) (B2)
 The electronic state is 1-A1.
 Alpha  occ. eigenvalues -- -520.16591 -69.90322 -63.00980 -63.00980 -63.00980
 Alpha  occ. eigenvalues --  -10.84956  -8.33156  -8.33155  -8.33154  -3.82533
 Alpha  occ. eigenvalues --   -3.82533  -3.82533  -3.82532  -3.82531  -1.15310
 Alpha  occ. eigenvalues --   -0.52430  -0.52429  -0.52428
 Alpha virt. eigenvalues --    0.03125   0.04917   0.08674   0.09945   0.12175
 Alpha virt. eigenvalues --    0.13383   0.13969   0.14626   0.15655   0.17479
 Alpha virt. eigenvalues --    0.17746   0.18125   0.21795   0.27863   0.28654
 Alpha virt. eigenvalues --    0.29199   0.30228   0.33264   0.34234   0.39288
 Alpha virt. eigenvalues --    0.40398   0.40685   0.41125   0.41937   0.42686
 Alpha virt. eigenvalues --    0.44035   0.47715   0.56197   0.58038   0.62419
 Alpha virt. eigenvalues --    0.63313   0.64707   0.70883   0.72029   0.72260
 Alpha virt. eigenvalues --    0.75428   0.77437   0.79910   0.80178   0.80989
 Alpha virt. eigenvalues --    0.82281   0.85847   0.88326   0.90273   0.90311
 Alpha virt. eigenvalues --    0.90739   0.91484   0.93359   1.00290   1.00599
 Alpha virt. eigenvalues --    1.02015   1.03024   1.03312   1.04538   1.08366
 Alpha virt. eigenvalues --    1.09803   1.11560   1.14270   1.20465   1.21246
 Alpha virt. eigenvalues --    1.22212   1.27232   1.35290   1.35769   1.43198
 Alpha virt. eigenvalues --    1.45401   1.50865   1.51939   1.52172   1.55779
 Alpha virt. eigenvalues --    1.62647   1.66967   1.71244   1.71259   1.76371
 Alpha virt. eigenvalues --    1.80507   1.88362   1.91139   1.97749   2.23094
 Alpha virt. eigenvalues --    2.25376   2.34786   2.37320   2.38122   2.39478
 Alpha virt. eigenvalues --    2.47446   2.49030   2.49379   2.49708   2.52524
 Alpha virt. eigenvalues --    2.55681   2.56869   2.56915   2.60035   2.61951
 Alpha virt. eigenvalues --    2.63951   2.68263   2.69010   2.70778   2.71796
 Alpha virt. eigenvalues --    2.72240   2.74765   2.79884   2.82122   2.82154
 Alpha virt. eigenvalues --    2.85345   2.88988   2.95826   2.96144   3.01017
 Alpha virt. eigenvalues --    3.03193   3.06364   3.12700   3.17096   3.17718
 Alpha virt. eigenvalues --    3.27719   3.28953   3.29953   3.42294   3.57258
 Alpha virt. eigenvalues --    3.64236   3.67342   3.88474   3.89284   4.02879
 Alpha virt. eigenvalues --    4.44652   4.52625   4.53368   4.62745   4.73960
 Alpha virt. eigenvalues --    4.81190   4.82714   4.90856   4.97109   5.06988
 Alpha virt. eigenvalues --    5.24876   5.34235   5.51923   5.67606   5.72851
 Alpha virt. eigenvalues --    5.92685   6.05361   6.31106   6.71174   6.97217
 Alpha virt. eigenvalues --    7.25975   7.38694   7.64380   7.67557   7.80451
 Alpha virt. eigenvalues --    7.88399   8.04159   8.12143   8.13181   8.29491
 Alpha virt. eigenvalues --    8.32535   8.37709   8.72474   9.03468   9.51072
 Alpha virt. eigenvalues --    9.75680   9.76944   9.88134   9.91049   9.95084
 Alpha virt. eigenvalues --   10.21363  10.23060  10.75174  10.87275  11.43419
 Alpha virt. eigenvalues --   11.63804  11.67487  11.92843  12.08024  13.31073
 Alpha virt. eigenvalues --   13.60200  14.56551  62.40366  64.85360
          Condensed to atoms (all electrons):
               1          2          3          4          5
     1  O    0.000830  -0.000165  -0.000734   0.000199  -0.002491
     2  O   -0.000165   0.000830   0.000199  -0.000734  -0.002491
     3  H   -0.000734   0.000199   0.000916  -0.000207  -0.007717
     4  H    0.000199  -0.000734  -0.000207   0.000916  -0.007717
     5  Kr  -0.002491  -0.002491  -0.007717  -0.007717  36.040225
 Mulliken charges:
               1
     1  O    0.002362
     2  O    0.002362
     3  H    0.007543
     4  H    0.007543
     5  Kr  -0.019809
 Sum of Mulliken charges =  -0.00000
 Mulliken charges with hydrogens summed into heavy atoms:
               1
     1  O    0.009904
     2  O    0.009904
     5  Kr  -0.019809
         Mulliken charges condensed to fragments:
      1      0.019809
      2     -0.019809
 Electronic spatial extent (au):  <R**2>=            159.5076
 Charge=             -0.0000 electrons
 Dipole moment (field-independent basis, Debye):
    X=             -0.0000    Y=             -0.0000    Z=             -0.0015  Tot=              0.0015
 Quadrupole moment (field-independent basis, Debye-Ang):
   XX=            -17.7364   YY=            -17.7304   ZZ=            -17.7283
   XY=              0.0000   XZ=             -0.0000   YZ=             -0.0000
 Traceless Quadrupole moment (field-independent basis, Debye-Ang):
   XX=             -0.0047   YY=              0.0013   ZZ=              0.0034
   XY=              0.0000   XZ=             -0.0000   YZ=             -0.0000
 Octapole moment (field-independent basis, Debye-Ang**2):
  XXX=             -0.0000  YYY=             -0.0000  ZZZ=            -51.3744  XYY=             -0.0000
  XXY=              0.0000  XXZ=            -17.1365  XZZ=             -0.0000  YZZ=             -0.0000
  YYZ=            -17.1309  XYZ=              0.0000
 Hexadecapole moment (field-independent basis, Debye-Ang**3):
 XXXX=            -18.5591 YYYY=            -18.5372 ZZZZ=           -117.7815 XXXY=              0.0000
 XXXZ=              0.0000 YYYX=              0.0000 YYYZ=              0.0000 ZZZX=              0.0000
 ZZZY=             -0.0000 XXYY=             -6.1807 XXZZ=            -22.7335 YYZZ=            -22.7251
 XXYZ=             -0.0000 YYXZ=             -0.0000 ZZXY=              0.0000
 N-N= 0.000000000000D+00 E-N=-6.582550599236D+03  KE= 2.752036708893D+03
 Symmetry A1   KE= 1.986662508567D+03
 Symmetry A2   KE= 4.779908297614D+01
 Symmetry B1   KE= 3.587896208146D+02
 Symmetry B2   KE= 3.587854965358D+02
 Leave Link  601 at Mon Mar 30 07:10:32 2020, MaxMem=  2147483648 cpu:               0.6 elap:               0.1
 (Enter /usr/local/g16/g16/l122.exe)
 CPIOFr:  IOpCl= 0 IRwI=-1 IRwCP=  731 ICalc=  2 LCPTot=       59414 Len1MO=      159453 IndFrg=      537773
 Counterpoise: doing calculation for fragment   1 using the basis set of the fragment.
 Leave Link  122 at Mon Mar 30 07:10:32 2020, MaxMem=  2147483648 cpu:               0.0 elap:               0.0
 (Enter /usr/local/g16/g16/l301.exe)
 Basis read from rwf:  (5D, 7F)
 No pseudopotential information found on rwf file.
 There are    55 symmetry adapted cartesian basis functions of A1  symmetry.
 There are    25 symmetry adapted cartesian basis functions of A2  symmetry.
 There are    25 symmetry adapted cartesian basis functions of B1  symmetry.
 There are    55 symmetry adapted cartesian basis functions of B2  symmetry.
 There are    46 symmetry adapted basis functions of A1  symmetry.
 There are    23 symmetry adapted basis functions of A2  symmetry.
[...]
 HarFok:  IExCor=  205 AccDes= 0.00D+00 IRadAn=         5 IDoV=-2 UseB2=F ITyADJ=14
 ICtDFT= 12500011 ScaDFX=  1.000000  1.000000  1.000000  1.000000
 Largest valence mixing into a core orbital is  1.19D-04
 Largest core mixing into a valence orbital is  2.08D-05
 Range of M.O.s used for correlation:     3   138
 NBasis=   138 NAE=     9 NBE=     9 NFC=     2 NFV=     0
 NROrb=    136 NOA=     7 NOB=     7 NVA=   129 NVB=   129

 **** Warning!!: The largest alpha MO coefficient is  0.17412670D+02

 Leave Link  801 at Mon Mar 30 07:54:03 2020, MaxMem=  2147483648 cpu:               0.5 elap:               0.0
 (Enter /usr/local/g16/g16/l804.exe)
 Closed-shell transformation, MDV=  2147483648 ITran=4 ISComp=2.
 Semi-Direct transformation.
 ModeAB=           4 MOrb=             7 LenV=    2146857522
 LASXX=      2143796 LTotXX=     2143796 LenRXX=     4339561
 LTotAB=     2195765 MaxLAS=     6523104 LenRXY=           0
 NonZer=     6483357 LenScr=    10472448 LnRSAI=     6523104
 LnScr1=    10536960 LExtra=           0 Total=     31872073
 MaxDsk=          -1 SrtSym=           T ITran=            4
 DoSDTr:  NPSUse= 16
 JobTyp=0 Pass  1:  I=   1 to   7.
 (rs|ai) integrals will be sorted in core.
 Complete sort for first half transformation.
 First half transformation complete.
 Complete sort for second half transformation.
 Second half transformation complete.
 Spin components of T(2) and E(2):
     alpha-alpha T2 =       0.1606640966D-01 E2=     -0.6286192881D-01
     alpha-beta  T2 =       0.9337052884D-01 E2=     -0.3818384093D+00
     beta-beta   T2 =       0.1606640966D-01 E2=     -0.6286192881D-01
 ANorm=    0.1060897426D+01
 E2 =    -0.5075622669D+00 EUMP2 =    -0.15133520017314D+03
 Leave Link  804 at Mon Mar 30 07:54:04 2020, MaxMem=  2147483648 cpu:              16.3 elap:               1.0
 (Enter /usr/local/g16/g16/l913.exe)
 CIDS:  MDV=  2147483648.
 Frozen-core window:  NFC=   2 NFV=   0.
 IFCWin=0 IBDFC=1 NFBD=     0     0 NFCmp=     0     0 NFFFC=     0     0
 Using DD3R+UMP44R for 1st iteration.
 Using DD4RQ for 2nd and later iterations.
 Keep R2 and R3 ints in memory in symmetry-blocked form, NReq=57689896.
 FoFCou: FMM=F IPFlag=           0 FMFlag=           0 FMFlg1=           0
         NFxFlg=           0 DoJE=F BraDBF=F KetDBF=F FulRan=T
         wScrn=  0.000000 ICntrl=       600 IOpCl=  0 I1Cent=           0 NGrid=           0
         NMat0=    1 NMatS0=   9591 NMatT0=    0 NMatD0=    1 NMtDS0=    0 NMtDT0=    0
 Petite list used in FoFCou.
 CIDS: In Core Option IDoMem=           1.
 MP4(SDTQ)
 =========
 Produce multiple copies of IABC intergrals
 DD1Dir will call FoFMem   1 times, MxPair=        56
 NAB=    28 NAA=     0 NBB=     0.
 MP4(D)= -0.11206256D-01
 MP4(S)= -0.52103105D-02
 MP4(R+Q)=  0.10822539D-01
 IPart=  6 IA=    8   10.60% done.
 IPart=  5 IA=   15   20.60% done.
 IPart= 10 IA=   22   30.01% done.
 IPart=  1 IA=   30   40.04% done.
 IPart= 12 IA=   39   50.40% done.
 IPart=  4 IA=   49   60.76% done.
 IPart= 13 IA=   60   70.75% done.
 IPart=  6 IA=   73   80.67% done.
 IPart=  1 IA=   89   90.07% done.
 Time for triples=       91.19 seconds.
 MP4(T)=   -0.21962819D-01
 E3=       -0.20608794D-02        EUMP3=      -0.15133726105D+03
 E4(DQ)=   -0.38371733D-03        UMP4(DQ)=   -0.15133764477D+03
 E4(SDQ)=  -0.55940279D-02        UMP4(SDQ)=  -0.15134285508D+03
 E4(SDTQ)= -0.27556846D-01        UMP4(SDTQ)= -0.15136481790D+03
 VARIATIONAL ENERGIES WITH THE FIRST-ORDER WAVEFUNCTION:
 E(VAR1)=  -0.15128043367D+03     E(CISD,4)=  -0.15128997686D+03
 Largest amplitude= 2.85D-02
 Discarding MO integrals.
 Leave Link  913 at Mon Mar 30 07:54:10 2020, MaxMem=  2147483648 cpu:             102.4 elap:               6.4
 (Enter /usr/local/g16/g16/l122.exe)
 CPIOFr:  IOpCl= 0 IRwI=-1 IRwCP=  731 ICalc=  3 LCPTot=       59414 Len1MO=      159453 IndFrg=      697226
 Restoring MOs from calculation   5 to rwf and chk.
 CPIOFr:  IOpCl= 0 IRwI=-2 IRwCP=20731 ICalc=  4 LCPTot=       59414 Len1MO=      159453 IndFrg=      856679
 CPIOFr:  IOpCl= 0 IRwI= 4 IRwCP=20731 ICalc=  4 LCPTot=       59414 Len1MO=      159453 IndFrg=      856679
 Counterpoise: doing calculation for fragment   2 using the basis set of the fragment.
 Leave Link  122 at Mon Mar 30 07:54:10 2020, MaxMem=  2147483648 cpu:               0.0 elap:               0.0
 (Enter /usr/local/g16/g16/l301.exe)
 Basis read from rwf:  (5D, 7F)
 No pseudopotential information found on rwf file.
 There are    31 symmetry adapted cartesian basis functions of A1  symmetry.
 There are     6 symmetry adapted cartesian basis functions of A2  symmetry.
 There are    16 symmetry adapted cartesian basis functions of B1  symmetry.
 There are    16 symmetry adapted cartesian basis functions of B2  symmetry.
 There are    25 symmetry adapted basis functions of A1  symmetry.
 There are     6 symmetry adapted basis functions of A2  symmetry.
 There are    14 symmetry adapted basis functions of B1  symmetry.
 There are    14 symmetry adapted basis functions of B2  symmetry.
    59 basis functions,   217 primitive gaussians,    69 cartesian basis functions
    18 alpha electrons       18 beta electrons
       nuclear repulsion energy         0.0000000000 Hartrees.
 IExCor=    0 DFT=F Ex=HF Corr=None ExCW=0 ScaHFX=  1.000000
 ScaDFX=  1.000000  1.000000  1.000000  1.000000 ScalE2=  1.000000  1.000000
 IRadAn=      5 IRanWt=     -1 IRanGd=            0 ICorTp=0 IEmpDi=  4
 NAtoms=    5 NActive=    1 NUniq=    1 SFac= 1.00D+00 NAtFMM=   60 NAOKFM=F Big=F
 Integral buffers will be    131072 words long.
 Raffenetti 1 integral format.
 Two-electron integral symmetry is turned on.
 No density basis found on file   718.
 Leave Link  301 at Mon Mar 30 07:54:10 2020, MaxMem=  2147483648 cpu:               0.4 elap:               0.0
 (Enter /usr/local/g16/g16/l302.exe)
 NPDir=0 NMtPBC=     1 NCelOv=     1 NCel=       1 NClECP=     1 NCelD=      1
         NCelK=      1 NCelE2=     1 NClLst=     1 CellRange=     0.0.
 One-electron integrals computed using PRISM.
 One-electron integral symmetry used in STVInt
 NBasis=    59 RedAO= T EigKep=  1.06D-02  NBF=    25     6    14    14
 NBsUse=    59 1.00D-06 EigRej= -1.00D+00 NBFU=    25     6    14    14
 Leave Link  302 at Mon Mar 30 07:54:10 2020, MaxMem=  2147483648 cpu:               1.3 elap:               0.1
 (Enter /usr/local/g16/g16/l303.exe)
 DipDrv:  MaxL=1.
 Leave Link  303 at Mon Mar 30 07:54:10 2020, MaxMem=  2147483648 cpu:               0.3 elap:               0.0
 (Enter /usr/local/g16/g16/l401.exe)
 Initial guess from the checkpoint file:  "/mnt/driveB/scratch/matheus/Gau-76295.chk"
 B after Tr=    -0.000000    0.000000    0.062991
         Rot=    1.000000    0.000000    0.000000    0.000000 Ang=   0.00 deg.
 Guess basis will be translated and rotated to current coordinates.
 JPrj=2 DoOrth=T DoCkMO=T.
 Initial guess orbital symmetries:
       Occupied  (A1) (A1) (B2) (B1) (A1) (A1) (A1) (B2) (B1) (B1)
                 (A2) (B2) (A1) (A1) (A1) (B1) (A1) (B2)
       Virtual   (A1) (A1) (B1) (B2) (B1) (B2) (A2) (A1) (A1) (B2)
                 (A1) (B1) (A1) (A2) (A1) (B1) (A1) (B2) (B1) (B2)
                 (A1) (A1) (B2) (A2) (B1) (B2) (A1) (B1) (B2) (A1)
                 (A2) (B1) (A1) (B2) (A2) (B1) (B2) (A1) (A1) (B1)
                 (A1)
 The electronic state of the initial guess is 1-A1.
 Generating alternative initial guess.
 ExpMin= 4.00D-02 ExpMax= 1.17D+07 ExpMxC= 1.33D+04 IAcc=3 IRadAn=         5 AccDes= 0.00D+00
 Harris functional with IExCor=  205 and IRadAn=       5 diagonalized for initial guess.
 HarFok:  IExCor=  205 AccDes= 0.00D+00 IRadAn=         5 IDoV= 1 UseB2=F ITyADJ=14
 ICtDFT=  3500011 ScaDFX=  1.000000  1.000000  1.000000  1.000000
 FoFCou: FMM=F IPFlag=           0 FMFlag=      100000 FMFlg1=           0
         NFxFlg=           0 DoJE=T BraDBF=F KetDBF=T FulRan=T
         wScrn=  0.000000 ICntrl=       500 IOpCl=  0 I1Cent=   200000004 NGrid=           0
         NMat0=    1 NMatS0=      1 NMatT0=    0 NMatD0=    1 NMtDS0=    0 NMtDT0=    0
 Petite list used in FoFCou.
 Harris En= -2751.05937170533    
 Leave Link  401 at Mon Mar 30 07:54:10 2020, MaxMem=  2147483648 cpu:               2.3 elap:               0.1
 (Enter /usr/local/g16/g16/l502.exe)
 Keep R1 ints in memory in symmetry-blocked form, NReq=14297990.
 FoFCou: FMM=F IPFlag=           0 FMFlag=           0 FMFlg1=           0
         NFxFlg=           0 DoJE=F BraDBF=F KetDBF=F FulRan=T
         wScrn=  0.000000 ICntrl=       600 IOpCl=  0 I1Cent=           0 NGrid=           0
         NMat0=    1 NMatS0=   1770 NMatT0=    0 NMatD0=    1 NMtDS0=    0 NMtDT0=    0
 Petite list used in FoFCou.
 Closed shell SCF:
 Using DIIS extrapolation, IDIIS=  1040.
 NGot=  2147483648 LenX=  2147062498 LenY=  2147057296
 Requested convergence on RMS density matrix=1.00D-08 within 128 cycles.
 Requested convergence on MAX density matrix=1.00D-06.
 Requested convergence on             energy=1.00D-06.
 No special actions if energy rises.

 Cycle   1  Pass 1  IDiag  1:
 E= -2752.05222307624    
 DIIS: error= 1.16D-10 at cycle   1 NSaved=   1.
 NSaved= 1 IEnMin= 1 EnMin= -2752.05222307624     IErMin= 1 ErrMin= 1.16D-10
 ErrMax= 1.16D-10  0.00D+00 EMaxC= 1.00D-01 BMatC= 4.58D-19 BMatP= 4.58D-19
 IDIUse=1 WtCom= 1.00D+00 WtEn= 0.00D+00
 Coeff-Com:  0.100D+01
 Coeff:      0.100D+01
 Gap=     0.629 Goal=   None    Shift=    0.000
 Skip diagonalization as Alpha Fock matrix is already diagonal.
 RMSDP=0.00D+00 MaxDP=0.00D+00              OVMax= 0.00D+00

 SCF Done:  E(RHF) =  -2752.05222308     A.U. after    1 cycles
            NFock=  1  Conv=0.00D+00     -V/T= 2.0000
 KE= 2.752048106942D+03 PE=-6.582565276261D+03 EE= 1.078464946243D+03
 Leave Link  502 at Mon Mar 30 07:54:11 2020, MaxMem=  2147483648 cpu:               9.9 elap:               0.6
 (Enter /usr/local/g16/g16/l801.exe)
 Windowed orbitals will be sorted by symmetry type.
 ExpMin= 4.00D-02 ExpMax= 1.17D+07 ExpMxC= 1.33D+04 IAcc=3 IRadAn=         5 AccDes= 0.00D+00
 HarFok:  IExCor=  205 AccDes= 0.00D+00 IRadAn=         5 IDoV=-2 UseB2=F ITyADJ=14
 ICtDFT= 12500011 ScaDFX=  1.000000  1.000000  1.000000  1.000000
 Largest valence mixing into a core orbital is  9.79D-05
 Largest core mixing into a valence orbital is  3.83D-05
 Range of M.O.s used for correlation:    10    59
 NBasis=    59 NAE=    18 NBE=    18 NFC=     9 NFV=     0
 NROrb=     50 NOA=     9 NOB=     9 NVA=    41 NVB=    41
 Leave Link  801 at Mon Mar 30 07:54:11 2020, MaxMem=  2147483648 cpu:               0.4 elap:               0.0
 (Enter /usr/local/g16/g16/l804.exe)
 Closed-shell transformation, MDV=  2147483648 ITran=4 ISComp=2.
 Semi-Direct transformation.
 ModeAB=           2 MOrb=             9 LenV=    2147139009
 LASXX=       121787 LTotXX=      121787 LenRXX=      121787
 LTotAB=      130285 MaxLAS=     1086750 LenRXY=     1086750
 NonZer=     1162350 LenScr=     2357760 LnRSAI=           0
 LnScr1=           0 LExtra=           0 Total=      3566297
 MaxDsk=          -1 SrtSym=           F ITran=            4
 DoSDTr:  NPSUse= 16
 JobTyp=0 Pass  1:  I=   1 to   9.
 (rs|ai) integrals will be sorted in core.
 Complete sort for first half transformation.
 First half transformation complete.
 Complete sort for second half transformation.
 Second half transformation complete.
 Spin components of T(2) and E(2):
     alpha-alpha T2 =       0.9484485170D-02 E2=     -0.3552398033D-01
     alpha-beta  T2 =       0.4799866948D-01 E2=     -0.1708433112D+00
     beta-beta   T2 =       0.9484485170D-02 E2=     -0.3552398033D-01
 ANorm=    0.1032941257D+01
 E2 =    -0.2418912719D+00 EUMP2 =    -0.27522941143481D+04
 Leave Link  804 at Mon Mar 30 07:54:11 2020, MaxMem=  2147483648 cpu:               5.3 elap:               0.3
 (Enter /usr/local/g16/g16/l913.exe)
 CIDS:  MDV=  2147483648.
 Frozen-core window:  NFC=   9 NFV=   0.
 IFCWin=0 IBDFC=1 NFBD=     0     0 NFCmp=     0     0 NFFFC=     0     0
 Using DD3R+UMP44R for 1st iteration.
 Using DD4RQ for 2nd and later iterations.
 Keep R2 and R3 ints in memory in symmetry-blocked form, NReq=14301252.
 FoFCou: FMM=F IPFlag=           0 FMFlag=           0 FMFlg1=           0
         NFxFlg=           0 DoJE=F BraDBF=F KetDBF=F FulRan=T
         wScrn=  0.000000 ICntrl=       600 IOpCl=  0 I1Cent=           0 NGrid=           0
         NMat0=    1 NMatS0=   1770 NMatT0=    0 NMatD0=    1 NMtDS0=    0 NMtDT0=    0
 Petite list used in FoFCou.
 CIDS: In Core Option IDoMem=           1.
 MP4(SDTQ)
 =========
 Produce multiple copies of IABC intergrals
 DD1Dir will call FoFMem   1 times, MxPair=        90
 NAB=    45 NAA=     0 NBB=     0.
 MP4(D)= -0.36913093D-02
 MP4(S)= -0.10734540D-02
 MP4(R+Q)=  0.42077927D-02
 IPart=  8 IA=    4   14.27% done.
 IPart=  5 IA=    6   23.17% done.
 IPart=  4 IA=    8   31.59% done.
 IPart= 14 IA=   11   43.29% done.
 IPart= 15 IA=   13   50.49% done.
 IPart=  6 IA=   16   60.37% done.
 IPart=  3 IA=   20   71.83% done.
 IPart= 16 IA=   24   81.34% done.
 IPart=  8 IA=   29   90.49% done.
 Time for triples=        5.12 seconds.
 MP4(T)=   -0.76986616D-02
 E3=       -0.99406389D-02        EUMP3=      -0.27523040550D+04
 E4(DQ)=    0.51648341D-03        UMP4(DQ)=   -0.27523035385D+04
 E4(SDQ)=  -0.55697064D-03        UMP4(SDQ)=  -0.27523046120D+04
 E4(SDTQ)= -0.82556322D-02        UMP4(SDTQ)= -0.27523123106D+04
 VARIATIONAL ENERGIES WITH THE FIRST-ORDER WAVEFUNCTION:
 E(VAR1)=  -0.27522882489D+04     E(CISD,4)=  -0.27522926209D+04
 Largest amplitude= 2.43D-02
 Discarding MO integrals.
 Leave Link  913 at Mon Mar 30 07:54:12 2020, MaxMem=  2147483648 cpu:              14.8 elap:               0.9
 (Enter /usr/local/g16/g16/l122.exe)
 CPIOFr:  IOpCl= 0 IRwI=-1 IRwCP=  731 ICalc=  4 LCPTot=       59414 Len1MO=      159453 IndFrg=      856679
 Restoring MOs from calculation   1 to rwf.
 CPIOFr:  IOpCl= 0 IRwI=-2 IRwCP=  731 ICalc=  0 LCPTot=       59414 Len1MO=      159453 IndFrg=      218867
 Counterpoise corrected energy =   -2903.677529409925
                   BSSE energy =       0.000278910549
              sum of fragments =   -2903.677128518305
           complexation energy =      -0.43 kcal/mole (raw)
           complexation energy =      -0.25 kcal/mole (corrected)
 Leave Link  122 at Mon Mar 30 07:54:12 2020, MaxMem=  2147483648 cpu:               0.1 elap:               0.0
 (Enter /usr/local/g16/g16/l108.exe)
 Scan completed.
 
 Summary of the potential surface scan, energies are +2752 a.u.:
   N      R1          SCF          MP2          MP3         MP4DQ       MP4SDQ       MP4SDTQ  
 ----  ---------  -----------  -----------  -----------  -----------  -----------  -----------
    1     3.0000     -0.05222     -0.29411     -0.30405     -0.30354     -0.30461     -0.31231
    2     3.1000     -0.05222     -0.29411     -0.30405     -0.30354     -0.30461     -0.31231
    3     3.2000     -0.05222     -0.29411     -0.30405     -0.30354     -0.30461     -0.31231
    4     3.3000     -0.05222     -0.29411     -0.30405     -0.30354     -0.30461     -0.31231
    5     3.4000     -0.05222     -0.29411     -0.30405     -0.30354     -0.30461     -0.31231
    6     3.5000     -0.05222     -0.29411     -0.30405     -0.30354     -0.30461     -0.31231
    7     3.6000     -0.05222     -0.29411     -0.30405     -0.30354     -0.30461     -0.31231
    8     3.7000     -0.05222     -0.29411     -0.30405     -0.30354     -0.30461     -0.31231
    9     3.8000     -0.05222     -0.29411     -0.30405     -0.30354     -0.30461     -0.31231
   10     3.9000     -0.05222     -0.29411     -0.30405     -0.30354     -0.30461     -0.31231
   11     4.0000     -0.05222     -0.29411     -0.30405     -0.30354     -0.30461     -0.31231
   12     4.1000     -0.05222     -0.29411     -0.30405     -0.30354     -0.30461     -0.31231
   13     4.2000     -0.05222     -0.29411     -0.30405     -0.30354     -0.30461     -0.31231
   14     4.3000     -0.05222     -0.29411     -0.30405     -0.30354     -0.30461     -0.31231
   15     4.4000     -0.05222     -0.29411     -0.30405     -0.30354     -0.30461     -0.31231
   16     4.5000     -0.05222     -0.29411     -0.30405     -0.30354     -0.30461     -0.31231
   17     4.6000     -0.05222     -0.29411     -0.30405     -0.30354     -0.30461     -0.31231
   18     4.7000     -0.05222     -0.29411     -0.30405     -0.30354     -0.30461     -0.31231
   19     4.8000     -0.05222     -0.29411     -0.30405     -0.30354     -0.30461     -0.31231
   20     4.9000     -0.05222     -0.29411     -0.30405     -0.30354     -0.30461     -0.31231
   21     5.0000     -0.05222     -0.29411     -0.30405     -0.30354     -0.30461     -0.31231
 ----  ---------  -----------  -----------  -----------  -----------  -----------  -----------
  
 Leave Link  108 at Mon Mar 30 07:54:12 2020, MaxMem=  2147483648 cpu:               0.1 elap:               0.0
 (Enter /usr/local/g16/g16/l9999.exe)
 1\1\GINC-ARTHUR-MS-7B09\Scan\RMP4SDTQ-FC\Aug-CC-pVTZ\H2Kr1O2\MATHEUS\3
 0-Mar-2020\1\\#p mp4/aug-cc-PVTz int=ultrafine counterpoise=2 Scan\\PT
 CC\\0,1\O,0,0.,0.,0.725\O,0,0.,0.,-0.725\H,0,0.,0.9187205947,1.0235104
 166\H,0,0.,0.9187205947,-1.0235104166\Kr,0,0.,R1,0.\\R1=3.,s,20,0.1\\V
 ersion=ES64L-G16RevA.03\State=1-A1\HF=-2752.0522231,-2752.0522231,-275
 2.0522231,-2752.0522231,-2752.0522231,-2752.0522231,-2752.0522231,-275
 2.0522231,-2752.0522231,-2752.0522231,-2752.0522231,-2752.0522231,-275
 2.0522231,-2752.0522231,-2752.0522231,-2752.0522231,-2752.0522231,-275
 2.0522231,-2752.0522231,-2752.0522231,-2752.0522231\MP2=-2752.2941143,
 -2752.2941143,-2752.2941143,-2752.2941143,-2752.2941143,-2752.2941143,
 -2752.2941143,-2752.2941143,-2752.2941143,-2752.2941143,-2752.2941143,
 -2752.2941143,-2752.2941143,-2752.2941143,-2752.2941143,-2752.2941143,
 -2752.2941143,-2752.2941143,-2752.2941143,-2752.2941143,-2752.2941143\
 MP3=-2752.304055,-2752.304055,-2752.304055,-2752.304055,-2752.304055,-
 2752.304055,-2752.304055,-2752.304055,-2752.304055,-2752.304055,-2752.
 304055,-2752.304055,-2752.304055,-2752.304055,-2752.304055,-2752.30405
 5,-2752.304055,-2752.304055,-2752.304055,-2752.304055,-2752.304055\MP4
 D=-2752.3077463,-2752.3077463,-2752.3077463,-2752.3077463,-2752.307746
 3,-2752.3077463,-2752.3077463,-2752.3077463,-2752.3077463,-2752.307746
 3,-2752.3077463,-2752.3077463,-2752.3077463,-2752.3077463,-2752.307746
 3,-2752.3077463,-2752.3077463,-2752.3077463,-2752.3077463,-2752.307746
 3,-2752.3077463\MP4DQ=-2752.3035385,-2752.3035385,-2752.3035385,-2752.
 3035385,-2752.3035385,-2752.3035385,-2752.3035385,-2752.3035385,-2752.
 3035385,-2752.3035385,-2752.3035385,-2752.3035385,-2752.3035385,-2752.
 3035385,-2752.3035385,-2752.3035385,-2752.3035385,-2752.3035385,-2752.
 3035385,-2752.3035385,-2752.3035385\MP4SDQ=-2752.304612,-2752.304612,-
 2752.304612,-2752.304612,-2752.304612,-2752.304612,-2752.304612,-2752.
 304612,-2752.304612,-2752.304612,-2752.304612,-2752.304612,-2752.30461
 2,-2752.304612,-2752.304612,-2752.304612,-2752.304612,-2752.304612,-27
 52.304612,-2752.304612,-2752.304612\MP4SDTQ=-2752.3123106,-2752.312310
 6,-2752.3123106,-2752.3123106,-2752.3123106,-2752.3123106,-2752.312310
 6,-2752.3123106,-2752.3123106,-2752.3123106,-2752.3123106,-2752.312310
 6,-2752.3123106,-2752.3123106,-2752.3123106,-2752.3123106,-2752.312310
 6,-2752.3123106,-2752.3123106,-2752.3123106,-2752.3123106\RMSD=9.887e-
 10,1.149e-10,6.010e-32,5.892e-32,2.581e-32,1.091e-32,0.000e+00,0.000e+
 00,0.000e+00,0.000e+00,9.540e-32,7.037e-32,2.561e-31,1.097e-31,0.000e+
 00,0.000e+00,0.000e+00,0.000e+00,0.000e+00,0.000e+00,0.000e+00\PG=C02V
  [C2(Kr1),SGV(H2O2)]\\@


 WHEN YOU'VE SEEN ONE NUCLEAR WAR YOU'VE SEEN THEM ALL.
 Job cpu time:       0 days 12 hours  2 minutes 46.8 seconds.
 Elapsed time:       0 days  0 hours 45 minutes 18.7 seconds.
 File lengths (MBytes):  RWF=   1750 Int=      0 D2E=      0 Chk=     12 Scr=      1
 Normal termination of Gaussian 16 at Mon Mar 30 07:54:12 2020.
