 Entering Gaussian System, Link 0=g16
 Input=Inputs/H2O2-Kr_14.com
 Output=Logs/H2O2-Kr_14.log
 Initial command:
 /usr/local/g16/g16/l1.exe "/mnt/driveB/scratch/matheus/Gau-4821.inp" -scrdir="/mnt/driveB/scratch/matheus/"
 Entering Link 1 = /usr/local/g16/g16/l1.exe PID=      4823.
  
 Copyright (c) 1988,1990,1992,1993,1995,1998,2003,2009,2016,
            Gaussian, Inc.  All Rights Reserved.
  
 This is part of the Gaussian(R) 16 program.  It is based on
 the Gaussian(R) 09 system (copyright 2009, Gaussian, Inc.),
 the Gaussian(R) 03 system (copyright 2003, Gaussian, Inc.),
 the Gaussian(R) 98 system (copyright 1998, Gaussian, Inc.),
 the Gaussian(R) 94 system (copyright 1995, Gaussian, Inc.),
 the Gaussian 92(TM) system (copyright 1992, Gaussian, Inc.),
 the Gaussian 90(TM) system (copyright 1990, Gaussian, Inc.),
 the Gaussian 88(TM) system (copyright 1988, Gaussian, Inc.),
 the Gaussian 86(TM) system (copyright 1986, Carnegie Mellon
 University), and the Gaussian 82(TM) system (copyright 1983,
 Carnegie Mellon University). Gaussian is a federally registered
 trademark of Gaussian, Inc.
  
 This software contains proprietary and confidential information,
 including trade secrets, belonging to Gaussian, Inc.
  
 This software is provided under written license and may be
 used, copied, transmitted, or stored only in accord with that
 written license.
  
 The following legend is applicable only to US Government
 contracts under FAR:
  
                    RESTRICTED RIGHTS LEGEND
  
 Use, reproduction and disclosure by the US Government is
 subject to restrictions as set forth in subparagraphs (a)
 and (c) of the Commercial Computer Software - Restricted
 Rights clause in FAR 52.227-19.
  
 Gaussian, Inc.
 340 Quinnipiac St., Bldg. 40, Wallingford CT 06492
  
  
 ---------------------------------------------------------------
 Warning -- This program may not be used in any manner that
 competes with the business of Gaussian, Inc. or will provide
 assistance to any competitor of Gaussian, Inc.  The licensee
 of this program is prohibited from giving any competitor of
 Gaussian, Inc. access to this program.  By using this program,
 the user acknowledges that Gaussian, Inc. is engaged in the
 business of creating and licensing software in the field of
 computational chemistry and represents and warrants to the
 licensee that it is not a competitor of Gaussian, Inc. and that
 it will not use this program in any manner prohibited above.
 ---------------------------------------------------------------
  

 Cite this work as:
 Gaussian 16, Revision A.03,
 M. J. Frisch, G. W. Trucks, H. B. Schlegel, G. E. Scuseria, 
 M. A. Robb, J. R. Cheeseman, G. Scalmani, V. Barone, 
 G. A. Petersson, H. Nakatsuji, X. Li, M. Caricato, A. V. Marenich, 
 J. Bloino, B. G. Janesko, R. Gomperts, B. Mennucci, H. P. Hratchian, 
 J. V. Ortiz, A. F. Izmaylov, J. L. Sonnenberg, D. Williams-Young, 
 F. Ding, F. Lipparini, F. Egidi, J. Goings, B. Peng, A. Petrone, 
 T. Henderson, D. Ranasinghe, V. G. Zakrzewski, J. Gao, N. Rega, 
 G. Zheng, W. Liang, M. Hada, M. Ehara, K. Toyota, R. Fukuda, 
 J. Hasegawa, M. Ishida, T. Nakajima, Y. Honda, O. Kitao, H. Nakai, 
 T. Vreven, K. Throssell, J. A. Montgomery, Jr., J. E. Peralta, 
 F. Ogliaro, M. J. Bearpark, J. J. Heyd, E. N. Brothers, K. N. Kudin, 
 V. N. Staroverov, T. A. Keith, R. Kobayashi, J. Normand, 
 K. Raghavachari, A. P. Rendell, J. C. Burant, S. S. Iyengar, 
 J. Tomasi, M. Cossi, J. M. Millam, M. Klene, C. Adamo, R. Cammi, 
 J. W. Ochterski, R. L. Martin, K. Morokuma, O. Farkas, 
 J. B. Foresman, and D. J. Fox, Gaussian, Inc., Wallingford CT, 2016.
 
 ******************************************
 Gaussian 16:  ES64L-G16RevA.03 25-Dec-2016
                31-Mar-2020 
 ******************************************
 %mem=16GB
 %nproc=16
 Will use up to   16 processors via shared memory.
 ----------------------------------------------------
 #p mp4/aug-cc-PVTz int=ultrafine counterpoise=2 Scan
 ----------------------------------------------------
 1/38=1,60=1,62=2,172=1/1,8;
 2/12=2,17=6,18=5,29=3,40=1/2;
 1/38=1,53=2,62=2,63=1/22;
 3/5=16,6=1,7=10,11=9,25=1,30=1,75=-5/1,2,3;
 4//1;
 5/5=2,38=5/2;
 8/6=4,9=120000,10=1/1,4;
 9/5=5/13;
 6/7=2,8=2,9=2,10=2,18=1/1;
 1/53=2,62=2,63=1/22;
 3/5=7,6=11,7=10,11=9,25=1,30=1,75=-5,82=7/1,2,3;
 4//1;
 5/5=2,38=5/2;
 8/6=4,9=120000,10=1/1,4;
 9/5=5/13;
 6/7=2,8=2,9=2,10=2,18=1/1;
 1/53=2,62=2,63=1/22(-6);
 1/60=1,62=2/8(1);
 99/9=1/99;
 2/29=3/2;
 1/53=3,62=2,63=1/22;
 3/5=7,6=11,7=10,11=9,25=1,30=1,75=-5,82=7/1,2,3;
 4/5=5,16=3,69=1/1;
 5/5=2,38=5/2;
 8/6=4,9=120000,10=1/1,4;
 9/5=5/13;
 1/53=3,62=2,63=1/22(-5);
 1/60=1,62=2/8(-8);
 99/9=1/99;
 Leave Link    1 at Tue Mar 31 18:25:53 2020, MaxMem=  2147483648 cpu:               0.3 elap:               0.0
 (Enter /usr/local/g16/g16/l101.exe)
 ----
 PTCC
 ----
 Symbolic Z-matrix:
 Charge =  0 Multiplicity = 1 in supermolecule
 Charge =  0 Multiplicity = 1 in fragment      1.
 Charge =  0 Multiplicity = 1 in fragment      2.
 O(Fragment=1)         0.        0.        0.725 
 O(Fragment=1)         0.        0.       -0.725 
 H(Fragment=1)         0.59054  -0.70378   1.02351 
 H(Fragment=1)         0.        0.91872  -1.02351 
 Kr(Fragment=2)        0.       R1        0. 
       Variables:
  R1                    3.     Scan 20    0.1    
 
 ITRead=  0  0  0  0  0
 MicOpt= -1 -1 -1 -1 -1
 NAtoms=      5 NQM=        5 NQMF=       0 NMMI=      0 NMMIF=      0
                NMic=       0 NMicF=      0.
                    Isotopes and Nuclear Properties:
 (Nuclear quadrupole moments (NQMom) in fm**2, nuclear magnetic moments (NMagM)
  in nuclear magnetons)

  Atom         1           2           3           4           5
 IAtWgt=          16          16           1           1          84
 AtmWgt=  15.9949146  15.9949146   1.0078250   1.0078250  83.9115064
 NucSpn=           0           0           1           1           0
 AtZEff=  -0.0000000  -0.0000000  -0.0000000  -0.0000000  -0.0000000
 NQMom=    0.0000000   0.0000000   0.0000000   0.0000000   0.0000000
 NMagM=    0.0000000   0.0000000   2.7928460   2.7928460   0.0000000
 AtZNuc=   8.0000000   8.0000000   1.0000000   1.0000000  36.0000000
 Leave Link  101 at Tue Mar 31 18:25:54 2020, MaxMem=  2147483648 cpu:               1.4 elap:               0.1
 (Enter /usr/local/g16/g16/l108.exe)
 Scan the potential surface.
 Variable   Value     No. Steps Step-Size
 -------- ----------- --------- ---------
     1       3.000000      20      0.1000
 A total of     21 points will be computed.
 Leave Link  108 at Tue Mar 31 18:25:54 2020, MaxMem=  2147483648 cpu:               0.0 elap:               0.0
 (Enter /usr/local/g16/g16/l202.exe)
 ---------------------------------------------------------------------------------------------------
                            Z-MATRIX (ANGSTROMS AND DEGREES)
   CD    Cent   Atom    N1       Length/X        N2       Alpha/Y        N3        Beta/Z          J
 ---------------------------------------------------------------------------------------------------
      1      1  O        0   0.000000          0.000000          0.725000
      2      2  O        0   0.000000          0.000000         -0.725000
      3      3  H        0   0.590542         -0.703781          1.023510
      4      4  H        0   0.000000          0.918721         -1.023510
      5      5  Kr       0   0.000000          3.000000          0.000000
 ---------------------------------------------------------------------------------------------------
                         Z-Matrix orientation:                         
 ---------------------------------------------------------------------
 Center     Atomic      Atomic             Coordinates (Angstroms)
 Number     Number       Type             X           Y           Z
 ---------------------------------------------------------------------
      1          8           0        0.000000    0.000000    0.725000
      2          8           0        0.000000    0.000000   -0.725000
      3          1           0        0.590542   -0.703781    1.023510
      4          1           0        0.000000    0.918721   -1.023510
      5         36           0        0.000000    3.000000    0.000000
 ---------------------------------------------------------------------
                    Distance matrix (angstroms):
                    1          2          3          4          5
     1  O    0.000000
     2  O    1.450000   0.000000
     3  H    0.966000   1.975180   0.000000
     4  H    1.975180   0.966000   2.677974   0.000000
     5  Kr   3.086361   3.086361   3.887712   2.319331   0.000000
 Stoichiometry    H2KrO2
 Framework group  C1[X(H2KrO2)]
 Deg. of freedom     9
 Full point group                 C1      NOp   1
 Largest Abelian subgroup         C1      NOp   1
 Largest concise Abelian subgroup C1      NOp   1
                         Standard orientation:                         
 ---------------------------------------------------------------------
 Center     Atomic      Atomic             Coordinates (Angstroms)
 Number     Number       Type             X           Y           Z
 ---------------------------------------------------------------------
      1          8           0        2.015651   -0.687348   -0.079909
      2          8           0        1.990960    0.760101    0.002433
      3          1           0        2.733117   -1.006163    0.482902
      4          1           0        1.067391    1.041693    0.032139
      5         36           0       -0.995928   -0.017154    0.002910
 ---------------------------------------------------------------------
 Rotational constants (GHZ):          26.2569858           2.3123407           2.1308521
 Leave Link  202 at Tue Mar 31 18:25:54 2020, MaxMem=  2147483648 cpu:               0.0 elap:               0.0
 (Enter /usr/local/g16/g16/l122.exe)
 Counterpoise: doing full-system calculation.
 Leave Link  122 at Tue Mar 31 18:25:54 2020, MaxMem=  2147483648 cpu:               0.0 elap:               0.0
 (Enter /usr/local/g16/g16/l301.exe)
 Standard basis: Aug-CC-pVTZ (5D, 7F)
 Ernie: Thresh=  0.10000D-02 Tol=  0.10000D-05 Strict=F.
 Ernie:  38 primitive shells out of 205 were deleted.
 There are   229 symmetry adapted cartesian basis functions of A   symmetry.
 There are   197 symmetry adapted basis functions of A   symmetry.
   197 basis functions,   415 primitive gaussians,   229 cartesian basis functions
    27 alpha electrons       27 beta electrons
       nuclear repulsion energy       148.4787788048 Hartrees.
 IExCor=    0 DFT=F Ex=HF Corr=None ExCW=0 ScaHFX=  1.000000
 ScaDFX=  1.000000  1.000000  1.000000  1.000000 ScalE2=  1.000000  1.000000
 IRadAn=      5 IRanWt=     -1 IRanGd=            0 ICorTp=0 IEmpDi=  4
 NAtoms=    5 NActive=    5 NUniq=    5 SFac= 1.00D+00 NAtFMM=   60 NAOKFM=F Big=F
 Integral buffers will be    131072 words long.
 Raffenetti 1 integral format.
 Two-electron integral symmetry is turned on.
 Leave Link  301 at Tue Mar 31 18:25:54 2020, MaxMem=  2147483648 cpu:               0.3 elap:               0.0
 (Enter /usr/local/g16/g16/l302.exe)
 NPDir=0 NMtPBC=     1 NCelOv=     1 NCel=       1 NClECP=     1 NCelD=      1
         NCelK=      1 NCelE2=     1 NClLst=     1 CellRange=     0.0.
 One-electron integrals computed using PRISM.
 One-electron integral symmetry used in STVInt
 NBasis=   197 RedAO= T EigKep=  2.06D-04  NBF=   197
 NBsUse=   197 1.00D-06 EigRej= -1.00D+00 NBFU=   197
 Leave Link  302 at Tue Mar 31 18:25:54 2020, MaxMem=  2147483648 cpu:               1.7 elap:               0.1
 (Enter /usr/local/g16/g16/l303.exe)
 DipDrv:  MaxL=1.
 Leave Link  303 at Tue Mar 31 18:25:54 2020, MaxMem=  2147483648 cpu:               0.4 elap:               0.0
 (Enter /usr/local/g16/g16/l401.exe)
 ExpMin= 2.53D-02 ExpMax= 1.17D+07 ExpMxC= 1.33D+04 IAcc=3 IRadAn=         5 AccDes= 0.00D+00
 Harris functional with IExCor=  205 and IRadAn=       5 diagonalized for initial guess.
 HarFok:  IExCor=  205 AccDes= 0.00D+00 IRadAn=         5 IDoV= 1 UseB2=F ITyADJ=14
 ICtDFT=  3500011 ScaDFX=  1.000000  1.000000  1.000000  1.000000
 FoFCou: FMM=F IPFlag=           0 FMFlag=      100000 FMFlg1=           0
         NFxFlg=           0 DoJE=T BraDBF=F KetDBF=T FulRan=T
         wScrn=  0.000000 ICntrl=       500 IOpCl=  0 I1Cent=   200000004 NGrid=           0
         NMat0=    1 NMatS0=      1 NMatT0=    0 NMatD0=    1 NMtDS0=    0 NMtDT0=    0
 Petite list used in FoFCou.
 Harris En= -2901.99201391334    
 JPrj=0 DoOrth=F DoCkMO=F.
 Leave Link  401 at Tue Mar 31 18:25:54 2020, MaxMem=  2147483648 cpu:               3.6 elap:               0.2
 (Enter /usr/local/g16/g16/l502.exe)
 Keep R1 ints in memory in canonical form, NReq=203133058.
 FoFCou: FMM=F IPFlag=           0 FMFlag=           0 FMFlg1=           0
         NFxFlg=           0 DoJE=F BraDBF=F KetDBF=F FulRan=T
         wScrn=  0.000000 ICntrl=       600 IOpCl=  0 I1Cent=           0 NGrid=           0
         NMat0=    1 NMatS0=  19503 NMatT0=    0 NMatD0=    1 NMtDS0=    0 NMtDT0=    0
 Symmetry not used in FoFCou.
 Two-electron integral symmetry not used.
 Closed shell SCF:
 Using DIIS extrapolation, IDIIS=  1040.
 NGot=  2147483648 LenX=  1957179903 LenY=  1957127021
 Requested convergence on RMS density matrix=1.00D-08 within 128 cycles.
 Requested convergence on MAX density matrix=1.00D-06.
 Requested convergence on             energy=1.00D-06.
 No special actions if energy rises.

 Cycle   1  Pass 1  IDiag  1:
 E= -2902.76797987166    
 DIIS: error= 3.33D-02 at cycle   1 NSaved=   1.
 NSaved= 1 IEnMin= 1 EnMin= -2902.76797987166     IErMin= 1 ErrMin= 3.33D-02
 ErrMax= 3.33D-02  0.00D+00 EMaxC= 1.00D-01 BMatC= 6.56D-01 BMatP= 6.56D-01
 IDIUse=3 WtCom= 6.67D-01 WtEn= 3.33D-01
 Coeff-Com:  0.100D+01
 Coeff-En:   0.100D+01
 Coeff:      0.100D+01
 Gap=     0.688 Goal=   None    Shift=    0.000
 GapD=    0.688 DampG=2.000 DampE=0.500 DampFc=1.0000 IDamp=-1.
 RMSDP=2.00D-03 MaxDP=1.30D-01              OVMax= 5.46D-02

 Cycle   2  Pass 1  IDiag  1:
 E= -2902.86419923673     Delta-E=       -0.096219365070 Rises=F Damp=F
 DIIS: error= 7.42D-03 at cycle   2 NSaved=   2.
 NSaved= 2 IEnMin= 2 EnMin= -2902.86419923673     IErMin= 2 ErrMin= 7.42D-03
 ErrMax= 7.42D-03  0.00D+00 EMaxC= 1.00D-01 BMatC= 3.52D-02 BMatP= 6.56D-01
 IDIUse=3 WtCom= 9.26D-01 WtEn= 7.42D-02
 Coeff-Com:  0.137D+00 0.863D+00
 Coeff-En:   0.000D+00 0.100D+01
 Coeff:      0.126D+00 0.874D+00
 Gap=     0.524 Goal=   None    Shift=    0.000
 RMSDP=7.37D-04 MaxDP=3.64D-02 DE=-9.62D-02 OVMax= 2.58D-02

 Cycle   3  Pass 1  IDiag  1:
 E= -2902.87705354556     Delta-E=       -0.012854308824 Rises=F Damp=F
 DIIS: error= 2.46D-03 at cycle   3 NSaved=   3.
 NSaved= 3 IEnMin= 3 EnMin= -2902.87705354556     IErMin= 3 ErrMin= 2.46D-03
 ErrMax= 2.46D-03  0.00D+00 EMaxC= 1.00D-01 BMatC= 2.59D-03 BMatP= 3.52D-02
 IDIUse=3 WtCom= 9.75D-01 WtEn= 2.46D-02
 Coeff-Com: -0.658D-02 0.192D+00 0.815D+00
 Coeff-En:   0.000D+00 0.000D+00 0.100D+01
 Coeff:     -0.641D-02 0.187D+00 0.820D+00
 Gap=     0.498 Goal=   None    Shift=    0.000
 RMSDP=1.29D-04 MaxDP=4.90D-03 DE=-1.29D-02 OVMax= 7.77D-03

 Cycle   4  Pass 1  IDiag  1:
 E= -2902.87835343043     Delta-E=       -0.001299884874 Rises=F Damp=F
 DIIS: error= 3.75D-04 at cycle   4 NSaved=   4.
 NSaved= 4 IEnMin= 4 EnMin= -2902.87835343043     IErMin= 4 ErrMin= 3.75D-04
 ErrMax= 3.75D-04  0.00D+00 EMaxC= 1.00D-01 BMatC= 4.26D-05 BMatP= 2.59D-03
 IDIUse=3 WtCom= 9.96D-01 WtEn= 3.75D-03
 Coeff-Com: -0.392D-02 0.122D-01 0.136D+00 0.856D+00
 Coeff-En:   0.000D+00 0.000D+00 0.000D+00 0.100D+01
 Coeff:     -0.391D-02 0.122D-01 0.135D+00 0.857D+00
 Gap=     0.501 Goal=   None    Shift=    0.000
 RMSDP=2.08D-05 MaxDP=6.28D-04 DE=-1.30D-03 OVMax= 1.60D-03

 Cycle   5  Pass 1  IDiag  1:
 E= -2902.87838982726     Delta-E=       -0.000036396833 Rises=F Damp=F
 DIIS: error= 1.30D-04 at cycle   5 NSaved=   5.
 NSaved= 5 IEnMin= 5 EnMin= -2902.87838982726     IErMin= 5 ErrMin= 1.30D-04
 ErrMax= 1.30D-04  0.00D+00 EMaxC= 1.00D-01 BMatC= 3.29D-06 BMatP= 4.26D-05
 IDIUse=3 WtCom= 9.99D-01 WtEn= 1.30D-03
 Coeff-Com:  0.824D-03-0.160D-01-0.675D-01 0.736D-02 0.108D+01
 Coeff-En:   0.000D+00 0.000D+00 0.000D+00 0.000D+00 0.100D+01
 Coeff:      0.823D-03-0.159D-01-0.674D-01 0.735D-02 0.108D+01
 Gap=     0.501 Goal=   None    Shift=    0.000
 RMSDP=9.97D-06 MaxDP=3.06D-04 DE=-3.64D-05 OVMax= 7.81D-04

 Cycle   6  Pass 1  IDiag  1:
 E= -2902.87839479089     Delta-E=       -0.000004963622 Rises=F Damp=F
 DIIS: error= 2.91D-05 at cycle   6 NSaved=   6.
 NSaved= 6 IEnMin= 6 EnMin= -2902.87839479089     IErMin= 6 ErrMin= 2.91D-05
 ErrMax= 2.91D-05  0.00D+00 EMaxC= 1.00D-01 BMatC= 2.31D-07 BMatP= 3.29D-06
 IDIUse=1 WtCom= 1.00D+00 WtEn= 0.00D+00
 Coeff-Com:  0.178D-03-0.729D-04-0.661D-02-0.587D-01-0.115D-01 0.108D+01
 Coeff:      0.178D-03-0.729D-04-0.661D-02-0.587D-01-0.115D-01 0.108D+01
 Gap=     0.501 Goal=   None    Shift=    0.000
 RMSDP=3.08D-06 MaxDP=8.99D-05 DE=-4.96D-06 OVMax= 2.98D-04

 Cycle   7  Pass 1  IDiag  1:
 E= -2902.87839528036     Delta-E=       -0.000000489471 Rises=F Damp=F
 DIIS: error= 1.45D-05 at cycle   7 NSaved=   7.
 NSaved= 7 IEnMin= 7 EnMin= -2902.87839528036     IErMin= 7 ErrMin= 1.45D-05
 ErrMax= 1.45D-05  0.00D+00 EMaxC= 1.00D-01 BMatC= 3.42D-08 BMatP= 2.31D-07
 IDIUse=1 WtCom= 1.00D+00 WtEn= 0.00D+00
 Coeff-Com: -0.384D-04 0.133D-02 0.477D-02-0.880D-02-0.911D-01 0.113D+00
 Coeff-Com:  0.981D+00
 Coeff:     -0.384D-04 0.133D-02 0.477D-02-0.880D-02-0.911D-01 0.113D+00
 Coeff:      0.981D+00
 Gap=     0.501 Goal=   None    Shift=    0.000
 RMSDP=1.23D-06 MaxDP=4.22D-05 DE=-4.89D-07 OVMax= 1.46D-04

 Cycle   8  Pass 1  IDiag  1:
 E= -2902.87839535747     Delta-E=       -0.000000077118 Rises=F Damp=F
 DIIS: error= 5.82D-06 at cycle   8 NSaved=   8.
 NSaved= 8 IEnMin= 8 EnMin= -2902.87839535747     IErMin= 8 ErrMin= 5.82D-06
 ErrMax= 5.82D-06  0.00D+00 EMaxC= 1.00D-01 BMatC= 1.02D-08 BMatP= 3.42D-08
 IDIUse=1 WtCom= 1.00D+00 WtEn= 0.00D+00
 Coeff-Com: -0.346D-04 0.331D-03 0.227D-02 0.728D-02-0.228D-01-0.152D+00
 Coeff-Com:  0.293D+00 0.872D+00
 Coeff:     -0.346D-04 0.331D-03 0.227D-02 0.728D-02-0.228D-01-0.152D+00
 Coeff:      0.293D+00 0.872D+00
 Gap=     0.501 Goal=   None    Shift=    0.000
 RMSDP=6.50D-07 MaxDP=1.43D-05 DE=-7.71D-08 OVMax= 8.85D-05

 Cycle   9  Pass 1  IDiag  1:
 E= -2902.87839537953     Delta-E=       -0.000000022058 Rises=F Damp=F
 DIIS: error= 3.12D-06 at cycle   9 NSaved=   9.
 NSaved= 9 IEnMin= 9 EnMin= -2902.87839537953     IErMin= 9 ErrMin= 3.12D-06
 ErrMax= 3.12D-06  0.00D+00 EMaxC= 1.00D-01 BMatC= 1.73D-09 BMatP= 1.02D-08
 IDIUse=1 WtCom= 1.00D+00 WtEn= 0.00D+00
 Coeff-Com:  0.148D-04-0.345D-03-0.154D-02-0.608D-03 0.237D-01 0.319D-01
 Coeff-Com: -0.292D+00-0.336D+00 0.157D+01
 Coeff:      0.148D-04-0.345D-03-0.154D-02-0.608D-03 0.237D-01 0.319D-01
 Coeff:     -0.292D+00-0.336D+00 0.157D+01
 Gap=     0.501 Goal=   None    Shift=    0.000
 RMSDP=5.48D-07 MaxDP=1.31D-05 DE=-2.21D-08 OVMax= 8.72D-05

 Cycle  10  Pass 1  IDiag  1:
 E= -2902.87839538859     Delta-E=       -0.000000009055 Rises=F Damp=F
 DIIS: error= 1.17D-06 at cycle  10 NSaved=  10.
 NSaved=10 IEnMin=10 EnMin= -2902.87839538859     IErMin=10 ErrMin= 1.17D-06
 ErrMax= 1.17D-06  0.00D+00 EMaxC= 1.00D-01 BMatC= 2.52D-10 BMatP= 1.73D-09
 IDIUse=1 WtCom= 1.00D+00 WtEn= 0.00D+00
 Coeff-Com:  0.897D-06 0.104D-03 0.247D-03-0.143D-02-0.590D-02 0.152D-01
 Coeff-Com:  0.823D-01-0.118D-01-0.754D+00 0.168D+01
 Coeff:      0.897D-06 0.104D-03 0.247D-03-0.143D-02-0.590D-02 0.152D-01
 Coeff:      0.823D-01-0.118D-01-0.754D+00 0.168D+01
 Gap=     0.501 Goal=   None    Shift=    0.000
 RMSDP=2.74D-07 MaxDP=6.70D-06 DE=-9.05D-09 OVMax= 4.45D-05

 Cycle  11  Pass 1  IDiag  1:
 E= -2902.87839539003     Delta-E=       -0.000000001447 Rises=F Damp=F
 DIIS: error= 2.61D-07 at cycle  11 NSaved=  11.
 NSaved=11 IEnMin=11 EnMin= -2902.87839539003     IErMin=11 ErrMin= 2.61D-07
 ErrMax= 2.61D-07  0.00D+00 EMaxC= 1.00D-01 BMatC= 1.30D-11 BMatP= 2.52D-10
 IDIUse=1 WtCom= 1.00D+00 WtEn= 0.00D+00
 Coeff-Com: -0.178D-05-0.165D-04 0.373D-04 0.879D-03-0.285D-04-0.115D-01
 Coeff-Com: -0.114D-02 0.480D-01 0.115D+00-0.576D+00 0.142D+01
 Coeff:     -0.178D-05-0.165D-04 0.373D-04 0.879D-03-0.285D-04-0.115D-01
 Coeff:     -0.114D-02 0.480D-01 0.115D+00-0.576D+00 0.142D+01
 Gap=     0.501 Goal=   None    Shift=    0.000
 RMSDP=4.59D-08 MaxDP=1.03D-06 DE=-1.45D-09 OVMax= 6.62D-06

 Cycle  12  Pass 1  IDiag  1:
 E= -2902.87839539008     Delta-E=       -0.000000000046 Rises=F Damp=F
 DIIS: error= 5.86D-08 at cycle  12 NSaved=  12.
 NSaved=12 IEnMin=12 EnMin= -2902.87839539008     IErMin=12 ErrMin= 5.86D-08
 ErrMax= 5.86D-08  0.00D+00 EMaxC= 1.00D-01 BMatC= 6.55D-13 BMatP= 1.30D-11
 IDIUse=1 WtCom= 1.00D+00 WtEn= 0.00D+00
 Coeff-Com:  0.101D-06-0.593D-05-0.228D-04 0.519D-04 0.436D-03-0.636D-03
 Coeff-Com: -0.471D-02 0.737D-03 0.300D-01-0.511D-01-0.127D+00 0.115D+01
 Coeff:      0.101D-06-0.593D-05-0.228D-04 0.519D-04 0.436D-03-0.636D-03
 Coeff:     -0.471D-02 0.737D-03 0.300D-01-0.511D-01-0.127D+00 0.115D+01
 Gap=     0.501 Goal=   None    Shift=    0.000
 RMSDP=7.59D-09 MaxDP=1.54D-07 DE=-4.64D-11 OVMax= 8.78D-07

 SCF Done:  E(RHF) =  -2902.87839539     A.U. after   12 cycles
            NFock= 12  Conv=0.76D-08     -V/T= 2.0001
 KE= 2.902625867932D+03 PE=-7.237540706768D+03 EE= 1.283557664641D+03
 Leave Link  502 at Tue Mar 31 18:25:57 2020, MaxMem=  2147483648 cpu:              26.6 elap:               3.4
 (Enter /usr/local/g16/g16/l801.exe)
 Windowed orbitals will be sorted by symmetry type.
 ExpMin= 2.53D-02 ExpMax= 1.17D+07 ExpMxC= 1.33D+04 IAcc=3 IRadAn=         5 AccDes= 0.00D+00
 HarFok:  IExCor=  205 AccDes= 0.00D+00 IRadAn=         5 IDoV=-2 UseB2=F ITyADJ=14
 ICtDFT= 12500011 ScaDFX=  1.000000  1.000000  1.000000  1.000000
 DSYEVD-2 returned Info=          89 IAlg= 4 N=    59 NDim=    59 NE2=    36395833 trying  DSYEV.
 Largest valence mixing into a core orbital is  1.16D-04
 Largest core mixing into a valence orbital is  3.82D-05
 Range of M.O.s used for correlation:    12   197
 NBasis=   197 NAE=    27 NBE=    27 NFC=    11 NFV=     0
 NROrb=    186 NOA=    16 NOB=    16 NVA=   170 NVB=   170

 **** Warning!!: The largest alpha MO coefficient is  0.12679772D+02

 Leave Link  801 at Tue Mar 31 18:25:58 2020, MaxMem=  2147483648 cpu:               0.6 elap:               0.0
 (Enter /usr/local/g16/g16/l804.exe)
 Closed-shell transformation, MDV=  2147483648 ITran=4 ISComp=1.
 Unit  1 TFree=       1248993 TCopy=        808885.
 Semi-Direct transformation.
 ModeAB=           2 MOrb=            16 LenV=    2146362390
 LASXX=     48528660 LTotXX=    48528660 LenRXX=    48528660
 LTotAB=    49298776 MaxLAS=    78372960 LenRXY=    78372960
 NonZer=    97057320 LenScr=   146313216 LnRSAI=           0
 LnScr1=           0 LExtra=           0 Total=    273214836
 MaxDsk=          -1 SrtSym=           F ITran=            4
 DoSDTr:  NPSUse= 16
 JobTyp=0 Pass  1:  I=   1 to  16.
 (rs|ai) integrals will be sorted in core.
 Complete sort for first half transformation.
 First half transformation complete.
 Begin second half transformation for I=  10.
 Begin second half transformation for I=  10.
 Complete sort for second half transformation.
 Second half transformation complete.
 SymMOI:  orbitals are not symmetric.
 Spin components of T(2) and E(2):
     alpha-alpha T2 =       0.2594661486D-01 E2=     -0.9993347026D-01
     alpha-beta  T2 =       0.1418746892D+00 E2=     -0.5564941127D+00
     beta-beta   T2 =       0.2594661486D-01 E2=     -0.9993347026D-01
 ANorm=    0.1092596869D+01
 E2 =    -0.7563610532D+00 EUMP2 =    -0.29036347564433D+04
 Leave Link  804 at Tue Mar 31 18:26:09 2020, MaxMem=  2147483648 cpu:             179.6 elap:              11.2
 (Enter /usr/local/g16/g16/l913.exe)
 CIDS:  MDV=  2147483648.
 Frozen-core window:  NFC=  11 NFV=   0.
 IFCWin=0 IBDFC=1 NFBD=     0     0 NFCmp=     0     0 NFFFC=     0     0
 Using DD3R+UMP44R for 1st iteration.
 Using DD4RQ for 2nd and later iterations.
 Keep R2 and R3 ints in memory in canonical form, NReq=393334543.
 FoFCou: FMM=F IPFlag=           0 FMFlag=           0 FMFlg1=           0
         NFxFlg=           0 DoJE=F BraDBF=F KetDBF=F FulRan=T
         wScrn=  0.000000 ICntrl=       600 IOpCl=  0 I1Cent=           0 NGrid=           0
         NMat0=    1 NMatS0=  19503 NMatT0=    0 NMatD0=    1 NMtDS0=    0 NMtDT0=    0
 Symmetry not used in FoFCou.
 Two-electron integral symmetry not used.
 CIDS: In Core Option IDoMem=           1.
 MP4(SDTQ)
 =========
 Produce multiple copies of IABC intergrals
 DD1Dir will call FoFMem   1 times, MxPair=       272
 NAB=   136 NAA=     0 NBB=     0.
 MP4(D)= -0.14963254D-01
 MP4(S)= -0.64351360D-02
 MP4(R+Q)=  0.15377352D-01
 T4(AAA)= -0.10411258D-02
 T4(AAB)= -0.14160558D-01
 Time for triples=     1774.22 seconds.
 MP4(T)=   -0.30403368D-01
 E3=       -0.11279495D-01        EUMP3=      -0.29036460359D+04
 E4(DQ)=    0.41409762D-03        UMP4(DQ)=   -0.29036456218D+04
 E4(SDQ)=  -0.60210384D-02        UMP4(SDQ)=  -0.29036520570D+04
 E4(SDTQ)= -0.36424407D-01        UMP4(SDTQ)= -0.29036824603D+04
 VARIATIONAL ENERGIES WITH THE FIRST-ORDER WAVEFUNCTION:
 E(VAR1)=  -0.29035214354D+04     E(CISD,4)=  -0.29035208758D+04
 Largest amplitude= 2.19D-02
 Discarding MO integrals.
 Leave Link  913 at Tue Mar 31 18:28:08 2020, MaxMem=  2147483648 cpu:            1899.6 elap:             118.9
 (Enter /usr/local/g16/g16/l601.exe)
 Copying SCF densities to generalized density rwf, IOpCl= 0 IROHF=0.

 **********************************************************************

            Population analysis using the SCF density.

 **********************************************************************

 Orbital symmetries:
       Occupied  (A) (A) (A) (A) (A) (A) (A) (A) (A) (A) (A) (A)
                 (A) (A) (A) (A) (A) (A) (A) (A) (A) (A) (A) (A)
                 (A) (A) (A)
       Virtual   (A) (A) (A) (A) (A) (A) (A) (A) (A) (A) (A) (A)
                 (A) (A) (A) (A) (A) (A) (A) (A) (A) (A) (A) (A)
                 (A) (A) (A) (A) (A) (A) (A) (A) (A) (A) (A) (A)
                 (A) (A) (A) (A) (A) (A) (A) (A) (A) (A) (A) (A)
                 (A) (A) (A) (A) (A) (A) (A) (A) (A) (A) (A) (A)
                 (A) (A) (A) (A) (A) (A) (A) (A) (A) (A) (A) (A)
                 (A) (A) (A) (A) (A) (A) (A) (A) (A) (A) (A) (A)
                 (A) (A) (A) (A) (A) (A) (A) (A) (A) (A) (A) (A)
                 (A) (A) (A) (A) (A) (A) (A) (A) (A) (A) (A) (A)
                 (A) (A) (A) (A) (A) (A) (A) (A) (A) (A) (A) (A)
                 (A) (A) (A) (A) (A) (A) (A) (A) (A) (A) (A) (A)
                 (A) (A) (A) (A) (A) (A) (A) (A) (A) (A) (A) (A)
                 (A) (A) (A) (A) (A) (A) (A) (A) (A) (A) (A) (A)
                 (A) (A) (A) (A) (A) (A) (A) (A) (A) (A) (A) (A)
                 (A) (A)
 The electronic state is 1-A.
 Alpha  occ. eigenvalues -- -520.17344 -69.91099 -63.01758 -63.01755 -63.01752
 Alpha  occ. eigenvalues --  -20.62799 -20.62474 -10.85763  -8.33987  -8.33961
 Alpha  occ. eigenvalues --   -8.33945  -3.83367  -3.83362  -3.83340  -3.83313
 Alpha  occ. eigenvalues --   -3.83310  -1.46519  -1.21718  -1.16351  -0.71318
 Alpha  occ. eigenvalues --   -0.70900  -0.61571  -0.54217  -0.53267  -0.52823
 Alpha  occ. eigenvalues --   -0.51398  -0.46565
 Alpha virt. eigenvalues --    0.03556   0.04508   0.08906   0.10375   0.11498
 Alpha virt. eigenvalues --    0.12482   0.15224   0.15929   0.17305   0.18419
 Alpha virt. eigenvalues --    0.19392   0.21342   0.24093   0.25926   0.26663
 Alpha virt. eigenvalues --    0.28226   0.28715   0.31676   0.33959   0.36048
 Alpha virt. eigenvalues --    0.36594   0.37202   0.38438   0.41914   0.42837
 Alpha virt. eigenvalues --    0.45097   0.45631   0.51931   0.56885   0.59904
 Alpha virt. eigenvalues --    0.61316   0.64152   0.68234   0.71331   0.73183
 Alpha virt. eigenvalues --    0.76859   0.77447   0.78015   0.79024   0.81593
 Alpha virt. eigenvalues --    0.83580   0.84882   0.85780   0.87377   0.87757
 Alpha virt. eigenvalues --    0.90799   0.91531   0.93073   0.95336   0.98284
 Alpha virt. eigenvalues --    0.99768   1.00264   1.02708   1.03234   1.05286
 Alpha virt. eigenvalues --    1.08441   1.09778   1.13047   1.15125   1.17931
 Alpha virt. eigenvalues --    1.18376   1.20833   1.23459   1.26145   1.29259
 Alpha virt. eigenvalues --    1.34243   1.40243   1.43167   1.48115   1.50165
 Alpha virt. eigenvalues --    1.51966   1.59489   1.62328   1.65090   1.71071
 Alpha virt. eigenvalues --    1.73597   1.88296   1.97182   1.98323   2.07920
 Alpha virt. eigenvalues --    2.13774   2.16925   2.20529   2.28642   2.30622
 Alpha virt. eigenvalues --    2.35148   2.37521   2.39436   2.40232   2.40998
 Alpha virt. eigenvalues --    2.42885   2.47179   2.52460   2.53384   2.54046
 Alpha virt. eigenvalues --    2.55469   2.57754   2.62226   2.64788   2.68222
 Alpha virt. eigenvalues --    2.69411   2.69700   2.70675   2.73977   2.75610
 Alpha virt. eigenvalues --    2.78773   2.80056   2.83559   2.85456   2.86292
 Alpha virt. eigenvalues --    2.92979   2.95155   2.99462   3.03658   3.07872
 Alpha virt. eigenvalues --    3.11093   3.25257   3.29195   3.34355   3.82256
 Alpha virt. eigenvalues --    3.88707   4.15107   4.18448   4.22212   4.27013
 Alpha virt. eigenvalues --    4.35243   4.38690   4.41187   4.45914   4.49532
 Alpha virt. eigenvalues --    4.66507   4.72089   4.79491   4.83889   5.02710
 Alpha virt. eigenvalues --    5.16879   5.25341   5.27643   5.35607   5.37390
 Alpha virt. eigenvalues --    5.55138   5.80379   6.16649   6.38238   6.40695
 Alpha virt. eigenvalues --    6.45007   6.66335   6.69862   6.74435   6.86736
 Alpha virt. eigenvalues --    7.01441   7.13100   7.14051   7.20923   7.22650
 Alpha virt. eigenvalues --    7.22803   7.28760   7.30937   7.33316   7.41504
 Alpha virt. eigenvalues --    7.42072   7.60739   7.63726   7.77391   8.12870
 Alpha virt. eigenvalues --    8.20680   8.46912   8.53055  14.63079  15.28935
          Condensed to atoms (all electrons):
               1          2          3          4          5
     1  O    8.111380  -0.069530   0.255629  -0.014652  -0.026718
     2  O   -0.069530   8.134269  -0.002468   0.257630  -0.011087
     3  H    0.255629  -0.002468   0.475771   0.003974   0.002240
     4  H   -0.014652   0.257630   0.003974   0.468209  -0.004605
     5  Kr  -0.026718  -0.011087   0.002240  -0.004605  36.029542
 Mulliken charges:
               1
     1  O   -0.256110
     2  O   -0.308814
     3  H    0.264853
     4  H    0.289443
     5  Kr   0.010628
 Sum of Mulliken charges =  -0.00000
 Mulliken charges with hydrogens summed into heavy atoms:
               1
     1  O    0.008744
     2  O   -0.019371
     5  Kr   0.010628
         Mulliken charges condensed to fragments:
      1     -0.010628
      2      0.010628
 Electronic spatial extent (au):  <R**2>=            490.4557
 Charge=             -0.0000 electrons
 Dipole moment (field-independent basis, Debye):
    X=             -0.5083    Y=             -0.3262    Z=              1.0542  Tot=              1.2150
 Quadrupole moment (field-independent basis, Debye-Ang):
   XX=            -28.5149   YY=            -28.1609   ZZ=            -29.8558
   XY=             -3.7384   XZ=              3.1170   YZ=             -1.1523
 Traceless Quadrupole moment (field-independent basis, Debye-Ang):
   XX=              0.3290   YY=              0.6830   ZZ=             -1.0119
   XY=             -3.7384   XZ=              3.1170   YZ=             -1.1523
 Octapole moment (field-independent basis, Debye-Ang**2):
  XXX=             -8.2294  YYY=             -0.7745  ZZZ=              0.6137  XYY=             -3.9794
  XXY=            -14.9277  XXZ=              8.7882  XZZ=             -6.4296  YZZ=             -0.9120
  YYZ=              1.3884  XYZ=             -3.3445
 Hexadecapole moment (field-independent basis, Debye-Ang**3):
 XXXX=           -373.1237 YYYY=            -62.8882 ZZZZ=            -29.0357 XXXY=            -44.2782
 XXXZ=             25.4188 YYYX=             -5.7754 YYYZ=             -1.5116 ZZZX=              1.9084
 ZZZY=             -0.8560 XXYY=            -75.3116 XXZZ=            -74.4007 YYZZ=            -16.5752
 XXYZ=             -9.5434 YYXZ=              3.8072 ZZXY=             -2.0592
 N-N= 1.484787788048D+02 E-N=-7.237540709935D+03  KE= 2.902625867932D+03
 Leave Link  601 at Tue Mar 31 18:28:08 2020, MaxMem=  2147483648 cpu:               0.5 elap:               0.0
 (Enter /usr/local/g16/g16/l122.exe)
 CPIOFr:  IOpCl= 0 IRwI=-1 IRwCP=  731 ICalc= -1 LCPTot=       59414 Len1MO=      159453 IndFrg=       59414
 CPIOFr:  IOpCl= 0 IRwI=-1 IRwCP=  731 ICalc=  0 LCPTot=       59414 Len1MO=      159453 IndFrg=      218867
 Counterpoise: doing calculation for fragment   1 using the basis set of the full-system, NewBq=T
 Leave Link  122 at Tue Mar 31 18:28:08 2020, MaxMem=  2147483648 cpu:               0.0 elap:               0.0
 (Enter /usr/local/g16/g16/l301.exe)
 Basis read from rwf:  (5D, 7F)
 No pseudopotential information found on rwf file.
 There are   229 symmetry adapted cartesian basis functions of A   symmetry.
 There are   197 symmetry adapted basis functions of A   symmetry.
   197 basis functions,   415 primitive gaussians,   229 cartesian basis functions
     9 alpha electrons        9 beta electrons
       nuclear repulsion energy        36.6058452101 Hartrees.
 IExCor=    0 DFT=F Ex=HF Corr=None ExCW=0 ScaHFX=  1.000000
 ScaDFX=  1.000000  1.000000  1.000000  1.000000 ScalE2=  1.000000  1.000000
 IRadAn=      5 IRanWt=     -1 IRanGd=            0 ICorTp=0 IEmpDi=  4
 NAtoms=    5 NActive=    5 NUniq=    5 SFac= 1.00D+00 NAtFMM=   60 NAOKFM=F Big=F
 Integral buffers will be    131072 words long.
 Raffenetti 1 integral format.
 Two-electron integral symmetry is turned on.
 No density basis found on file   718.
 Leave Link  301 at Tue Mar 31 18:28:08 2020, MaxMem=  2147483648 cpu:               0.4 elap:               0.0
 (Enter /usr/local/g16/g16/l302.exe)
 NPDir=0 NMtPBC=     1 NCelOv=     1 NCel=       1 NClECP=     1 NCelD=      1
         NCelK=      1 NCelE2=     1 NClLst=     1 CellRange=     0.0.
 One-electron integrals computed using PRISM.
 One-electron integral symmetry used in STVInt
 NBasis=   197 RedAO= T EigKep=  2.06D-04  NBF=   197
 NBsUse=   197 1.00D-06 EigRej= -1.00D+00 NBFU=   197
 Leave Link  302 at Tue Mar 31 18:28:08 2020, MaxMem=  2147483648 cpu:               1.8 elap:               0.1
 (Enter /usr/local/g16/g16/l303.exe)
 DipDrv:  MaxL=1.
 Leave Link  303 at Tue Mar 31 18:28:08 2020, MaxMem=  2147483648 cpu:               0.4 elap:               0.0
 (Enter /usr/local/g16/g16/l401.exe)
 ExpMin= 2.53D-02 ExpMax= 1.17D+07 ExpMxC= 1.33D+04 IAcc=3 IRadAn=         5 AccDes= 0.00D+00
 Harris functional with IExCor=  205 and IRadAn=       5 diagonalized for initial guess.
 HarFok:  IExCor=  205 AccDes= 0.00D+00 IRadAn=         5 IDoV= 1 UseB2=F ITyADJ=14
 ICtDFT=  3500011 ScaDFX=  1.000000  1.000000  1.000000  1.000000
 FoFCou: FMM=F IPFlag=           0 FMFlag=      100000 FMFlg1=           0
         NFxFlg=           0 DoJE=T BraDBF=F KetDBF=T FulRan=T
         wScrn=  0.000000 ICntrl=       500 IOpCl=  0 I1Cent=   200000004 NGrid=           0
         NMat0=    1 NMatS0=      1 NMatT0=    0 NMatD0=    1 NMtDS0=    0 NMtDT0=    0
 Petite list used in FoFCou.
 Harris En= -150.934608740688    
 JPrj=0 DoOrth=F DoCkMO=F.
 Leave Link  401 at Tue Mar 31 18:28:09 2020, MaxMem=  2147483648 cpu:               3.2 elap:               0.2
 (Enter /usr/local/g16/g16/l502.exe)
 Keep R1 ints in memory in canonical form, NReq=203133058.
 FoFCou: FMM=F IPFlag=           0 FMFlag=           0 FMFlg1=           0
         NFxFlg=           0 DoJE=F BraDBF=F KetDBF=F FulRan=T
         wScrn=  0.000000 ICntrl=       600 IOpCl=  0 I1Cent=           0 NGrid=           0
         NMat0=    1 NMatS0=  19503 NMatT0=    0 NMatD0=    1 NMtDS0=    0 NMtDT0=    0
 Symmetry not used in FoFCou.
 Two-electron integral symmetry not used.
 Closed shell SCF:
 Using DIIS extrapolation, IDIIS=  1040.
 NGot=  2147483648 LenX=  1957179903 LenY=  1957127021
 Requested convergence on RMS density matrix=1.00D-08 within 128 cycles.
 Requested convergence on MAX density matrix=1.00D-06.
 Requested convergence on             energy=1.00D-06.
 No special actions if energy rises.

 Cycle   1  Pass 1  IDiag  1:
 E= -150.773125064331    
 DIIS: error= 1.81D-02 at cycle   1 NSaved=   1.
 NSaved= 1 IEnMin= 1 EnMin= -150.773125064331     IErMin= 1 ErrMin= 1.81D-02
 ErrMax= 1.81D-02  0.00D+00 EMaxC= 1.00D-01 BMatC= 2.27D-01 BMatP= 2.27D-01
 IDIUse=3 WtCom= 8.19D-01 WtEn= 1.81D-01
 Coeff-Com:  0.100D+01
 Coeff-En:   0.100D+01
 Coeff:      0.100D+01
 Gap=     0.691 Goal=   None    Shift=    0.000
 GapD=    0.691 DampG=2.000 DampE=0.500 DampFc=1.0000 IDamp=-1.
 RMSDP=9.35D-04 MaxDP=2.92D-02              OVMax= 6.52D-02

 Cycle   2  Pass 1  IDiag  1:
 E= -150.825329316162     Delta-E=       -0.052204251831 Rises=F Damp=F
 DIIS: error= 7.23D-03 at cycle   2 NSaved=   2.
 NSaved= 2 IEnMin= 2 EnMin= -150.825329316162     IErMin= 2 ErrMin= 7.23D-03
 ErrMax= 7.23D-03  0.00D+00 EMaxC= 1.00D-01 BMatC= 1.53D-02 BMatP= 2.27D-01
 IDIUse=3 WtCom= 9.28D-01 WtEn= 7.23D-02
 Coeff-Com:  0.101D+00 0.899D+00
 Coeff-En:   0.000D+00 0.100D+01
 Coeff:      0.934D-01 0.907D+00
 Gap=     0.526 Goal=   None    Shift=    0.000
 RMSDP=4.65D-04 MaxDP=2.47D-02 DE=-5.22D-02 OVMax= 2.76D-02

 Cycle   3  Pass 1  IDiag  1:
 E= -150.832912634256     Delta-E=       -0.007583318094 Rises=F Damp=F
 DIIS: error= 2.66D-03 at cycle   3 NSaved=   3.
 NSaved= 3 IEnMin= 3 EnMin= -150.832912634256     IErMin= 3 ErrMin= 2.66D-03
 ErrMax= 2.66D-03  0.00D+00 EMaxC= 1.00D-01 BMatC= 2.17D-03 BMatP= 1.53D-02
 IDIUse=3 WtCom= 9.73D-01 WtEn= 2.66D-02
 Coeff-Com: -0.206D-01 0.253D+00 0.768D+00
 Coeff-En:   0.000D+00 0.000D+00 0.100D+01
 Coeff:     -0.201D-01 0.246D+00 0.774D+00
 Gap=     0.497 Goal=   None    Shift=    0.000
 RMSDP=1.03D-04 MaxDP=3.58D-03 DE=-7.58D-03 OVMax= 8.86D-03

 Cycle   4  Pass 1  IDiag  1:
 E= -150.834258720923     Delta-E=       -0.001346086667 Rises=F Damp=F
 DIIS: error= 2.51D-04 at cycle   4 NSaved=   4.
 NSaved= 4 IEnMin= 4 EnMin= -150.834258720923     IErMin= 4 ErrMin= 2.51D-04
 ErrMax= 2.51D-04  0.00D+00 EMaxC= 1.00D-01 BMatC= 1.43D-05 BMatP= 2.17D-03
 IDIUse=3 WtCom= 9.97D-01 WtEn= 2.51D-03
 Coeff-Com: -0.168D-02-0.110D-01 0.779D-02 0.100D+01
 Coeff-En:   0.000D+00 0.000D+00 0.000D+00 0.100D+01
 Coeff:     -0.167D-02-0.110D-01 0.777D-02 0.100D+01
 Gap=     0.499 Goal=   None    Shift=    0.000
 RMSDP=1.51D-05 MaxDP=3.81D-04 DE=-1.35D-03 OVMax= 1.31D-03

 Cycle   5  Pass 1  IDiag  1:
 E= -150.834279246312     Delta-E=       -0.000020525389 Rises=F Damp=F
 DIIS: error= 8.02D-05 at cycle   5 NSaved=   5.
 NSaved= 5 IEnMin= 5 EnMin= -150.834279246312     IErMin= 5 ErrMin= 8.02D-05
 ErrMax= 8.02D-05  0.00D+00 EMaxC= 1.00D-01 BMatC= 1.43D-06 BMatP= 1.43D-05
 IDIUse=1 WtCom= 1.00D+00 WtEn= 0.00D+00
 Coeff-Com:  0.163D-02-0.164D-01-0.570D-01-0.170D+00 0.124D+01
 Coeff:      0.163D-02-0.164D-01-0.570D-01-0.170D+00 0.124D+01
 Gap=     0.499 Goal=   None    Shift=    0.000
 RMSDP=8.43D-06 MaxDP=2.21D-04 DE=-2.05D-05 OVMax= 7.64D-04

 Cycle   6  Pass 1  IDiag  1:
 E= -150.834282729993     Delta-E=       -0.000003483682 Rises=F Damp=F
 DIIS: error= 1.61D-05 at cycle   6 NSaved=   6.
 NSaved= 6 IEnMin= 6 EnMin= -150.834282729993     IErMin= 6 ErrMin= 1.61D-05
 ErrMax= 1.61D-05  0.00D+00 EMaxC= 1.00D-01 BMatC= 7.57D-08 BMatP= 1.43D-06
 IDIUse=1 WtCom= 1.00D+00 WtEn= 0.00D+00
 Coeff-Com: -0.434D-03 0.549D-02 0.195D-01 0.242D-01-0.451D+00 0.140D+01
 Coeff:     -0.434D-03 0.549D-02 0.195D-01 0.242D-01-0.451D+00 0.140D+01
 Gap=     0.499 Goal=   None    Shift=    0.000
 RMSDP=2.59D-06 MaxDP=6.72D-05 DE=-3.48D-06 OVMax= 3.11D-04

 Cycle   7  Pass 1  IDiag  1:
 E= -150.834282986750     Delta-E=       -0.000000256757 Rises=F Damp=F
 DIIS: error= 6.07D-06 at cycle   7 NSaved=   7.
 NSaved= 7 IEnMin= 7 EnMin= -150.834282986750     IErMin= 7 ErrMin= 6.07D-06
 ErrMax= 6.07D-06  0.00D+00 EMaxC= 1.00D-01 BMatC= 7.04D-09 BMatP= 7.57D-08
 IDIUse=1 WtCom= 1.00D+00 WtEn= 0.00D+00
 Coeff-Com:  0.891D-04-0.134D-02-0.532D-02-0.322D-02 0.126D+00-0.569D+00
 Coeff-Com:  0.145D+01
 Coeff:      0.891D-04-0.134D-02-0.532D-02-0.322D-02 0.126D+00-0.569D+00
 Coeff:      0.145D+01
 Gap=     0.499 Goal=   None    Shift=    0.000
 RMSDP=9.14D-07 MaxDP=2.17D-05 DE=-2.57D-07 OVMax= 1.41D-04

 Cycle   8  Pass 1  IDiag  1:
 E= -150.834283018916     Delta-E=       -0.000000032166 Rises=F Damp=F
 DIIS: error= 2.98D-06 at cycle   8 NSaved=   8.
 NSaved= 8 IEnMin= 8 EnMin= -150.834283018916     IErMin= 8 ErrMin= 2.98D-06
 ErrMax= 2.98D-06  0.00D+00 EMaxC= 1.00D-01 BMatC= 1.51D-09 BMatP= 7.04D-09
 IDIUse=1 WtCom= 1.00D+00 WtEn= 0.00D+00
 Coeff-Com:  0.678D-05 0.102D-03 0.869D-03-0.361D-02-0.137D-01 0.198D+00
 Coeff-Com: -0.114D+01 0.196D+01
 Coeff:      0.678D-05 0.102D-03 0.869D-03-0.361D-02-0.137D-01 0.198D+00
 Coeff:     -0.114D+01 0.196D+01
 Gap=     0.499 Goal=   None    Shift=    0.000
 RMSDP=6.47D-07 MaxDP=1.68D-05 DE=-3.22D-08 OVMax= 1.07D-04

 Cycle   9  Pass 1  IDiag  1:
 E= -150.834283027893     Delta-E=       -0.000000008977 Rises=F Damp=F
 DIIS: error= 6.76D-07 at cycle   9 NSaved=   9.
 NSaved= 9 IEnMin= 9 EnMin= -150.834283027893     IErMin= 9 ErrMin= 6.76D-07
 ErrMax= 6.76D-07  0.00D+00 EMaxC= 1.00D-01 BMatC= 1.03D-10 BMatP= 1.51D-09
 IDIUse=1 WtCom= 1.00D+00 WtEn= 0.00D+00
 Coeff-Com: -0.135D-04 0.141D-03 0.458D-03 0.227D-02-0.159D-01 0.235D-01
 Coeff-Com:  0.133D+00-0.508D+00 0.136D+01
 Coeff:     -0.135D-04 0.141D-03 0.458D-03 0.227D-02-0.159D-01 0.235D-01
 Coeff:      0.133D+00-0.508D+00 0.136D+01
 Gap=     0.499 Goal=   None    Shift=    0.000
 RMSDP=1.41D-07 MaxDP=3.34D-06 DE=-8.98D-09 OVMax= 2.23D-05

 Cycle  10  Pass 1  IDiag  1:
 E= -150.834283028328     Delta-E=       -0.000000000436 Rises=F Damp=F
 DIIS: error= 2.56D-07 at cycle  10 NSaved=  10.
 NSaved=10 IEnMin=10 EnMin= -150.834283028328     IErMin=10 ErrMin= 2.56D-07
 ErrMax= 2.56D-07  0.00D+00 EMaxC= 1.00D-01 BMatC= 1.64D-11 BMatP= 1.03D-10
 IDIUse=1 WtCom= 1.00D+00 WtEn= 0.00D+00
 Coeff-Com: -0.481D-05 0.302D-04 0.444D-04 0.127D-02-0.400D-02-0.118D-01
 Coeff-Com:  0.154D+00-0.346D+00 0.379D+00 0.828D+00
 Coeff:     -0.481D-05 0.302D-04 0.444D-04 0.127D-02-0.400D-02-0.118D-01
 Coeff:      0.154D+00-0.346D+00 0.379D+00 0.828D+00
 Gap=     0.499 Goal=   None    Shift=    0.000
 RMSDP=2.65D-08 MaxDP=7.01D-07 DE=-4.36D-10 OVMax= 3.70D-06

 Cycle  11  Pass 1  IDiag  1:
 E= -150.834283028353     Delta-E=       -0.000000000024 Rises=F Damp=F
 DIIS: error= 7.17D-08 at cycle  11 NSaved=  11.
 NSaved=11 IEnMin=11 EnMin= -150.834283028353     IErMin=11 ErrMin= 7.17D-08
 ErrMax= 7.17D-08  0.00D+00 EMaxC= 1.00D-01 BMatC= 1.69D-12 BMatP= 1.64D-11
 IDIUse=1 WtCom= 1.00D+00 WtEn= 0.00D+00
 Coeff-Com:  0.145D-05-0.192D-04-0.684D-04-0.764D-04 0.167D-02-0.461D-02
 Coeff-Com: -0.251D-02 0.366D-01-0.168D+00 0.161D+00 0.976D+00
 Coeff:      0.145D-05-0.192D-04-0.684D-04-0.764D-04 0.167D-02-0.461D-02
 Coeff:     -0.251D-02 0.366D-01-0.168D+00 0.161D+00 0.976D+00
 Gap=     0.499 Goal=   None    Shift=    0.000
 RMSDP=7.81D-09 MaxDP=1.46D-07 DE=-2.43D-11 OVMax= 9.04D-07

 SCF Done:  E(RHF) =  -150.834283028     A.U. after   11 cycles
            NFock= 11  Conv=0.78D-08     -V/T= 2.0021
 KE= 1.505164220536D+02 PE=-4.314492030700D+02 EE= 9.349265277803D+01
 Leave Link  502 at Tue Mar 31 18:28:12 2020, MaxMem=  2147483648 cpu:              26.4 elap:               3.3
 (Enter /usr/local/g16/g16/l801.exe)
 Windowed orbitals will be sorted by symmetry type.
 ExpMin= 2.53D-02 ExpMax= 1.17D+07 ExpMxC= 1.33D+04 IAcc=3 IRadAn=         5 AccDes= 0.00D+00
 HarFok:  IExCor=  205 AccDes= 0.00D+00 IRadAn=         5 IDoV=-2 UseB2=F ITyADJ=14
 ICtDFT= 12500011 ScaDFX=  1.000000  1.000000  1.000000  1.000000
 Largest valence mixing into a core orbital is  1.19D-04
 Largest core mixing into a valence orbital is  2.02D-05
 Range of M.O.s used for correlation:     3   197
 NBasis=   197 NAE=     9 NBE=     9 NFC=     2 NFV=     0
 NROrb=    195 NOA=     7 NOB=     7 NVA=   188 NVB=   188

 **** Warning!!: The largest alpha MO coefficient is  0.14310062D+02

 Leave Link  801 at Tue Mar 31 18:28:12 2020, MaxMem=  2147483648 cpu:               0.7 elap:               0.0
 (Enter /usr/local/g16/g16/l804.exe)
 Closed-shell transformation, MDV=  2147483648 ITran=4 ISComp=1.
 Semi-Direct transformation.
 ModeAB=           2 MOrb=             7 LenV=    2146282407
 LASXX=     25261509 LTotXX=    25261509 LenRXX=    25261509
 LTotAB=    25646992 MaxLAS=    35947275 LenRXY=    35947275
 NonZer=    50523018 LenScr=    76544000 LnRSAI=           0
 LnScr1=           0 LExtra=           0 Total=    137752784
 MaxDsk=          -1 SrtSym=           F ITran=            4
 DoSDTr:  NPSUse= 16
 JobTyp=0 Pass  1:  I=   1 to   7.
 (rs|ai) integrals will be sorted in core.
 Complete sort for first half transformation.
 First half transformation complete.
 Complete sort for second half transformation.
 Second half transformation complete.
 SymMOI:  orbitals are not symmetric.
 Spin components of T(2) and E(2):
     alpha-alpha T2 =       0.1593919607D-01 E2=     -0.6272819154D-01
     alpha-beta  T2 =       0.9300628302D-01 E2=     -0.3816265595D+00
     beta-beta   T2 =       0.1593919607D-01 E2=     -0.6272819154D-01
 ANorm=    0.1060605806D+01
 E2 =    -0.5070829426D+00 EUMP2 =    -0.15134136597092D+03
 Leave Link  804 at Tue Mar 31 18:28:20 2020, MaxMem=  2147483648 cpu:             119.9 elap:               7.5
 (Enter /usr/local/g16/g16/l913.exe)
 CIDS:  MDV=  2147483648.
 Frozen-core window:  NFC=   2 NFV=   0.
 IFCWin=0 IBDFC=1 NFBD=     0     0 NFCmp=     0     0 NFFFC=     0     0
 Using DD3R+UMP44R for 1st iteration.
 Using DD4RQ for 2nd and later iterations.
 Keep R2 and R3 ints in memory in canonical form, NReq=393331735.
 FoFCou: FMM=F IPFlag=           0 FMFlag=           0 FMFlg1=           0
         NFxFlg=           0 DoJE=F BraDBF=F KetDBF=F FulRan=T
         wScrn=  0.000000 ICntrl=       600 IOpCl=  0 I1Cent=           0 NGrid=           0
         NMat0=    1 NMatS0=  19503 NMatT0=    0 NMatD0=    1 NMtDS0=    0 NMtDT0=    0
 Symmetry not used in FoFCou.
 Two-electron integral symmetry not used.
 CIDS: In Core Option IDoMem=           1.
 MP4(SDTQ)
 =========
 Produce multiple copies of IABC intergrals
 DD1Dir will call FoFMem   1 times, MxPair=        56
 NAB=    28 NAA=     0 NBB=     0.
 MP4(D)= -0.11252768D-01
 MP4(S)= -0.51581739D-02
 MP4(R+Q)=  0.10720134D-01
 T4(AAA)= -0.65415220D-03
 T4(AAB)= -0.10214113D-01
 Time for triples=      374.65 seconds.
 MP4(T)=   -0.21736531D-01
 E3=       -0.22196787D-02        EUMP3=      -0.15134358565D+03
 E4(DQ)=   -0.53263372D-03        UMP4(DQ)=   -0.15134411828D+03
 E4(SDQ)=  -0.56908076D-02        UMP4(SDQ)=  -0.15134927646D+03
 E4(SDTQ)= -0.27427339D-01        UMP4(SDTQ)= -0.15137101299D+03
 VARIATIONAL ENERGIES WITH THE FIRST-ORDER WAVEFUNCTION:
 E(VAR1)=  -0.15128704288D+03     E(CISD,4)=  -0.15129666970D+03
 Largest amplitude= 1.82D-02
 Discarding MO integrals.
 Leave Link  913 at Tue Mar 31 18:28:47 2020, MaxMem=  2147483648 cpu:             432.4 elap:              27.0
 (Enter /usr/local/g16/g16/l601.exe)
 Copying SCF densities to generalized density rwf, IOpCl= 0 IROHF=0.

 **********************************************************************

            Population analysis using the SCF density.

 **********************************************************************

 Orbital symmetries:
       Occupied  (A) (A) (A) (A) (A) (A) (A) (A) (A)
       Virtual   (A) (A) (A) (A) (A) (A) (A) (A) (A) (A) (A) (A)
                 (A) (A) (A) (A) (A) (A) (A) (A) (A) (A) (A) (A)
                 (A) (A) (A) (A) (A) (A) (A) (A) (A) (A) (A) (A)
                 (A) (A) (A) (A) (A) (A) (A) (A) (A) (A) (A) (A)
                 (A) (A) (A) (A) (A) (A) (A) (A) (A) (A) (A) (A)
                 (A) (A) (A) (A) (A) (A) (A) (A) (A) (A) (A) (A)
                 (A) (A) (A) (A) (A) (A) (A) (A) (A) (A) (A) (A)
                 (A) (A) (A) (A) (A) (A) (A) (A) (A) (A) (A) (A)
                 (A) (A) (A) (A) (A) (A) (A) (A) (A) (A) (A) (A)
                 (A) (A) (A) (A) (A) (A) (A) (A) (A) (A) (A) (A)
                 (A) (A) (A) (A) (A) (A) (A) (A) (A) (A) (A) (A)
                 (A) (A) (A) (A) (A) (A) (A) (A) (A) (A) (A) (A)
                 (A) (A) (A) (A) (A) (A) (A) (A) (A) (A) (A) (A)
                 (A) (A) (A) (A) (A) (A) (A) (A) (A) (A) (A) (A)
                 (A) (A) (A) (A) (A) (A) (A) (A) (A) (A) (A) (A)
                 (A) (A) (A) (A) (A) (A) (A) (A)
 The electronic state is 1-A.
 Alpha  occ. eigenvalues --  -20.63047 -20.63019  -1.46699  -1.21876  -0.71205
 Alpha  occ. eigenvalues --   -0.70710  -0.61730  -0.52223  -0.46864
 Alpha virt. eigenvalues --    0.03053   0.03935   0.07450   0.08879   0.10323
 Alpha virt. eigenvalues --    0.11475   0.13258   0.15161   0.17380   0.17481
 Alpha virt. eigenvalues --    0.19625   0.21092   0.24120   0.26372   0.27095
 Alpha virt. eigenvalues --    0.28507   0.31487   0.32473   0.33268   0.34251
 Alpha virt. eigenvalues --    0.36057   0.38707   0.39151   0.41727   0.43141
 Alpha virt. eigenvalues --    0.43330   0.45229   0.49105   0.49784   0.51308
 Alpha virt. eigenvalues --    0.56974   0.59012   0.63917   0.68051   0.72987
 Alpha virt. eigenvalues --    0.75144   0.78560   0.79241   0.80316   0.81206
 Alpha virt. eigenvalues --    0.83805   0.86521   0.90973   0.94092   0.94955
 Alpha virt. eigenvalues --    0.95199   0.98181   0.99694   1.02196   1.03226
 Alpha virt. eigenvalues --    1.04471   1.07863   1.09564   1.12529   1.14619
 Alpha virt. eigenvalues --    1.15479   1.18467   1.19402   1.26477   1.28414
 Alpha virt. eigenvalues --    1.29249   1.32388   1.33322   1.34176   1.35188
 Alpha virt. eigenvalues --    1.36226   1.37288   1.38555   1.40655   1.44155
 Alpha virt. eigenvalues --    1.50393   1.53903   1.59465   1.59849   1.60432
 Alpha virt. eigenvalues --    1.64558   1.69663   1.74141   1.76041   1.88093
 Alpha virt. eigenvalues --    1.92177   1.98545   1.98638   2.09543   2.15332
 Alpha virt. eigenvalues --    2.20651   2.22845   2.29772   2.31973   2.36947
 Alpha virt. eigenvalues --    2.41662   2.43256   2.45416   2.49922   2.58699
 Alpha virt. eigenvalues --    2.61754   2.67517   2.69055   2.76308   2.80386
 Alpha virt. eigenvalues --    2.85119   2.88314   2.98103   3.05202   3.07486
 Alpha virt. eigenvalues --    3.24499   3.26084   3.26929   3.28250   3.33162
 Alpha virt. eigenvalues --    3.44740   3.58188   3.76971   3.79074   3.79366
 Alpha virt. eigenvalues --    3.82198   3.82674   3.83594   3.83744   3.89209
 Alpha virt. eigenvalues --    3.91168   3.92480   3.97504   4.00820   4.03820
 Alpha virt. eigenvalues --    4.16188   4.18705   4.19375   4.24823   4.30504
 Alpha virt. eigenvalues --    4.37367   4.42239   4.46290   4.49113   4.51858
 Alpha virt. eigenvalues --    4.66941   4.73577   4.81534   5.02592   5.17168
 Alpha virt. eigenvalues --    5.24866   5.27617   5.35507   5.37447   5.55259
 Alpha virt. eigenvalues --    5.80078   6.16295   6.38072   6.40541   6.44528
 Alpha virt. eigenvalues --    6.66213   6.69742   6.74226   6.86558   7.01248
 Alpha virt. eigenvalues --    7.12892   7.13786   7.20723   7.22315   7.22523
 Alpha virt. eigenvalues --    7.28308   7.30641   7.32985   7.41267   7.41714
 Alpha virt. eigenvalues --    7.60517   7.63285   7.77180   8.12627   8.20391
 Alpha virt. eigenvalues --    8.46680   8.52378  10.89446  14.62767  14.83570
 Alpha virt. eigenvalues --   14.88050  15.07035  15.31793  29.03297  29.03776
 Alpha virt. eigenvalues --   29.08226  29.13776  29.23340  49.10567 148.31640
 Alpha virt. eigenvalues --  148.38935 148.71530 752.49633
          Condensed to atoms (all electrons):
               1          2          3          4          5
     1  O    8.094360  -0.066448   0.252535  -0.015582  -0.000407
     2  O   -0.066448   8.115240  -0.003224   0.251767  -0.001144
     3  H    0.252535  -0.003224   0.477945   0.004821  -0.000009
     4  H   -0.015582   0.251767   0.004821   0.474039  -0.003803
     5  Kr  -0.000407  -0.001144  -0.000009  -0.003803   0.001400
 Mulliken charges:
               1
     1  O   -0.264459
     2  O   -0.296192
     3  H    0.267931
     4  H    0.288758
     5  Kr   0.003962
 Sum of Mulliken charges =  -0.00000
 Mulliken charges with hydrogens summed into heavy atoms:
               1
     1  O    0.003472
     2  O   -0.007435
     5  Kr   0.003962
         Mulliken charges condensed to fragments:
      1     -0.003962
      2      0.003962
 Electronic spatial extent (au):  <R**2>=            323.3561
 Charge=             -0.0000 electrons
 Dipole moment (field-independent basis, Debye):
    X=             -0.3784    Y=             -0.0679    Z=              1.0868  Tot=              1.1528
 Quadrupole moment (field-independent basis, Debye-Ang):
   XX=            -10.6363   YY=            -10.4805   ZZ=            -12.2226
   XY=             -3.9263   XZ=              3.0879   YZ=             -1.1514
 Traceless Quadrupole moment (field-independent basis, Debye-Ang):
   XX=              0.4768   YY=              0.6326   ZZ=             -1.1094
   XY=             -3.9263   XZ=              3.0879   YZ=             -1.1514
 Octapole moment (field-independent basis, Debye-Ang**2):
  XXX=            -60.0889  YYY=             -1.3445  ZZZ=              0.8258  XYY=            -21.4835
  XXY=            -14.9067  XXZ=              8.8824  XZZ=            -23.9964  YZZ=             -1.0975
  YYZ=              1.4563  XYZ=             -3.3439
 Hexadecapole moment (field-independent basis, Debye-Ang**3):
 XXXX=           -247.3581 YYYY=            -44.5604 ZZZZ=            -10.7816 XXXY=            -43.7044
 XXXZ=             25.2050 YYYX=             -5.2642 YYYZ=             -1.5124 ZZZX=              1.7013
 ZZZY=             -0.8573 XXYY=            -51.3893 XXZZ=            -50.6720 YYZZ=            -10.4733
 XXYZ=             -9.5497 YYXZ=              3.7322 ZZXY=             -1.8487
 N-N= 3.660584521011D+01 E-N=-4.314492011499D+02  KE= 1.505164220536D+02
 Leave Link  601 at Tue Mar 31 18:28:47 2020, MaxMem=  2147483648 cpu:               0.5 elap:               0.0
 (Enter /usr/local/g16/g16/l122.exe)
 CPIOFr:  IOpCl= 0 IRwI=-1 IRwCP=  731 ICalc=  1 LCPTot=       59414 Len1MO=      159453 IndFrg=      378320
 Counterpoise: doing calculation for fragment   2 using the basis set of the full-system, NewBq=T
 Leave Link  122 at Tue Mar 31 18:28:47 2020, MaxMem=  2147483648 cpu:               0.0 elap:               0.0
 (Enter /usr/local/g16/g16/l301.exe)
 Basis read from rwf:  (5D, 7F)
 No pseudopotential information found on rwf file.
 There are   229 symmetry adapted cartesian basis functions of A   symmetry.
 There are   197 symmetry adapted basis functions of A   symmetry.
   197 basis functions,   415 primitive gaussians,   229 cartesian basis functions
    18 alpha electrons       18 beta electrons
       nuclear repulsion energy         0.0000000000 Hartrees.
 IExCor=    0 DFT=F Ex=HF Corr=None ExCW=0 ScaHFX=  1.000000
 ScaDFX=  1.000000  1.000000  1.000000  1.000000 ScalE2=  1.000000  1.000000
 IRadAn=      5 IRanWt=     -1 IRanGd=            0 ICorTp=0 IEmpDi=  4
 NAtoms=    5 NActive=    5 NUniq=    5 SFac= 1.00D+00 NAtFMM=   60 NAOKFM=F Big=F
 Integral buffers will be    131072 words long.
 Raffenetti 1 integral format.
 Two-electron integral symmetry is turned on.
 No density basis found on file   718.
 Leave Link  301 at Tue Mar 31 18:28:47 2020, MaxMem=  2147483648 cpu:               0.4 elap:               0.0
 (Enter /usr/local/g16/g16/l302.exe)
 NPDir=0 NMtPBC=     1 NCelOv=     1 NCel=       1 NClECP=     1 NCelD=      1
         NCelK=      1 NCelE2=     1 NClLst=     1 CellRange=     0.0.
 One-electron integrals computed using PRISM.
 One-electron integral symmetry used in STVInt
 NBasis=   197 RedAO= T EigKep=  2.06D-04  NBF=   197
 NBsUse=   197 1.00D-06 EigRej= -1.00D+00 NBFU=   197
 Leave Link  302 at Tue Mar 31 18:28:47 2020, MaxMem=  2147483648 cpu:               1.8 elap:               0.1
 (Enter /usr/local/g16/g16/l303.exe)
 DipDrv:  MaxL=1.
 Leave Link  303 at Tue Mar 31 18:28:47 2020, MaxMem=  2147483648 cpu:               0.4 elap:               0.0
 (Enter /usr/local/g16/g16/l401.exe)
 ExpMin= 2.53D-02 ExpMax= 1.17D+07 ExpMxC= 1.33D+04 IAcc=3 IRadAn=         5 AccDes= 0.00D+00
 Harris functional with IExCor=  205 and IRadAn=       5 diagonalized for initial guess.
 HarFok:  IExCor=  205 AccDes= 0.00D+00 IRadAn=         5 IDoV= 1 UseB2=F ITyADJ=14
 ICtDFT=  3500011 ScaDFX=  1.000000  1.000000  1.000000  1.000000
 FoFCou: FMM=F IPFlag=           0 FMFlag=      100000 FMFlg1=           0
         NFxFlg=           0 DoJE=T BraDBF=F KetDBF=T FulRan=T
         wScrn=  0.000000 ICntrl=       500 IOpCl=  0 I1Cent=   200000004 NGrid=           0
         NMat0=    1 NMatS0=      1 NMatT0=    0 NMatD0=    1 NMtDS0=    0 NMtDT0=    0
 Petite list used in FoFCou.
 Harris En= -2751.06002592034    
 JPrj=0 DoOrth=F DoCkMO=F.
 Leave Link  401 at Tue Mar 31 18:28:47 2020, MaxMem=  2147483648 cpu:               3.0 elap:               0.2
 (Enter /usr/local/g16/g16/l502.exe)
 Keep R1 ints in memory in canonical form, NReq=203133058.
 FoFCou: FMM=F IPFlag=           0 FMFlag=           0 FMFlg1=           0
         NFxFlg=           0 DoJE=F BraDBF=F KetDBF=F FulRan=T
         wScrn=  0.000000 ICntrl=       600 IOpCl=  0 I1Cent=           0 NGrid=           0
         NMat0=    1 NMatS0=  19503 NMatT0=    0 NMatD0=    1 NMtDS0=    0 NMtDT0=    0
 Symmetry not used in FoFCou.
 Two-electron integral symmetry not used.
 Closed shell SCF:
 Using DIIS extrapolation, IDIIS=  1040.
 NGot=  2147483648 LenX=  1957179903 LenY=  1957127021
 Requested convergence on RMS density matrix=1.00D-08 within 128 cycles.
 Requested convergence on MAX density matrix=1.00D-06.
 Requested convergence on             energy=1.00D-06.
 No special actions if energy rises.

 Cycle   1  Pass 1  IDiag  1:
 E= -2752.00363705220    
 DIIS: error= 3.32D-02 at cycle   1 NSaved=   1.
 NSaved= 1 IEnMin= 1 EnMin= -2752.00363705220     IErMin= 1 ErrMin= 3.32D-02
 ErrMax= 3.32D-02  0.00D+00 EMaxC= 1.00D-01 BMatC= 4.28D-01 BMatP= 4.28D-01
 IDIUse=3 WtCom= 6.68D-01 WtEn= 3.32D-01
 Coeff-Com:  0.100D+01
 Coeff-En:   0.100D+01
 Coeff:      0.100D+01
 Gap=     0.630 Goal=   None    Shift=    0.000
 GapD=    0.630 DampG=2.000 DampE=0.500 DampFc=1.0000 IDamp=-1.
 RMSDP=1.74D-03 MaxDP=1.29D-01              OVMax= 2.38D-02

 Cycle   2  Pass 1  IDiag  1:
 E= -2752.04698467846     Delta-E=       -0.043347626261 Rises=F Damp=F
 DIIS: error= 7.08D-03 at cycle   2 NSaved=   2.
 NSaved= 2 IEnMin= 2 EnMin= -2752.04698467846     IErMin= 2 ErrMin= 7.08D-03
 ErrMax= 7.08D-03  0.00D+00 EMaxC= 1.00D-01 BMatC= 1.97D-02 BMatP= 4.28D-01
 IDIUse=3 WtCom= 9.29D-01 WtEn= 7.08D-02
 Coeff-Com:  0.152D+00 0.848D+00
 Coeff-En:   0.000D+00 0.100D+01
 Coeff:      0.141D+00 0.859D+00
 Gap=     0.543 Goal=   None    Shift=    0.000
 RMSDP=5.68D-04 MaxDP=3.48D-02 DE=-4.33D-02 OVMax= 1.31D-02

 Cycle   3  Pass 1  IDiag  1:
 E= -2752.05205473485     Delta-E=       -0.005070056397 Rises=F Damp=F
 DIIS: error= 1.44D-03 at cycle   3 NSaved=   3.
 NSaved= 3 IEnMin= 3 EnMin= -2752.05205473485     IErMin= 3 ErrMin= 1.44D-03
 ErrMax= 1.44D-03  0.00D+00 EMaxC= 1.00D-01 BMatC= 7.09D-04 BMatP= 1.97D-02
 IDIUse=3 WtCom= 9.86D-01 WtEn= 1.44D-02
 Coeff-Com: -0.128D-02 0.155D+00 0.846D+00
 Coeff-En:   0.000D+00 0.000D+00 0.100D+01
 Coeff:     -0.126D-02 0.153D+00 0.849D+00
 Gap=     0.554 Goal=   None    Shift=    0.000
 RMSDP=7.45D-05 MaxDP=4.36D-03 DE=-5.07D-03 OVMax= 2.88D-03

 Cycle   4  Pass 1  IDiag  1:
 E= -2752.05226540775     Delta-E=       -0.000210672898 Rises=F Damp=F
 DIIS: error= 3.18D-05 at cycle   4 NSaved=   4.
 NSaved= 4 IEnMin= 4 EnMin= -2752.05226540775     IErMin= 4 ErrMin= 3.18D-05
 ErrMax= 3.18D-05  0.00D+00 EMaxC= 1.00D-01 BMatC= 7.35D-07 BMatP= 7.09D-04
 IDIUse=1 WtCom= 1.00D+00 WtEn= 0.00D+00
 Coeff-Com: -0.365D-03-0.177D-01-0.591D-01 0.108D+01
 Coeff:     -0.365D-03-0.177D-01-0.591D-01 0.108D+01
 Gap=     0.554 Goal=   None    Shift=    0.000
 RMSDP=6.09D-06 MaxDP=2.88D-04 DE=-2.11D-04 OVMax= 2.71D-04

 Cycle   5  Pass 1  IDiag  1:
 E= -2752.05226584636     Delta-E=       -0.000000438604 Rises=F Damp=F
 DIIS: error= 3.56D-06 at cycle   5 NSaved=   5.
 NSaved= 5 IEnMin= 5 EnMin= -2752.05226584636     IErMin= 5 ErrMin= 3.56D-06
 ErrMax= 3.56D-06  0.00D+00 EMaxC= 1.00D-01 BMatC= 6.02D-09 BMatP= 7.35D-07
 IDIUse=1 WtCom= 1.00D+00 WtEn= 0.00D+00
 Coeff-Com:  0.615D-04 0.222D-04-0.517D-02-0.847D-01 0.109D+01
 Coeff:      0.615D-04 0.222D-04-0.517D-02-0.847D-01 0.109D+01
 Gap=     0.554 Goal=   None    Shift=    0.000
 RMSDP=6.60D-07 MaxDP=2.87D-05 DE=-4.39D-07 OVMax= 2.77D-05

 Cycle   6  Pass 1  IDiag  1:
 E= -2752.05226585219     Delta-E=       -0.000000005834 Rises=F Damp=F
 DIIS: error= 3.22D-07 at cycle   6 NSaved=   6.
 NSaved= 6 IEnMin= 6 EnMin= -2752.05226585219     IErMin= 6 ErrMin= 3.22D-07
 ErrMax= 3.22D-07  0.00D+00 EMaxC= 1.00D-01 BMatC= 4.08D-11 BMatP= 6.02D-09
 IDIUse=1 WtCom= 1.00D+00 WtEn= 0.00D+00
 Coeff-Com: -0.301D-05 0.983D-04 0.865D-03-0.187D-02-0.933D-01 0.109D+01
 Coeff:     -0.301D-05 0.983D-04 0.865D-03-0.187D-02-0.933D-01 0.109D+01
 Gap=     0.554 Goal=   None    Shift=    0.000
 RMSDP=6.66D-08 MaxDP=3.79D-06 DE=-5.83D-09 OVMax= 3.31D-06

 Cycle   7  Pass 1  IDiag  1:
 E= -2752.05226585222     Delta-E=       -0.000000000027 Rises=F Damp=F
 DIIS: error= 1.79D-08 at cycle   7 NSaved=   7.
 NSaved= 7 IEnMin= 7 EnMin= -2752.05226585222     IErMin= 7 ErrMin= 1.79D-08
 ErrMax= 1.79D-08  0.00D+00 EMaxC= 1.00D-01 BMatC= 1.39D-13 BMatP= 4.08D-11
 IDIUse=1 WtCom= 1.00D+00 WtEn= 0.00D+00
 Coeff-Com:  0.689D-07-0.418D-05-0.368D-04 0.237D-03 0.330D-02-0.687D-01
 Coeff-Com:  0.107D+01
 Coeff:      0.689D-07-0.418D-05-0.368D-04 0.237D-03 0.330D-02-0.687D-01
 Coeff:      0.107D+01
 Gap=     0.554 Goal=   None    Shift=    0.000
 RMSDP=5.86D-09 MaxDP=2.02D-07 DE=-2.73D-11 OVMax= 2.33D-07

 SCF Done:  E(RHF) =  -2752.05226585     A.U. after    7 cycles
            NFock=  7  Conv=0.59D-08     -V/T= 2.0000
 KE= 2.752039758411D+03 PE=-6.582554766663D+03 EE= 1.078462742400D+03
 Leave Link  502 at Tue Mar 31 18:28:50 2020, MaxMem=  2147483648 cpu:              25.5 elap:               2.7
 (Enter /usr/local/g16/g16/l801.exe)
 Windowed orbitals will be sorted by symmetry type.
 ExpMin= 2.53D-02 ExpMax= 1.17D+07 ExpMxC= 1.33D+04 IAcc=3 IRadAn=         5 AccDes= 0.00D+00
 HarFok:  IExCor=  205 AccDes= 0.00D+00 IRadAn=         5 IDoV=-2 UseB2=F ITyADJ=14
 ICtDFT= 12500011 ScaDFX=  1.000000  1.000000  1.000000  1.000000
 DSYEVD-2 returned Info=          89 IAlg= 4 N=    59 NDim=    59 NE2=    36395833 trying  DSYEV.
 Largest valence mixing into a core orbital is  9.81D-05
 Largest core mixing into a valence orbital is  3.83D-05
 Range of M.O.s used for correlation:    10   197
 NBasis=   197 NAE=    18 NBE=    18 NFC=     9 NFV=     0
 NROrb=    188 NOA=     9 NOB=     9 NVA=   179 NVB=   179

 **** Warning!!: The largest alpha MO coefficient is  0.14326343D+02

 Leave Link  801 at Tue Mar 31 18:28:50 2020, MaxMem=  2147483648 cpu:               0.6 elap:               0.0
 (Enter /usr/local/g16/g16/l804.exe)
 Closed-shell transformation, MDV=  2147483648 ITran=4 ISComp=1.
 Semi-Direct transformation.
 ModeAB=           2 MOrb=             9 LenV=    2146336898
 LASXX=     28892340 LTotXX=    28892340 LenRXX=    28892340
 LTotAB=    29348001 MaxLAS=    44558820 LenRXY=    44558820
 NonZer=    57784680 LenScr=    87449600 LnRSAI=           0
 LnScr1=           0 LExtra=           0 Total=    160900760
 MaxDsk=          -1 SrtSym=           F ITran=            4
 DoSDTr:  NPSUse= 16
 JobTyp=0 Pass  1:  I=   1 to   9.
 (rs|ai) integrals will be sorted in core.
 Complete sort for first half transformation.
 First half transformation complete.
 Complete sort for second half transformation.
 Second half transformation complete.
 SymMOI:  orbitals are not symmetric.
 Spin components of T(2) and E(2):
     alpha-alpha T2 =       0.9502424237D-02 E2=     -0.3580150712D-01
     alpha-beta  T2 =       0.4817592795D-01 E2=     -0.1723056874D+00
     beta-beta   T2 =       0.9502424237D-02 E2=     -0.3580150712D-01
 ANorm=    0.1033044421D+01
 E2 =    -0.2439087017D+00 EUMP2 =    -0.27522961745539D+04
 Leave Link  804 at Tue Mar 31 18:28:59 2020, MaxMem=  2147483648 cpu:             133.7 elap:               8.4
 (Enter /usr/local/g16/g16/l913.exe)
 CIDS:  MDV=  2147483648.
 Frozen-core window:  NFC=   9 NFV=   0.
 IFCWin=0 IBDFC=1 NFBD=     0     0 NFCmp=     0     0 NFFFC=     0     0
 Using DD3R+UMP44R for 1st iteration.
 Using DD4RQ for 2nd and later iterations.
 Keep R2 and R3 ints in memory in canonical form, NReq=393332325.
 FoFCou: FMM=F IPFlag=           0 FMFlag=           0 FMFlg1=           0
         NFxFlg=           0 DoJE=F BraDBF=F KetDBF=F FulRan=T
         wScrn=  0.000000 ICntrl=       600 IOpCl=  0 I1Cent=           0 NGrid=           0
         NMat0=    1 NMatS0=  19503 NMatT0=    0 NMatD0=    1 NMtDS0=    0 NMtDT0=    0
 Symmetry not used in FoFCou.
 Two-electron integral symmetry not used.
 CIDS: In Core Option IDoMem=           1.
 MP4(SDTQ)
 =========
 Produce multiple copies of IABC intergrals
 DD1Dir will call FoFMem   1 times, MxPair=        90
 NAB=    45 NAA=     0 NBB=     0.
 MP4(D)= -0.37205435D-02
 MP4(S)= -0.10891965D-02
 MP4(R+Q)=  0.42465769D-02
 T4(AAA)= -0.32560573D-03
 T4(AAB)= -0.35626614D-02
 Time for triples=      481.99 seconds.
 MP4(T)=   -0.77765342D-02
 E3=       -0.98647742D-02        EUMP3=      -0.27523060393D+04
 E4(DQ)=    0.52603332D-03        UMP4(DQ)=   -0.27523055133D+04
 E4(SDQ)=  -0.56316319D-03        UMP4(SDQ)=  -0.27523066025D+04
 E4(SDTQ)= -0.83396974D-02        UMP4(SDTQ)= -0.27523143790D+04
 VARIATIONAL ENERGIES WITH THE FIRST-ORDER WAVEFUNCTION:
 E(VAR1)=  -0.27522900639D+04     E(CISD,4)=  -0.27522944631D+04
 Largest amplitude= 1.19D-02
 Discarding MO integrals.
 Leave Link  913 at Tue Mar 31 18:29:33 2020, MaxMem=  2147483648 cpu:             549.5 elap:              34.4
 (Enter /usr/local/g16/g16/l601.exe)
 Copying SCF densities to generalized density rwf, IOpCl= 0 IROHF=0.

 **********************************************************************

            Population analysis using the SCF density.

 **********************************************************************

 Orbital symmetries:
       Occupied  (A) (A) (A) (A) (A) (A) (A) (A) (A) (A) (A) (A)
                 (A) (A) (A) (A) (A) (A)
       Virtual   (A) (A) (A) (A) (A) (A) (A) (A) (A) (A) (A) (A)
                 (A) (A) (A) (A) (A) (A) (A) (A) (A) (A) (A) (A)
                 (A) (A) (A) (A) (A) (A) (A) (A) (A) (A) (A) (A)
                 (A) (A) (A) (A) (A) (A) (A) (A) (A) (A) (A) (A)
                 (A) (A) (A) (A) (A) (A) (A) (A) (A) (A) (A) (A)
                 (A) (A) (A) (A) (A) (A) (A) (A) (A) (A) (A) (A)
                 (A) (A) (A) (A) (A) (A) (A) (A) (A) (A) (A) (A)
                 (A) (A) (A) (A) (A) (A) (A) (A) (A) (A) (A) (A)
                 (A) (A) (A) (A) (A) (A) (A) (A) (A) (A) (A) (A)
                 (A) (A) (A) (A) (A) (A) (A) (A) (A) (A) (A) (A)
                 (A) (A) (A) (A) (A) (A) (A) (A) (A) (A) (A) (A)
                 (A) (A) (A) (A) (A) (A) (A) (A) (A) (A) (A) (A)
                 (A) (A) (A) (A) (A) (A) (A) (A) (A) (A) (A) (A)
                 (A) (A) (A) (A) (A) (A) (A) (A) (A) (A) (A) (A)
                 (A) (A) (A) (A) (A) (A) (A) (A) (A) (A) (A)
 The electronic state is 1-A.
 Alpha  occ. eigenvalues -- -520.16580 -69.90314 -63.00972 -63.00972 -63.00971
 Alpha  occ. eigenvalues --  -10.84954  -8.33154  -8.33154  -8.33153  -3.82531
 Alpha  occ. eigenvalues --   -3.82531  -3.82531  -3.82530  -3.82529  -1.15311
 Alpha  occ. eigenvalues --   -0.52431  -0.52429  -0.52429
 Alpha virt. eigenvalues --    0.02947   0.04924   0.08589   0.09713   0.11311
 Alpha virt. eigenvalues --    0.12330   0.13268   0.14306   0.16759   0.17303
 Alpha virt. eigenvalues --    0.17792   0.19976   0.21673   0.26782   0.28323
 Alpha virt. eigenvalues --    0.29264   0.29683   0.33153   0.34796   0.36342
 Alpha virt. eigenvalues --    0.37773   0.38225   0.38268   0.40730   0.42538
 Alpha virt. eigenvalues --    0.43344   0.45076   0.57102   0.57546   0.58990
 Alpha virt. eigenvalues --    0.61822   0.66876   0.67675   0.71546   0.73969
 Alpha virt. eigenvalues --    0.76225   0.78606   0.79799   0.80714   0.81584
 Alpha virt. eigenvalues --    0.84047   0.84996   0.85882   0.87957   0.88106
 Alpha virt. eigenvalues --    0.90009   0.90765   0.91737   0.94444   0.97339
 Alpha virt. eigenvalues --    1.00073   1.01415   1.02105   1.05805   1.07229
 Alpha virt. eigenvalues --    1.10277   1.10529   1.13123   1.15211   1.17332
 Alpha virt. eigenvalues --    1.19601   1.23455   1.25097   1.26476   1.29662
 Alpha virt. eigenvalues --    1.37065   1.37744   1.43878   1.50178   1.51126
 Alpha virt. eigenvalues --    1.59199   1.62569   1.65070   1.73156   1.79490
 Alpha virt. eigenvalues --    1.82287   1.86186   1.89671   1.92667   2.26957
 Alpha virt. eigenvalues --    2.31143   2.34603   2.37187   2.39112   2.41584
 Alpha virt. eigenvalues --    2.43928   2.44896   2.48133   2.49053   2.53963
 Alpha virt. eigenvalues --    2.54494   2.54961   2.56441   2.57440   2.59013
 Alpha virt. eigenvalues --    2.59947   2.62049   2.65054   2.68318   2.68614
 Alpha virt. eigenvalues --    2.70772   2.70932   2.72743   2.78352   2.79109
 Alpha virt. eigenvalues --    2.82375   2.85304   2.90015   2.92126   2.94581
 Alpha virt. eigenvalues --    2.97953   2.98737   3.08401   3.14685   3.17227
 Alpha virt. eigenvalues --    3.23421   3.28183   3.33985   3.37948   3.52348
 Alpha virt. eigenvalues --    3.61336   3.66945   3.83141   3.87308   4.03660
 Alpha virt. eigenvalues --    4.49538   4.51286   4.53843   4.55375   4.68402
 Alpha virt. eigenvalues --    4.74283   4.88206   4.89510   4.95172   5.09602
 Alpha virt. eigenvalues --    5.14936   5.18414   5.60274   5.63526   5.83506
 Alpha virt. eigenvalues --    5.99019   6.06210   6.11704   6.79507   6.86675
 Alpha virt. eigenvalues --    7.32800   7.39432   7.63164   7.65368   7.69904
 Alpha virt. eigenvalues --    7.84905   8.00494   8.10550   8.18022   8.22229
 Alpha virt. eigenvalues --    8.38019   8.40845   8.64321   8.89011   9.62156
 Alpha virt. eigenvalues --    9.71048   9.80032   9.88268   9.96972  10.03165
 Alpha virt. eigenvalues --   10.16005  10.26513  10.46301  10.94235  11.50505
 Alpha virt. eigenvalues --   11.60185  11.64222  12.05731  12.06087  13.25411
 Alpha virt. eigenvalues --   13.63039  14.53610  62.73297  64.58057
          Condensed to atoms (all electrons):
               1          2          3          4          5
     1  O    0.001522  -0.000958  -0.000915   0.000496  -0.006314
     2  O   -0.000958   0.002187   0.000292  -0.001221  -0.002646
     3  H   -0.000915   0.000292   0.000686  -0.000155   0.002481
     4  H    0.000496  -0.001221  -0.000155   0.000998  -0.007794
     5  Kr  -0.006314  -0.002646   0.002481  -0.007794  36.028078
 Mulliken charges:
               1
     1  O    0.006169
     2  O    0.002346
     3  H   -0.002388
     4  H    0.007676
     5  Kr  -0.013804
 Sum of Mulliken charges =  -0.00000
 Mulliken charges with hydrogens summed into heavy atoms:
               1
     1  O    0.003782
     2  O    0.010022
     5  Kr  -0.013804
         Mulliken charges condensed to fragments:
      1      0.013804
      2     -0.013804
 Electronic spatial extent (au):  <R**2>=            167.1026
 Charge=             -0.0000 electrons
 Dipole moment (field-independent basis, Debye):
    X=              0.0009    Y=              0.0005    Z=              0.0001  Tot=              0.0010
 Quadrupole moment (field-independent basis, Debye-Ang):
   XX=            -17.7281   YY=            -17.7322   ZZ=            -17.7362
   XY=              0.0024   XZ=             -0.0002   YZ=              0.0003
 Traceless Quadrupole moment (field-independent basis, Debye-Ang):
   XX=              0.0041   YY=             -0.0000   ZZ=             -0.0040
   XY=              0.0024   XZ=             -0.0002   YZ=              0.0003
 Octapole moment (field-independent basis, Debye-Ang**2):
  XXX=             52.9679  YYY=              0.9149  ZZZ=             -0.1542  XYY=             17.6617
  XXY=              0.2985  XXZ=             -0.0514  XZZ=             17.6644  YZZ=              0.3054
  YYZ=             -0.0510  XYZ=             -0.0002
 Hexadecapole moment (field-independent basis, Debye-Ang**3):
 XXXX=           -124.0369 YYYY=            -18.5668 ZZZZ=            -18.5516 XXXY=             -0.8954
 XXXZ=              0.1533 YYYX=             -0.9014 YYYZ=              0.0024 ZZZX=              0.1536
 ZZZY=              0.0035 XXYY=            -23.7725 XXZZ=            -23.7718 YYZZ=             -6.1853
 XXYZ=              0.0014 YYXZ=              0.0512 ZZXY=             -0.2996
 N-N= 0.000000000000D+00 E-N=-6.582554768204D+03  KE= 2.752039758411D+03
 Leave Link  601 at Tue Mar 31 18:29:33 2020, MaxMem=  2147483648 cpu:               0.5 elap:               0.0
 (Enter /usr/local/g16/g16/l122.exe)
 CPIOFr:  IOpCl= 0 IRwI=-1 IRwCP=  731 ICalc=  2 LCPTot=       59414 Len1MO=      159453 IndFrg=      537773
 Counterpoise: doing calculation for fragment   1 using the basis set of the fragment.
 Leave Link  122 at Tue Mar 31 18:29:33 2020, MaxMem=  2147483648 cpu:               0.0 elap:               0.0
 (Enter /usr/local/g16/g16/l301.exe)
 Basis read from rwf:  (5D, 7F)
 No pseudopotential information found on rwf file.
 There are   160 symmetry adapted cartesian basis functions of A   symmetry.
 There are   138 symmetry adapted basis functions of A   symmetry.
   138 basis functions,   198 primitive gaussians,   160 cartesian basis functions
     9 alpha electrons        9 beta electrons
       nuclear repulsion energy        36.6058452101 Hartrees.
 IExCor=    0 DFT=F Ex=HF Corr=None ExCW=0 ScaHFX=  1.000000
 ScaDFX=  1.000000  1.000000  1.000000  1.000000 ScalE2=  1.000000  1.000000
 IRadAn=      5 IRanWt=     -1 IRanGd=            0 ICorTp=0 IEmpDi=  4
 NAtoms=    5 NActive=    4 NUniq=    4 SFac= 1.00D+00 NAtFMM=   60 NAOKFM=F Big=F
 Integral buffers will be    131072 words long.
 Raffenetti 1 integral format.
 Two-electron integral symmetry is turned on.
 No density basis found on file   718.
 Leave Link  301 at Tue Mar 31 18:29:33 2020, MaxMem=  2147483648 cpu:               0.4 elap:               0.0
 (Enter /usr/local/g16/g16/l302.exe)
 NPDir=0 NMtPBC=     1 NCelOv=     1 NCel=       1 NClECP=     1 NCelD=      1
         NCelK=      1 NCelE2=     1 NClLst=     1 CellRange=     0.0.
 One-electron integrals computed using PRISM.
 One-electron integral symmetry used in STVInt
 NBasis=   138 RedAO= T EigKep=  2.51D-04  NBF=   138
 NBsUse=   138 1.00D-06 EigRej= -1.00D+00 NBFU=   138
 Leave Link  302 at Tue Mar 31 18:29:34 2020, MaxMem=  2147483648 cpu:               1.4 elap:               0.1
 (Enter /usr/local/g16/g16/l303.exe)
 DipDrv:  MaxL=1.
 Leave Link  303 at Tue Mar 31 18:29:34 2020, MaxMem=  2147483648 cpu:               0.3 elap:               0.0
 (Enter /usr/local/g16/g16/l401.exe)
 ExpMin= 2.53D-02 ExpMax= 1.53D+04 ExpMxC= 5.22D+02 IAcc=3 IRadAn=         5 AccDes= 0.00D+00
 Harris functional with IExCor=  205 and IRadAn=       5 diagonalized for initial guess.
 HarFok:  IExCor=  205 AccDes= 0.00D+00 IRadAn=         5 IDoV= 1 UseB2=F ITyADJ=14
 ICtDFT=  3500011 ScaDFX=  1.000000  1.000000  1.000000  1.000000
 FoFCou: FMM=F IPFlag=           0 FMFlag=      100000 FMFlg1=           0
         NFxFlg=           0 DoJE=T BraDBF=F KetDBF=T FulRan=T
         wScrn=  0.000000 ICntrl=       500 IOpCl=  0 I1Cent=   200000004 NGrid=           0
         NMat0=    1 NMatS0=      1 NMatT0=    0 NMatD0=    1 NMtDS0=    0 NMtDT0=    0
 Petite list used in FoFCou.
 Harris En= -150.934527157690    
 JPrj=0 DoOrth=F DoCkMO=F.
 Leave Link  401 at Tue Mar 31 18:29:34 2020, MaxMem=  2147483648 cpu:               2.1 elap:               0.1
 (Enter /usr/local/g16/g16/l502.exe)
 Keep R1 ints in memory in canonical form, NReq=53860811.
 FoFCou: FMM=F IPFlag=           0 FMFlag=           0 FMFlg1=           0
         NFxFlg=           0 DoJE=F BraDBF=F KetDBF=F FulRan=T
         wScrn=  0.000000 ICntrl=       600 IOpCl=  0 I1Cent=           0 NGrid=           0
         NMat0=    1 NMatS0=   9591 NMatT0=    0 NMatD0=    1 NMtDS0=    0 NMtDT0=    0
 Symmetry not used in FoFCou.
 Two-electron integral symmetry not used.
 Closed shell SCF:
 Using DIIS extrapolation, IDIIS=  1040.
 NGot=  2147483648 LenX=  2101430001 LenY=  2101403960
 Requested convergence on RMS density matrix=1.00D-08 within 128 cycles.
 Requested convergence on MAX density matrix=1.00D-06.
 Requested convergence on             energy=1.00D-06.
 No special actions if energy rises.

 Cycle   1  Pass 1  IDiag  1:
 E= -150.773075862715    
 DIIS: error= 3.09D-02 at cycle   1 NSaved=   1.
 NSaved= 1 IEnMin= 1 EnMin= -150.773075862715     IErMin= 1 ErrMin= 3.09D-02
 ErrMax= 3.09D-02  0.00D+00 EMaxC= 1.00D-01 BMatC= 2.26D-01 BMatP= 2.26D-01
 IDIUse=3 WtCom= 6.91D-01 WtEn= 3.09D-01
 Coeff-Com:  0.100D+01
 Coeff-En:   0.100D+01
 Coeff:      0.100D+01
 Gap=     0.691 Goal=   None    Shift=    0.000
 GapD=    0.691 DampG=2.000 DampE=0.500 DampFc=1.0000 IDamp=-1.
 RMSDP=1.33D-03 MaxDP=2.90D-02              OVMax= 6.51D-02

 Cycle   2  Pass 1  IDiag  1:
 E= -150.825265136135     Delta-E=       -0.052189273421 Rises=F Damp=F
 DIIS: error= 9.44D-03 at cycle   2 NSaved=   2.
 NSaved= 2 IEnMin= 2 EnMin= -150.825265136135     IErMin= 2 ErrMin= 9.44D-03
 ErrMax= 9.44D-03  0.00D+00 EMaxC= 1.00D-01 BMatC= 1.53D-02 BMatP= 2.26D-01
 IDIUse=3 WtCom= 9.06D-01 WtEn= 9.44D-02
 Coeff-Com:  0.101D+00 0.899D+00
 Coeff-En:   0.000D+00 0.100D+01
 Coeff:      0.913D-01 0.909D+00
 Gap=     0.530 Goal=   None    Shift=    0.000
 RMSDP=6.66D-04 MaxDP=2.44D-02 DE=-5.22D-02 OVMax= 2.77D-02

 Cycle   3  Pass 1  IDiag  1:
 E= -150.832826735196     Delta-E=       -0.007561599061 Rises=F Damp=F
 DIIS: error= 4.66D-03 at cycle   3 NSaved=   3.
 NSaved= 3 IEnMin= 3 EnMin= -150.832826735196     IErMin= 3 ErrMin= 4.66D-03
 ErrMax= 4.66D-03  0.00D+00 EMaxC= 1.00D-01 BMatC= 2.20D-03 BMatP= 1.53D-02
 IDIUse=3 WtCom= 9.53D-01 WtEn= 4.66D-02
 Coeff-Com: -0.207D-01 0.254D+00 0.766D+00
 Coeff-En:   0.000D+00 0.000D+00 0.100D+01
 Coeff:     -0.197D-01 0.243D+00 0.777D+00
 Gap=     0.501 Goal=   None    Shift=    0.000
 RMSDP=1.50D-04 MaxDP=3.63D-03 DE=-7.56D-03 OVMax= 8.98D-03

 Cycle   4  Pass 1  IDiag  1:
 E= -150.834190874154     Delta-E=       -0.001364138958 Rises=F Damp=F
 DIIS: error= 3.59D-04 at cycle   4 NSaved=   4.
 NSaved= 4 IEnMin= 4 EnMin= -150.834190874154     IErMin= 4 ErrMin= 3.59D-04
 ErrMax= 3.59D-04  0.00D+00 EMaxC= 1.00D-01 BMatC= 1.59D-05 BMatP= 2.20D-03
 IDIUse=3 WtCom= 9.96D-01 WtEn= 3.59D-03
 Coeff-Com: -0.168D-02-0.122D-01 0.150D-01 0.999D+00
 Coeff-En:   0.000D+00 0.000D+00 0.000D+00 0.100D+01
 Coeff:     -0.168D-02-0.121D-01 0.150D-01 0.999D+00
 Gap=     0.502 Goal=   None    Shift=    0.000
 RMSDP=2.14D-05 MaxDP=4.03D-04 DE=-1.36D-03 OVMax= 1.27D-03

 Cycle   5  Pass 1  IDiag  1:
 E= -150.834212237860     Delta-E=       -0.000021363706 Rises=F Damp=F
 DIIS: error= 1.43D-04 at cycle   5 NSaved=   5.
 NSaved= 5 IEnMin= 5 EnMin= -150.834212237860     IErMin= 5 ErrMin= 1.43D-04
 ErrMax= 1.43D-04  0.00D+00 EMaxC= 1.00D-01 BMatC= 1.42D-06 BMatP= 1.59D-05
 IDIUse=3 WtCom= 9.99D-01 WtEn= 1.43D-03
 Coeff-Com:  0.164D-02-0.163D-01-0.581D-01-0.169D+00 0.124D+01
 Coeff-En:   0.000D+00 0.000D+00 0.000D+00 0.000D+00 0.100D+01
[...]
 Requested convergence on MAX density matrix=1.00D-06.
 Requested convergence on             energy=1.00D-06.
 No special actions if energy rises.

 Cycle   1  Pass 1  IDiag  1:
 E= -150.834216014546    
 DIIS: error= 1.88D-10 at cycle   1 NSaved=   1.
 NSaved= 1 IEnMin= 1 EnMin= -150.834216014546     IErMin= 1 ErrMin= 1.88D-10
 ErrMax= 1.88D-10  0.00D+00 EMaxC= 1.00D-01 BMatC= 5.82D-18 BMatP= 5.82D-18
 IDIUse=1 WtCom= 1.00D+00 WtEn= 0.00D+00
 Coeff-Com:  0.100D+01
 Coeff:      0.100D+01
 Gap=     0.890 Goal=   None    Shift=    0.000
 RMSDP=1.36D-11 MaxDP=3.89D-10              OVMax= 7.95D-10

 SCF Done:  E(RHF) =  -150.834216015     A.U. after    1 cycles
            NFock=  1  Conv=0.14D-10     -V/T= 2.0021
 KE= 1.505168267396D+02 PE=-4.314485816333D+02 EE= 9.349169366906D+01
 Leave Link  502 at Tue Mar 31 19:45:39 2020, MaxMem=  2147483648 cpu:               7.5 elap:               0.5
 (Enter /usr/local/g16/g16/l801.exe)
 Windowed orbitals will be sorted by symmetry type.
 ExpMin= 2.53D-02 ExpMax= 1.53D+04 ExpMxC= 5.22D+02 IAcc=3 IRadAn=         5 AccDes= 0.00D+00
 HarFok:  IExCor=  205 AccDes= 0.00D+00 IRadAn=         5 IDoV=-2 UseB2=F ITyADJ=14
 ICtDFT= 12500011 ScaDFX=  1.000000  1.000000  1.000000  1.000000
 Largest valence mixing into a core orbital is  1.19D-04
 Largest core mixing into a valence orbital is  2.02D-05
 Range of M.O.s used for correlation:     3   138
 NBasis=   138 NAE=     9 NBE=     9 NFC=     2 NFV=     0
 NROrb=    136 NOA=     7 NOB=     7 NVA=   129 NVB=   129

 **** Warning!!: The largest alpha MO coefficient is  0.13878549D+02

 Leave Link  801 at Tue Mar 31 19:45:40 2020, MaxMem=  2147483648 cpu:               0.5 elap:               0.0
 (Enter /usr/local/g16/g16/l804.exe)
 Closed-shell transformation, MDV=  2147483648 ITran=4 ISComp=1.
 Semi-Direct transformation.
 ModeAB=           2 MOrb=             7 LenV=    2146849433
 LASXX=      8463147 LTotXX=     8463147 LenRXX=     8463147
 LTotAB=     8647912 MaxLAS=    12261760 LenRXY=    12261760
 NonZer=    16926294 LenScr=    26146816 LnRSAI=           0
 LnScr1=           0 LExtra=           0 Total=     46871723
 MaxDsk=          -1 SrtSym=           F ITran=            4
 DoSDTr:  NPSUse= 16
 JobTyp=0 Pass  1:  I=   1 to   7.
 (rs|ai) integrals will be sorted in core.
 Complete sort for first half transformation.
 First half transformation complete.
 Complete sort for second half transformation.
 Second half transformation complete.
 SymMOI:  orbitals are not symmetric.
 Spin components of T(2) and E(2):
     alpha-alpha T2 =       0.1593839838D-01 E2=     -0.6272138624D-01
     alpha-beta  T2 =       0.9299901338D-01 E2=     -0.3814693451D+00
     beta-beta   T2 =       0.1593839838D-01 E2=     -0.6272138624D-01
 ANorm=    0.1060601627D+01
 E2 =    -0.5069121176D+00 EUMP2 =    -0.15134112813214D+03
 Leave Link  804 at Tue Mar 31 19:45:41 2020, MaxMem=  2147483648 cpu:              28.3 elap:               1.8
 (Enter /usr/local/g16/g16/l913.exe)
 CIDS:  MDV=  2147483648.
 Frozen-core window:  NFC=   2 NFV=   0.
 IFCWin=0 IBDFC=1 NFBD=     0     0 NFCmp=     0     0 NFFFC=     0     0
 Using DD3R+UMP44R for 1st iteration.
 Using DD4RQ for 2nd and later iterations.
 Keep R2 and R3 ints in memory in canonical form, NReq=99863705.
 FoFCou: FMM=F IPFlag=           0 FMFlag=           0 FMFlg1=           0
         NFxFlg=           0 DoJE=F BraDBF=F KetDBF=F FulRan=T
         wScrn=  0.000000 ICntrl=       600 IOpCl=  0 I1Cent=           0 NGrid=           0
         NMat0=    1 NMatS0=   9591 NMatT0=    0 NMatD0=    1 NMtDS0=    0 NMtDT0=    0
 Symmetry not used in FoFCou.
 Two-electron integral symmetry not used.
 CIDS: In Core Option IDoMem=           1.
 MP4(SDTQ)
 =========
 Produce multiple copies of IABC intergrals
 DD1Dir will call FoFMem   1 times, MxPair=        56
 NAB=    28 NAA=     0 NBB=     0.
 MP4(D)= -0.11250432D-01
 MP4(S)= -0.51565206D-02
 MP4(R+Q)=  0.10712124D-01
 T4(AAA)= -0.65356796D-03
 T4(AAB)= -0.10205414D-01
 Time for triples=       93.88 seconds.
 MP4(T)=   -0.21717964D-01
 E3=       -0.22194697D-02        EUMP3=      -0.15134334760D+03
 E4(DQ)=   -0.53830787D-03        UMP4(DQ)=   -0.15134388591D+03
 E4(SDQ)=  -0.56948284D-02        UMP4(SDQ)=  -0.15134904243D+03
 E4(SDTQ)= -0.27412793D-01        UMP4(SDTQ)= -0.15137076039D+03
 VARIATIONAL ENERGIES WITH THE FIRST-ORDER WAVEFUNCTION:
 E(VAR1)=  -0.15128682739D+03     E(CISD,4)=  -0.15129645349D+03
 Largest amplitude= 2.73D-02
 Discarding MO integrals.
 Leave Link  913 at Tue Mar 31 19:45:49 2020, MaxMem=  2147483648 cpu:             117.1 elap:               7.3
 (Enter /usr/local/g16/g16/l122.exe)
 CPIOFr:  IOpCl= 0 IRwI=-1 IRwCP=  731 ICalc=  3 LCPTot=       59414 Len1MO=      159453 IndFrg=      697226
 Restoring MOs from calculation   5 to rwf and chk.
 CPIOFr:  IOpCl= 0 IRwI=-2 IRwCP=20731 ICalc=  4 LCPTot=       59414 Len1MO=      159453 IndFrg=      856679
 CPIOFr:  IOpCl= 0 IRwI= 4 IRwCP=20731 ICalc=  4 LCPTot=       59414 Len1MO=      159453 IndFrg=      856679
 Counterpoise: doing calculation for fragment   2 using the basis set of the fragment.
 Leave Link  122 at Tue Mar 31 19:45:49 2020, MaxMem=  2147483648 cpu:               0.1 elap:               0.0
 (Enter /usr/local/g16/g16/l301.exe)
 Basis read from rwf:  (5D, 7F)
 No pseudopotential information found on rwf file.
 There are    69 symmetry adapted cartesian basis functions of A   symmetry.
 There are    59 symmetry adapted basis functions of A   symmetry.
    59 basis functions,   217 primitive gaussians,    69 cartesian basis functions
    18 alpha electrons       18 beta electrons
       nuclear repulsion energy         0.0000000000 Hartrees.
 IExCor=    0 DFT=F Ex=HF Corr=None ExCW=0 ScaHFX=  1.000000
 ScaDFX=  1.000000  1.000000  1.000000  1.000000 ScalE2=  1.000000  1.000000
 IRadAn=      5 IRanWt=     -1 IRanGd=            0 ICorTp=0 IEmpDi=  4
 NAtoms=    5 NActive=    1 NUniq=    1 SFac= 1.00D+00 NAtFMM=   60 NAOKFM=F Big=F
 Integral buffers will be    131072 words long.
 Raffenetti 1 integral format.
 Two-electron integral symmetry is turned on.
 No density basis found on file   718.
 Leave Link  301 at Tue Mar 31 19:45:49 2020, MaxMem=  2147483648 cpu:               0.4 elap:               0.0
 (Enter /usr/local/g16/g16/l302.exe)
 NPDir=0 NMtPBC=     1 NCelOv=     1 NCel=       1 NClECP=     1 NCelD=      1
         NCelK=      1 NCelE2=     1 NClLst=     1 CellRange=     0.0.
 One-electron integrals computed using PRISM.
 One-electron integral symmetry used in STVInt
 NBasis=    59 RedAO= T EigKep=  1.06D-02  NBF=    59
 NBsUse=    59 1.00D-06 EigRej= -1.00D+00 NBFU=    59
 Leave Link  302 at Tue Mar 31 19:45:49 2020, MaxMem=  2147483648 cpu:               1.3 elap:               0.1
 (Enter /usr/local/g16/g16/l303.exe)
 DipDrv:  MaxL=1.
 Leave Link  303 at Tue Mar 31 19:45:49 2020, MaxMem=  2147483648 cpu:               0.3 elap:               0.0
 (Enter /usr/local/g16/g16/l401.exe)
 Initial guess from the checkpoint file:  "/mnt/driveB/scratch/matheus/Gau-4823.chk"
 B after Tr=    -0.062993    0.000400   -0.000067
         Rot=    1.000000    0.000000    0.000000    0.000000 Ang=   0.00 deg.
 Guess basis will be translated and rotated to current coordinates.
 JPrj=2 DoOrth=T DoCkMO=T.
 Generating alternative initial guess.
 ExpMin= 4.00D-02 ExpMax= 1.17D+07 ExpMxC= 1.33D+04 IAcc=3 IRadAn=         5 AccDes= 0.00D+00
 Harris functional with IExCor=  205 and IRadAn=       5 diagonalized for initial guess.
 HarFok:  IExCor=  205 AccDes= 0.00D+00 IRadAn=         5 IDoV= 1 UseB2=F ITyADJ=14
 ICtDFT=  3500011 ScaDFX=  1.000000  1.000000  1.000000  1.000000
 FoFCou: FMM=F IPFlag=           0 FMFlag=      100000 FMFlg1=           0
         NFxFlg=           0 DoJE=T BraDBF=F KetDBF=T FulRan=T
         wScrn=  0.000000 ICntrl=       500 IOpCl=  0 I1Cent=   200000004 NGrid=           0
         NMat0=    1 NMatS0=      1 NMatT0=    0 NMatD0=    1 NMtDS0=    0 NMtDT0=    0
 Petite list used in FoFCou.
 Harris En= -2751.05937170533    
 Leave Link  401 at Tue Mar 31 19:45:49 2020, MaxMem=  2147483648 cpu:               2.3 elap:               0.1
 (Enter /usr/local/g16/g16/l502.exe)
 Keep R1 ints in memory in canonical form, NReq=14291944.
 FoFCou: FMM=F IPFlag=           0 FMFlag=           0 FMFlg1=           0
         NFxFlg=           0 DoJE=F BraDBF=F KetDBF=F FulRan=T
         wScrn=  0.000000 ICntrl=       600 IOpCl=  0 I1Cent=           0 NGrid=           0
         NMat0=    1 NMatS0=   1770 NMatT0=    0 NMatD0=    1 NMtDS0=    0 NMtDT0=    0
 Symmetry not used in FoFCou.
 Two-electron integral symmetry not used.
 Closed shell SCF:
 Using DIIS extrapolation, IDIIS=  1040.
 NGot=  2147483648 LenX=  2145904888 LenY=  2145899686
 Requested convergence on RMS density matrix=1.00D-08 within 128 cycles.
 Requested convergence on MAX density matrix=1.00D-06.
 Requested convergence on             energy=1.00D-06.
 No special actions if energy rises.

 Cycle   1  Pass 1  IDiag  1:
 E= -2752.05222307625    
 DIIS: error= 1.52D-13 at cycle   1 NSaved=   1.
 NSaved= 1 IEnMin= 1 EnMin= -2752.05222307625     IErMin= 1 ErrMin= 1.52D-13
 ErrMax= 1.52D-13  0.00D+00 EMaxC= 1.00D-01 BMatC= 7.79D-25 BMatP= 7.79D-25
 IDIUse=1 WtCom= 1.00D+00 WtEn= 0.00D+00
 Coeff-Com:  0.100D+01
 Coeff:      0.100D+01
 Gap=     0.719 Goal=   None    Shift=    0.000
 RMSDP=3.50D-15 MaxDP=7.17D-14              OVMax= 3.71D-14

 SCF Done:  E(RHF) =  -2752.05222308     A.U. after    1 cycles
            NFock=  1  Conv=0.35D-14     -V/T= 2.0000
 KE= 2.752048106937D+03 PE=-6.582565276257D+03 EE= 1.078464946243D+03
 Leave Link  502 at Tue Mar 31 19:45:50 2020, MaxMem=  2147483648 cpu:               9.1 elap:               0.6
 (Enter /usr/local/g16/g16/l801.exe)
 Windowed orbitals will be sorted by symmetry type.
 ExpMin= 4.00D-02 ExpMax= 1.17D+07 ExpMxC= 1.33D+04 IAcc=3 IRadAn=         5 AccDes= 0.00D+00
 HarFok:  IExCor=  205 AccDes= 0.00D+00 IRadAn=         5 IDoV=-2 UseB2=F ITyADJ=14
 ICtDFT= 12500011 ScaDFX=  1.000000  1.000000  1.000000  1.000000
 Largest valence mixing into a core orbital is  9.79D-05
 Largest core mixing into a valence orbital is  3.83D-05
 Range of M.O.s used for correlation:    10    59
 NBasis=    59 NAE=    18 NBE=    18 NFC=     9 NFV=     0
 NROrb=     50 NOA=     9 NOB=     9 NVA=    41 NVB=    41
 Leave Link  801 at Tue Mar 31 19:45:50 2020, MaxMem=  2147483648 cpu:               0.4 elap:               0.0
 (Enter /usr/local/g16/g16/l804.exe)
 Closed-shell transformation, MDV=  2147483648 ITran=4 ISComp=1.
 Semi-Direct transformation.
 ModeAB=           2 MOrb=             9 LenV=    2147140326
 LASXX=       482211 LTotXX=      482211 LenRXX=      482211
 LTotAB=      511245 MaxLAS=     1086750 LenRXY=     1086750
 NonZer=     1162350 LenScr=     2357760 LnRSAI=           0
 LnScr1=           0 LExtra=           0 Total=      3926721
 MaxDsk=          -1 SrtSym=           F ITran=            4
 DoSDTr:  NPSUse= 16
 JobTyp=0 Pass  1:  I=   1 to   9.
 (rs|ai) integrals will be sorted in core.
 Complete sort for first half transformation.
 First half transformation complete.
 Complete sort for second half transformation.
 Second half transformation complete.
 SymMOI:  orbitals are not symmetric.
 Spin components of T(2) and E(2):
     alpha-alpha T2 =       0.9484485167D-02 E2=     -0.3552398032D-01
     alpha-beta  T2 =       0.4799866946D-01 E2=     -0.1708433112D+00
     beta-beta   T2 =       0.9484485167D-02 E2=     -0.3552398032D-01
 ANorm=    0.1032941257D+01
 E2 =    -0.2418912719D+00 EUMP2 =    -0.27522941143481D+04
 Leave Link  804 at Tue Mar 31 19:45:50 2020, MaxMem=  2147483648 cpu:               5.1 elap:               0.3
 (Enter /usr/local/g16/g16/l913.exe)
 CIDS:  MDV=  2147483648.
 Frozen-core window:  NFC=   9 NFV=   0.
 IFCWin=0 IBDFC=1 NFBD=     0     0 NFCmp=     0     0 NFFFC=     0     0
 Using DD3R+UMP44R for 1st iteration.
 Using DD4RQ for 2nd and later iterations.
 Keep R2 and R3 ints in memory in canonical form, NReq=15862484.
 FoFCou: FMM=F IPFlag=           0 FMFlag=           0 FMFlg1=           0
         NFxFlg=           0 DoJE=F BraDBF=F KetDBF=F FulRan=T
         wScrn=  0.000000 ICntrl=       600 IOpCl=  0 I1Cent=           0 NGrid=           0
         NMat0=    1 NMatS0=   1770 NMatT0=    0 NMatD0=    1 NMtDS0=    0 NMtDT0=    0
 Symmetry not used in FoFCou.
 Two-electron integral symmetry not used.
 CIDS: In Core Option IDoMem=           1.
 MP4(SDTQ)
 =========
 Produce multiple copies of IABC intergrals
 DD1Dir will call FoFMem   1 times, MxPair=        90
 NAB=    45 NAA=     0 NBB=     0.
 MP4(D)= -0.36913093D-02
 MP4(S)= -0.10734540D-02
 MP4(R+Q)=  0.42077927D-02
 T4(AAA)= -0.32336090D-03
 T4(AAB)= -0.35259699D-02
 Time for triples=        3.48 seconds.
 MP4(T)=   -0.76986616D-02
 E3=       -0.99406389D-02        EUMP3=      -0.27523040550D+04
 E4(DQ)=    0.51648341D-03        UMP4(DQ)=   -0.27523035385D+04
 E4(SDQ)=  -0.55697064D-03        UMP4(SDQ)=  -0.27523046120D+04
 E4(SDTQ)= -0.82556322D-02        UMP4(SDTQ)= -0.27523123106D+04
 VARIATIONAL ENERGIES WITH THE FIRST-ORDER WAVEFUNCTION:
 E(VAR1)=  -0.27522882489D+04     E(CISD,4)=  -0.27522926209D+04
 Largest amplitude= 2.10D-02
 Discarding MO integrals.
 Leave Link  913 at Tue Mar 31 19:45:51 2020, MaxMem=  2147483648 cpu:              13.8 elap:               0.9
 (Enter /usr/local/g16/g16/l122.exe)
 CPIOFr:  IOpCl= 0 IRwI=-1 IRwCP=  731 ICalc=  4 LCPTot=       59414 Len1MO=      159453 IndFrg=      856679
 Restoring MOs from calculation   1 to rwf.
 CPIOFr:  IOpCl= 0 IRwI=-2 IRwCP=  731 ICalc=  0 LCPTot=       59414 Len1MO=      159453 IndFrg=      218867
 Counterpoise corrected energy =   -2903.683323234644
                   BSSE energy =       0.000219780492
              sum of fragments =   -2903.683071013667
           complexation energy =      -0.30 kcal/mole (raw)
           complexation energy =      -0.16 kcal/mole (corrected)
 Leave Link  122 at Tue Mar 31 19:45:51 2020, MaxMem=  2147483648 cpu:               0.1 elap:               0.0
 (Enter /usr/local/g16/g16/l108.exe)
 Scan completed.
 
 Summary of the potential surface scan, energies are +2752 a.u.:
   N      R1          SCF          MP2          MP3         MP4DQ       MP4SDQ       MP4SDTQ  
 ----  ---------  -----------  -----------  -----------  -----------  -----------  -----------
    1     3.0000     -0.05222     -0.29411     -0.30405     -0.30354     -0.30461     -0.31231
    2     3.1000     -0.05222     -0.29411     -0.30405     -0.30354     -0.30461     -0.31231
    3     3.2000     -0.05222     -0.29411     -0.30405     -0.30354     -0.30461     -0.31231
    4     3.3000     -0.05222     -0.29411     -0.30405     -0.30354     -0.30461     -0.31231
    5     3.4000     -0.05222     -0.29411     -0.30405     -0.30354     -0.30461     -0.31231
    6     3.5000     -0.05222     -0.29411     -0.30405     -0.30354     -0.30461     -0.31231
    7     3.6000     -0.05222     -0.29411     -0.30405     -0.30354     -0.30461     -0.31231
    8     3.7000     -0.05222     -0.29411     -0.30405     -0.30354     -0.30461     -0.31231
    9     3.8000     -0.05222     -0.29411     -0.30405     -0.30354     -0.30461     -0.31231
   10     3.9000     -0.05222     -0.29411     -0.30405     -0.30354     -0.30461     -0.31231
   11     4.0000     -0.05222     -0.29411     -0.30405     -0.30354     -0.30461     -0.31231
   12     4.1000     -0.05222     -0.29411     -0.30405     -0.30354     -0.30461     -0.31231
   13     4.2000     -0.05222     -0.29411     -0.30405     -0.30354     -0.30461     -0.31231
   14     4.3000     -0.05222     -0.29411     -0.30405     -0.30354     -0.30461     -0.31231
   15     4.4000     -0.05222     -0.29411     -0.30405     -0.30354     -0.30461     -0.31231
   16     4.5000     -0.05222     -0.29411     -0.30405     -0.30354     -0.30461     -0.31231
   17     4.6000     -0.05222     -0.29411     -0.30405     -0.30354     -0.30461     -0.31231
   18     4.7000     -0.05222     -0.29411     -0.30405     -0.30354     -0.30461     -0.31231
   19     4.8000     -0.05222     -0.29411     -0.30405     -0.30354     -0.30461     -0.31231
   20     4.9000     -0.05222     -0.29411     -0.30405     -0.30354     -0.30461     -0.31231
   21     5.0000     -0.05222     -0.29411     -0.30405     -0.30354     -0.30461     -0.31231
 ----  ---------  -----------  -----------  -----------  -----------  -----------  -----------
  
 Leave Link  108 at Tue Mar 31 19:45:51 2020, MaxMem=  2147483648 cpu:               0.1 elap:               0.0
 (Enter /usr/local/g16/g16/l9999.exe)
 1\1\GINC-ARTHUR-MS-7B09\Scan\RMP4SDTQ-FC\Aug-CC-pVTZ\H2Kr1O2\MATHEUS\3
 1-Mar-2020\1\\#p mp4/aug-cc-PVTz int=ultrafine counterpoise=2 Scan\\PT
 CC\\0,1\O,0,0.,0.,0.725\O,0,0.,0.,-0.725\H,0,0.5905422151,-0.703780806
 4,1.0235104166\H,0,0.,0.9187205947,-1.0235104166\Kr,0,0.,R1,0.\\R1=3.,
 s,20,0.1\\Version=ES64L-G16RevA.03\HF=-2752.0522231,-2752.0522231,-275
 2.0522231,-2752.0522231,-2752.0522231,-2752.0522231,-2752.0522231,-275
 2.0522231,-2752.0522231,-2752.0522231,-2752.0522231,-2752.0522231,-275
 2.0522231,-2752.0522231,-2752.0522231,-2752.0522231,-2752.0522231,-275
 2.0522231,-2752.0522231,-2752.0522231,-2752.0522231\MP2=-2752.2941143,
 -2752.2941143,-2752.2941143,-2752.2941143,-2752.2941143,-2752.2941143,
 -2752.2941143,-2752.2941143,-2752.2941143,-2752.2941143,-2752.2941143,
 -2752.2941143,-2752.2941143,-2752.2941143,-2752.2941143,-2752.2941143,
 -2752.2941143,-2752.2941143,-2752.2941143,-2752.2941143,-2752.2941143\
 MP3=-2752.304055,-2752.304055,-2752.304055,-2752.304055,-2752.304055,-
 2752.304055,-2752.304055,-2752.304055,-2752.304055,-2752.304055,-2752.
 304055,-2752.304055,-2752.304055,-2752.304055,-2752.304055,-2752.30405
 5,-2752.304055,-2752.304055,-2752.304055,-2752.304055,-2752.304055\MP4
 D=-2752.3077463,-2752.3077463,-2752.3077463,-2752.3077463,-2752.307746
 3,-2752.3077463,-2752.3077463,-2752.3077463,-2752.3077463,-2752.307746
 3,-2752.3077463,-2752.3077463,-2752.3077463,-2752.3077463,-2752.307746
 3,-2752.3077463,-2752.3077463,-2752.3077463,-2752.3077463,-2752.307746
 3,-2752.3077463\MP4DQ=-2752.3035385,-2752.3035385,-2752.3035385,-2752.
 3035385,-2752.3035385,-2752.3035385,-2752.3035385,-2752.3035385,-2752.
 3035385,-2752.3035385,-2752.3035385,-2752.3035385,-2752.3035385,-2752.
 3035385,-2752.3035385,-2752.3035385,-2752.3035385,-2752.3035385,-2752.
 3035385,-2752.3035385,-2752.3035385\MP4SDQ=-2752.304612,-2752.304612,-
 2752.304612,-2752.304612,-2752.304612,-2752.304612,-2752.304612,-2752.
 304612,-2752.304612,-2752.304612,-2752.304612,-2752.304612,-2752.30461
 2,-2752.304612,-2752.304612,-2752.304612,-2752.304612,-2752.304612,-27
 52.304612,-2752.304612,-2752.304612\MP4SDTQ=-2752.3123106,-2752.312310
 6,-2752.3123106,-2752.3123106,-2752.3123106,-2752.3123106,-2752.312310
 6,-2752.3123106,-2752.3123106,-2752.3123106,-2752.3123106,-2752.312310
 6,-2752.3123106,-2752.3123106,-2752.3123106,-2752.3123106,-2752.312310
 6,-2752.3123106,-2752.3123106,-2752.3123106,-2752.3123106\RMSD=9.887e-
 10,1.149e-10,2.884e-11,7.213e-12,1.871e-12,4.695e-13,1.335e-13,3.471e-
 14,1.852e-14,1.246e-14,1.514e-14,1.311e-14,9.175e-15,6.338e-15,6.024e-
 15,9.650e-15,9.476e-15,5.095e-15,9.292e-15,6.512e-15,3.499e-15\PG=C01 
 [X(H2Kr1O2)]\\@


 ACTORS ARE SO FORTUNATE.  THEY CAN CHOOSE WHETHER
 THEY WILL APPEAR IN A TRAGEDY OR IN COMEDY,
 WHETHER THEY WILL SUFFER OF MAKE MERRY,
 LAUGH OR SHED TEARS.  BUT IN REAL LIFE IT IS DIFFERENT.
 MOST MEN AND WOMEN ARE FORCED TO PERFORM
 PARTS FOR WHICH THEY HAVE NO QUALIFICATIONS.
 THE WORLD IS A STAGE, BUT THE PLAY IS BADLY CAST.

                                   -- OSCAR WILDE
 Job cpu time:       0 days 20 hours 49 minutes 24.2 seconds.
 Elapsed time:       0 days  1 hours 19 minutes 18.7 seconds.
 File lengths (MBytes):  RWF=   4073 Int=      0 D2E=      0 Chk=     12 Scr=      1
 Normal termination of Gaussian 16 at Tue Mar 31 19:45:51 2020.
