 Entering Gaussian System, Link 0=g16
 Input=Inputs/H2O2-Kr_7.com
 Output=Logs/H2O2-Kr_7.log
 Initial command:
 /usr/local/g16/g16/l1.exe "/mnt/driveB/scratch/matheus/Gau-55734.inp" -scrdir="/mnt/driveB/scratch/matheus/"
 Entering Link 1 = /usr/local/g16/g16/l1.exe PID=     55736.
  
 Copyright (c) 1988,1990,1992,1993,1995,1998,2003,2009,2016,
            Gaussian, Inc.  All Rights Reserved.
  
 This is part of the Gaussian(R) 16 program.  It is based on
 the Gaussian(R) 09 system (copyright 2009, Gaussian, Inc.),
 the Gaussian(R) 03 system (copyright 2003, Gaussian, Inc.),
 the Gaussian(R) 98 system (copyright 1998, Gaussian, Inc.),
 the Gaussian(R) 94 system (copyright 1995, Gaussian, Inc.),
 the Gaussian 92(TM) system (copyright 1992, Gaussian, Inc.),
 the Gaussian 90(TM) system (copyright 1990, Gaussian, Inc.),
 the Gaussian 88(TM) system (copyright 1988, Gaussian, Inc.),
 the Gaussian 86(TM) system (copyright 1986, Carnegie Mellon
 University), and the Gaussian 82(TM) system (copyright 1983,
 Carnegie Mellon University). Gaussian is a federally registered
 trademark of Gaussian, Inc.
  
 This software contains proprietary and confidential information,
 including trade secrets, belonging to Gaussian, Inc.
  
 This software is provided under written license and may be
 used, copied, transmitted, or stored only in accord with that
 written license.
  
 The following legend is applicable only to US Government
 contracts under FAR:
  
                    RESTRICTED RIGHTS LEGEND
  
 Use, reproduction and disclosure by the US Government is
 subject to restrictions as set forth in subparagraphs (a)
 and (c) of the Commercial Computer Software - Restricted
 Rights clause in FAR 52.227-19.
  
 Gaussian, Inc.
 340 Quinnipiac St., Bldg. 40, Wallingford CT 06492
  
  
 ---------------------------------------------------------------
 Warning -- This program may not be used in any manner that
 competes with the business of Gaussian, Inc. or will provide
 assistance to any competitor of Gaussian, Inc.  The licensee
 of this program is prohibited from giving any competitor of
 Gaussian, Inc. access to this program.  By using this program,
 the user acknowledges that Gaussian, Inc. is engaged in the
 business of creating and licensing software in the field of
 computational chemistry and represents and warrants to the
 licensee that it is not a competitor of Gaussian, Inc. and that
 it will not use this program in any manner prohibited above.
 ---------------------------------------------------------------
  

 Cite this work as:
 Gaussian 16, Revision A.03,
 M. J. Frisch, G. W. Trucks, H. B. Schlegel, G. E. Scuseria, 
 M. A. Robb, J. R. Cheeseman, G. Scalmani, V. Barone, 
 G. A. Petersson, H. Nakatsuji, X. Li, M. Caricato, A. V. Marenich, 
 J. Bloino, B. G. Janesko, R. Gomperts, B. Mennucci, H. P. Hratchian, 
 J. V. Ortiz, A. F. Izmaylov, J. L. Sonnenberg, D. Williams-Young, 
 F. Ding, F. Lipparini, F. Egidi, J. Goings, B. Peng, A. Petrone, 
 T. Henderson, D. Ranasinghe, V. G. Zakrzewski, J. Gao, N. Rega, 
 G. Zheng, W. Liang, M. Hada, M. Ehara, K. Toyota, R. Fukuda, 
 J. Hasegawa, M. Ishida, T. Nakajima, Y. Honda, O. Kitao, H. Nakai, 
 T. Vreven, K. Throssell, J. A. Montgomery, Jr., J. E. Peralta, 
 F. Ogliaro, M. J. Bearpark, J. J. Heyd, E. N. Brothers, K. N. Kudin, 
 V. N. Staroverov, T. A. Keith, R. Kobayashi, J. Normand, 
 K. Raghavachari, A. P. Rendell, J. C. Burant, S. S. Iyengar, 
 J. Tomasi, M. Cossi, J. M. Millam, M. Klene, C. Adamo, R. Cammi, 
 J. W. Ochterski, R. L. Martin, K. Morokuma, O. Farkas, 
 J. B. Foresman, and D. J. Fox, Gaussian, Inc., Wallingford CT, 2016.
 
 ******************************************
 Gaussian 16:  ES64L-G16RevA.03 25-Dec-2016
                30-Mar-2020 
 ******************************************
 %mem=16GB
 %nproc=16
 Will use up to   16 processors via shared memory.
 ----------------------------------------------------
 #p mp4/aug-cc-PVTz int=ultrafine counterpoise=2 Scan
 ----------------------------------------------------
 1/38=1,60=1,62=2,172=1/1,8;
 2/12=2,17=6,18=5,29=3,40=1/2;
 1/38=1,53=2,62=2,63=1/22;
 3/5=16,6=1,7=10,11=9,25=1,30=1,75=-5/1,2,3;
 4//1;
 5/5=2,38=5/2;
 8/6=4,9=120000,10=1/1,4;
 9/5=5/13;
 6/7=2,8=2,9=2,10=2,18=1/1;
 1/53=2,62=2,63=1/22;
 3/5=7,6=11,7=10,11=9,25=1,30=1,75=-5,82=7/1,2,3;
 4//1;
 5/5=2,38=5/2;
 8/6=4,9=120000,10=1/1,4;
 9/5=5/13;
 6/7=2,8=2,9=2,10=2,18=1/1;
 1/53=2,62=2,63=1/22(-6);
 1/60=1,62=2/8(1);
 99/9=1/99;
 2/29=3/2;
 1/53=3,62=2,63=1/22;
 3/5=7,6=11,7=10,11=9,25=1,30=1,75=-5,82=7/1,2,3;
 4/5=5,16=3,69=1/1;
 5/5=2,38=5/2;
 8/6=4,9=120000,10=1/1,4;
 9/5=5/13;
 1/53=3,62=2,63=1/22(-5);
 1/60=1,62=2/8(-8);
 99/9=1/99;
 Leave Link    1 at Mon Mar 30 21:10:28 2020, MaxMem=  2147483648 cpu:               0.3 elap:               0.0
 (Enter /usr/local/g16/g16/l101.exe)
 ----
 PTCC
 ----
 Symbolic Z-matrix:
 Charge =  0 Multiplicity = 1 in supermolecule
 Charge =  0 Multiplicity = 1 in fragment      1.
 Charge =  0 Multiplicity = 1 in fragment      2.
 O(Fragment=1)         0.        0.        0.725 
 O(Fragment=1)         0.        0.       -0.725 
 H(Fragment=1)         0.86331   0.31422   1.02351 
 H(Fragment=1)         0.        0.91872  -1.02351 
 Kr(Fragment=2)        0.       R1        0. 
       Variables:
  R1                    3.     Scan 20    0.1    
 
 ITRead=  0  0  0  0  0
 MicOpt= -1 -1 -1 -1 -1
 NAtoms=      5 NQM=        5 NQMF=       0 NMMI=      0 NMMIF=      0
                NMic=       0 NMicF=      0.
                    Isotopes and Nuclear Properties:
 (Nuclear quadrupole moments (NQMom) in fm**2, nuclear magnetic moments (NMagM)
  in nuclear magnetons)

  Atom         1           2           3           4           5
 IAtWgt=          16          16           1           1          84
 AtmWgt=  15.9949146  15.9949146   1.0078250   1.0078250  83.9115064
 NucSpn=           0           0           1           1           0
 AtZEff=  -0.0000000  -0.0000000  -0.0000000  -0.0000000  -0.0000000
 NQMom=    0.0000000   0.0000000   0.0000000   0.0000000   0.0000000
 NMagM=    0.0000000   0.0000000   2.7928460   2.7928460   0.0000000
 AtZNuc=   8.0000000   8.0000000   1.0000000   1.0000000  36.0000000
 Leave Link  101 at Mon Mar 30 21:10:28 2020, MaxMem=  2147483648 cpu:               1.4 elap:               0.1
 (Enter /usr/local/g16/g16/l108.exe)
 Scan the potential surface.
 Variable   Value     No. Steps Step-Size
 -------- ----------- --------- ---------
     1       3.000000      20      0.1000
 A total of     21 points will be computed.
 Leave Link  108 at Mon Mar 30 21:10:28 2020, MaxMem=  2147483648 cpu:               0.0 elap:               0.0
 (Enter /usr/local/g16/g16/l202.exe)
 ---------------------------------------------------------------------------------------------------
                            Z-MATRIX (ANGSTROMS AND DEGREES)
   CD    Cent   Atom    N1       Length/X        N2       Alpha/Y        N3        Beta/Z          J
 ---------------------------------------------------------------------------------------------------
      1      1  O        0   0.000000          0.000000          0.725000
      2      2  O        0   0.000000          0.000000         -0.725000
      3      3  H        0   0.863315          0.314221          1.023510
      4      4  H        0   0.000000          0.918721         -1.023510
      5      5  Kr       0   0.000000          3.000000          0.000000
 ---------------------------------------------------------------------------------------------------
                         Z-Matrix orientation:                         
 ---------------------------------------------------------------------
 Center     Atomic      Atomic             Coordinates (Angstroms)
 Number     Number       Type             X           Y           Z
 ---------------------------------------------------------------------
      1          8           0        0.000000    0.000000    0.725000
      2          8           0        0.000000    0.000000   -0.725000
      3          1           0        0.863315    0.314221    1.023510
      4          1           0        0.000000    0.918721   -1.023510
      5         36           0        0.000000    3.000000    0.000000
 ---------------------------------------------------------------------
                    Distance matrix (angstroms):
                    1          2          3          4          5
     1  O    0.000000
     2  O    1.450000   0.000000
     3  H    0.966000   1.975180   0.000000
     4  H    1.975180   0.966000   2.302396   0.000000
     5  Kr   3.086361   3.086361   3.001049   2.319331   0.000000
 Stoichiometry    H2KrO2
 Framework group  C1[X(H2KrO2)]
 Deg. of freedom     9
 Full point group                 C1      NOp   1
 Largest Abelian subgroup         C1      NOp   1
 Largest concise Abelian subgroup C1      NOp   1
                         Standard orientation:                         
 ---------------------------------------------------------------------
 Center     Atomic      Atomic             Coordinates (Angstroms)
 Number     Number       Type             X           Y           Z
 ---------------------------------------------------------------------
      1          8           0        2.027244   -0.704579   -0.107619
      2          8           0        2.017454    0.739726    0.020400
      3          1           0        1.727457   -1.080559    0.730189
      4          1           0        1.096833    1.029722    0.059329
      5         36           0       -0.977274   -0.006398   -0.002549
 ---------------------------------------------------------------------
 Rotational constants (GHZ):          25.7099483           2.3602095           2.1745891
 Leave Link  202 at Mon Mar 30 21:10:28 2020, MaxMem=  2147483648 cpu:               0.0 elap:               0.0
 (Enter /usr/local/g16/g16/l122.exe)
 Counterpoise: doing full-system calculation.
 Leave Link  122 at Mon Mar 30 21:10:28 2020, MaxMem=  2147483648 cpu:               0.0 elap:               0.0
 (Enter /usr/local/g16/g16/l301.exe)
 Standard basis: Aug-CC-pVTZ (5D, 7F)
 Ernie: Thresh=  0.10000D-02 Tol=  0.10000D-05 Strict=F.
 Ernie:  38 primitive shells out of 205 were deleted.
 There are   229 symmetry adapted cartesian basis functions of A   symmetry.
 There are   197 symmetry adapted basis functions of A   symmetry.
   197 basis functions,   415 primitive gaussians,   229 cartesian basis functions
    27 alpha electrons       27 beta electrons
       nuclear repulsion energy       149.9587678994 Hartrees.
 IExCor=    0 DFT=F Ex=HF Corr=None ExCW=0 ScaHFX=  1.000000
 ScaDFX=  1.000000  1.000000  1.000000  1.000000 ScalE2=  1.000000  1.000000
 IRadAn=      5 IRanWt=     -1 IRanGd=            0 ICorTp=0 IEmpDi=  4
 NAtoms=    5 NActive=    5 NUniq=    5 SFac= 1.00D+00 NAtFMM=   60 NAOKFM=F Big=F
 Integral buffers will be    131072 words long.
 Raffenetti 1 integral format.
 Two-electron integral symmetry is turned on.
 Leave Link  301 at Mon Mar 30 21:10:28 2020, MaxMem=  2147483648 cpu:               0.4 elap:               0.0
 (Enter /usr/local/g16/g16/l302.exe)
 NPDir=0 NMtPBC=     1 NCelOv=     1 NCel=       1 NClECP=     1 NCelD=      1
         NCelK=      1 NCelE2=     1 NClLst=     1 CellRange=     0.0.
 One-electron integrals computed using PRISM.
 One-electron integral symmetry used in STVInt
 NBasis=   197 RedAO= T EigKep=  2.05D-04  NBF=   197
 NBsUse=   197 1.00D-06 EigRej= -1.00D+00 NBFU=   197
 Leave Link  302 at Mon Mar 30 21:10:28 2020, MaxMem=  2147483648 cpu:               1.7 elap:               0.1
 (Enter /usr/local/g16/g16/l303.exe)
 DipDrv:  MaxL=1.
 Leave Link  303 at Mon Mar 30 21:10:28 2020, MaxMem=  2147483648 cpu:               0.4 elap:               0.0
 (Enter /usr/local/g16/g16/l401.exe)
 ExpMin= 2.53D-02 ExpMax= 1.17D+07 ExpMxC= 1.33D+04 IAcc=3 IRadAn=         5 AccDes= 0.00D+00
 Harris functional with IExCor=  205 and IRadAn=       5 diagonalized for initial guess.
 HarFok:  IExCor=  205 AccDes= 0.00D+00 IRadAn=         5 IDoV= 1 UseB2=F ITyADJ=14
 ICtDFT=  3500011 ScaDFX=  1.000000  1.000000  1.000000  1.000000
 FoFCou: FMM=F IPFlag=           0 FMFlag=      100000 FMFlg1=           0
         NFxFlg=           0 DoJE=T BraDBF=F KetDBF=T FulRan=T
         wScrn=  0.000000 ICntrl=       500 IOpCl=  0 I1Cent=   200000004 NGrid=           0
         NMat0=    1 NMatS0=      1 NMatT0=    0 NMatD0=    1 NMtDS0=    0 NMtDT0=    0
 Petite list used in FoFCou.
 Harris En= -2901.99242935018    
 JPrj=0 DoOrth=F DoCkMO=F.
 Leave Link  401 at Mon Mar 30 21:10:28 2020, MaxMem=  2147483648 cpu:               3.4 elap:               0.2
 (Enter /usr/local/g16/g16/l502.exe)
 Keep R1 ints in memory in canonical form, NReq=203137364.
 FoFCou: FMM=F IPFlag=           0 FMFlag=           0 FMFlg1=           0
         NFxFlg=           0 DoJE=F BraDBF=F KetDBF=F FulRan=T
         wScrn=  0.000000 ICntrl=       600 IOpCl=  0 I1Cent=           0 NGrid=           0
         NMat0=    1 NMatS0=  19503 NMatT0=    0 NMatD0=    1 NMtDS0=    0 NMtDT0=    0
 Symmetry not used in FoFCou.
 Two-electron integral symmetry not used.
 Closed shell SCF:
 Using DIIS extrapolation, IDIIS=  1040.
 NGot=  2147483648 LenX=  1957179903 LenY=  1957127021
 Requested convergence on RMS density matrix=1.00D-08 within 128 cycles.
 Requested convergence on MAX density matrix=1.00D-06.
 Requested convergence on             energy=1.00D-06.
 No special actions if energy rises.

 Cycle   1  Pass 1  IDiag  1:
 E= -2902.76598930210    
 DIIS: error= 4.24D-02 at cycle   1 NSaved=   1.
 NSaved= 1 IEnMin= 1 EnMin= -2902.76598930210     IErMin= 1 ErrMin= 4.24D-02
 ErrMax= 4.24D-02  0.00D+00 EMaxC= 1.00D-01 BMatC= 6.58D-01 BMatP= 6.58D-01
 IDIUse=3 WtCom= 5.76D-01 WtEn= 4.24D-01
 Coeff-Com:  0.100D+01
 Coeff-En:   0.100D+01
 Coeff:      0.100D+01
 Gap=     0.708 Goal=   None    Shift=    0.000
 GapD=    0.708 DampG=2.000 DampE=0.500 DampFc=1.0000 IDamp=-1.
 RMSDP=1.98D-03 MaxDP=1.30D-01              OVMax= 5.54D-02

 Cycle   2  Pass 1  IDiag  1:
 E= -2902.86278577906     Delta-E=       -0.096796476966 Rises=F Damp=F
 DIIS: error= 6.97D-03 at cycle   2 NSaved=   2.
 NSaved= 2 IEnMin= 2 EnMin= -2902.86278577906     IErMin= 2 ErrMin= 6.97D-03
 ErrMax= 6.97D-03  0.00D+00 EMaxC= 1.00D-01 BMatC= 3.64D-02 BMatP= 6.58D-01
 IDIUse=3 WtCom= 9.30D-01 WtEn= 6.97D-02
 Coeff-Com:  0.139D+00 0.861D+00
 Coeff-En:   0.000D+00 0.100D+01
 Coeff:      0.129D+00 0.871D+00
 Gap=     0.539 Goal=   None    Shift=    0.000
 RMSDP=7.59D-04 MaxDP=3.65D-02 DE=-9.68D-02 OVMax= 2.72D-02

 Cycle   3  Pass 1  IDiag  1:
 E= -2902.87635995402     Delta-E=       -0.013574174960 Rises=F Damp=F
 DIIS: error= 2.11D-03 at cycle   3 NSaved=   3.
 NSaved= 3 IEnMin= 3 EnMin= -2902.87635995402     IErMin= 3 ErrMin= 2.11D-03
 ErrMax= 2.11D-03  0.00D+00 EMaxC= 1.00D-01 BMatC= 2.77D-03 BMatP= 3.64D-02
 IDIUse=3 WtCom= 9.79D-01 WtEn= 2.11D-02
 Coeff-Com: -0.618D-02 0.195D+00 0.811D+00
 Coeff-En:   0.000D+00 0.000D+00 0.100D+01
 Coeff:     -0.605D-02 0.191D+00 0.815D+00
 Gap=     0.514 Goal=   None    Shift=    0.000
 RMSDP=1.36D-04 MaxDP=4.82D-03 DE=-1.36D-02 OVMax= 8.53D-03

 Cycle   4  Pass 1  IDiag  1:
 E= -2902.87778838257     Delta-E=       -0.001428428545 Rises=F Damp=F
 DIIS: error= 3.12D-04 at cycle   4 NSaved=   4.
 NSaved= 4 IEnMin= 4 EnMin= -2902.87778838257     IErMin= 4 ErrMin= 3.12D-04
 ErrMax= 3.12D-04  0.00D+00 EMaxC= 1.00D-01 BMatC= 4.85D-05 BMatP= 2.77D-03
 IDIUse=3 WtCom= 9.97D-01 WtEn= 3.12D-03
 Coeff-Com: -0.414D-02 0.134D-01 0.139D+00 0.852D+00
 Coeff-En:   0.000D+00 0.000D+00 0.000D+00 0.100D+01
 Coeff:     -0.413D-02 0.133D-01 0.138D+00 0.852D+00
 Gap=     0.516 Goal=   None    Shift=    0.000
 RMSDP=2.24D-05 MaxDP=6.68D-04 DE=-1.43D-03 OVMax= 1.76D-03

 Cycle   5  Pass 1  IDiag  1:
 E= -2902.87783112992     Delta-E=       -0.000042747356 Rises=F Damp=F
 DIIS: error= 1.00D-04 at cycle   5 NSaved=   5.
 NSaved= 5 IEnMin= 5 EnMin= -2902.87783112992     IErMin= 5 ErrMin= 1.00D-04
 ErrMax= 1.00D-04  0.00D+00 EMaxC= 1.00D-01 BMatC= 3.96D-06 BMatP= 4.85D-05
 IDIUse=3 WtCom= 9.99D-01 WtEn= 1.00D-03
 Coeff-Com:  0.906D-03-0.171D-01-0.724D-01-0.327D-02 0.109D+01
 Coeff-En:   0.000D+00 0.000D+00 0.000D+00 0.000D+00 0.100D+01
 Coeff:      0.905D-03-0.171D-01-0.723D-01-0.327D-02 0.109D+01
 Gap=     0.516 Goal=   None    Shift=    0.000
 RMSDP=1.17D-05 MaxDP=3.32D-04 DE=-4.27D-05 OVMax= 8.12D-04

 Cycle   6  Pass 1  IDiag  1:
 E= -2902.87783750442     Delta-E=       -0.000006374500 Rises=F Damp=F
 DIIS: error= 3.11D-05 at cycle   6 NSaved=   6.
 NSaved= 6 IEnMin= 6 EnMin= -2902.87783750442     IErMin= 6 ErrMin= 3.11D-05
 ErrMax= 3.11D-05  0.00D+00 EMaxC= 1.00D-01 BMatC= 3.06D-07 BMatP= 3.96D-06
 IDIUse=1 WtCom= 1.00D+00 WtEn= 0.00D+00
 Coeff-Com:  0.233D-03-0.649D-03-0.930D-02-0.599D-01 0.163D-01 0.105D+01
 Coeff:      0.233D-03-0.649D-03-0.930D-02-0.599D-01 0.163D-01 0.105D+01
 Gap=     0.516 Goal=   None    Shift=    0.000
 RMSDP=3.77D-06 MaxDP=1.29D-04 DE=-6.37D-06 OVMax= 3.42D-04

 Cycle   7  Pass 1  IDiag  1:
 E= -2902.87783813540     Delta-E=       -0.000000630980 Rises=F Damp=F
 DIIS: error= 1.53D-05 at cycle   7 NSaved=   7.
 NSaved= 7 IEnMin= 7 EnMin= -2902.87783813540     IErMin= 7 ErrMin= 1.53D-05
 ErrMax= 1.53D-05  0.00D+00 EMaxC= 1.00D-01 BMatC= 5.61D-08 BMatP= 3.06D-07
 IDIUse=1 WtCom= 1.00D+00 WtEn= 0.00D+00
 Coeff-Com: -0.370D-04 0.161D-02 0.533D-02-0.134D-01-0.108D+00 0.211D+00
 Coeff-Com:  0.903D+00
 Coeff:     -0.370D-04 0.161D-02 0.533D-02-0.134D-01-0.108D+00 0.211D+00
 Coeff:      0.903D+00
 Gap=     0.516 Goal=   None    Shift=    0.000
 RMSDP=1.43D-06 MaxDP=5.12D-05 DE=-6.31D-07 OVMax= 1.46D-04

 Cycle   8  Pass 1  IDiag  1:
 E= -2902.87783823685     Delta-E=       -0.000000101449 Rises=F Damp=F
 DIIS: error= 5.34D-06 at cycle   8 NSaved=   8.
 NSaved= 8 IEnMin= 8 EnMin= -2902.87783823685     IErMin= 8 ErrMin= 5.34D-06
 ErrMax= 5.34D-06  0.00D+00 EMaxC= 1.00D-01 BMatC= 1.08D-08 BMatP= 5.61D-08
 IDIUse=1 WtCom= 1.00D+00 WtEn= 0.00D+00
 Coeff-Com: -0.365D-04 0.315D-03 0.224D-02 0.773D-02-0.214D-01-0.146D+00
 Coeff-Com:  0.199D+00 0.957D+00
 Coeff:     -0.365D-04 0.315D-03 0.224D-02 0.773D-02-0.214D-01-0.146D+00
 Coeff:      0.199D+00 0.957D+00
 Gap=     0.516 Goal=   None    Shift=    0.000
 RMSDP=7.61D-07 MaxDP=2.28D-05 DE=-1.01D-07 OVMax= 8.73D-05

 Cycle   9  Pass 1  IDiag  1:
 E= -2902.87783826063     Delta-E=       -0.000000023776 Rises=F Damp=F
 DIIS: error= 2.08D-06 at cycle   9 NSaved=   9.
 NSaved= 9 IEnMin= 9 EnMin= -2902.87783826063     IErMin= 9 ErrMin= 2.08D-06
 ErrMax= 2.08D-06  0.00D+00 EMaxC= 1.00D-01 BMatC= 1.31D-09 BMatP= 1.08D-08
 IDIUse=1 WtCom= 1.00D+00 WtEn= 0.00D+00
 Coeff-Com:  0.134D-04-0.319D-03-0.138D-02-0.453D-03 0.206D-01 0.197D-01
 Coeff-Com: -0.189D+00-0.342D+00 0.149D+01
 Coeff:      0.134D-04-0.319D-03-0.138D-02-0.453D-03 0.206D-01 0.197D-01
 Coeff:     -0.189D+00-0.342D+00 0.149D+01
 Gap=     0.516 Goal=   None    Shift=    0.000
 RMSDP=4.08D-07 MaxDP=9.80D-06 DE=-2.38D-08 OVMax= 6.01D-05

 Cycle  10  Pass 1  IDiag  1:
 E= -2902.87783826635     Delta-E=       -0.000000005727 Rises=F Damp=F
 DIIS: error= 5.78D-07 at cycle  10 NSaved=  10.
 NSaved=10 IEnMin=10 EnMin= -2902.87783826635     IErMin=10 ErrMin= 5.78D-07
 ErrMax= 5.78D-07  0.00D+00 EMaxC= 1.00D-01 BMatC= 1.34D-10 BMatP= 1.31D-09
 IDIUse=1 WtCom= 1.00D+00 WtEn= 0.00D+00
 Coeff-Com:  0.103D-05 0.772D-04 0.165D-03-0.113D-02-0.411D-02 0.131D-01
 Coeff-Com:  0.446D-01-0.336D-02-0.558D+00 0.151D+01
 Coeff:      0.103D-05 0.772D-04 0.165D-03-0.113D-02-0.411D-02 0.131D-01
 Coeff:      0.446D-01-0.336D-02-0.558D+00 0.151D+01
 Gap=     0.516 Goal=   None    Shift=    0.000
 RMSDP=1.49D-07 MaxDP=3.70D-06 DE=-5.73D-09 OVMax= 2.29D-05

 Cycle  11  Pass 1  IDiag  1:
 E= -2902.87783826693     Delta-E=       -0.000000000573 Rises=F Damp=F
 DIIS: error= 1.52D-07 at cycle  11 NSaved=  11.
 NSaved=11 IEnMin=11 EnMin= -2902.87783826693     IErMin=11 ErrMin= 1.52D-07
 ErrMax= 1.52D-07  0.00D+00 EMaxC= 1.00D-01 BMatC= 6.35D-12 BMatP= 1.34D-10
 IDIUse=1 WtCom= 1.00D+00 WtEn= 0.00D+00
 Coeff-Com: -0.123D-05-0.516D-05 0.404D-04 0.512D-03-0.311D-03-0.644D-02
 Coeff-Com:  0.228D-02 0.306D-01 0.367D-01-0.372D+00 0.131D+01
 Coeff:     -0.123D-05-0.516D-05 0.404D-04 0.512D-03-0.311D-03-0.644D-02
 Coeff:      0.228D-02 0.306D-01 0.367D-01-0.372D+00 0.131D+01
 Gap=     0.516 Goal=   None    Shift=    0.000
 RMSDP=2.57D-08 MaxDP=5.06D-07 DE=-5.73D-10 OVMax= 3.24D-06

 Cycle  12  Pass 1  IDiag  1:
 E= -2902.87783826695     Delta-E=       -0.000000000025 Rises=F Damp=F
 DIIS: error= 3.90D-08 at cycle  12 NSaved=  12.
 NSaved=12 IEnMin=12 EnMin= -2902.87783826695     IErMin=12 ErrMin= 3.90D-08
 ErrMax= 3.90D-08  0.00D+00 EMaxC= 1.00D-01 BMatC= 4.31D-13 BMatP= 6.35D-12
 IDIUse=1 WtCom= 1.00D+00 WtEn= 0.00D+00
 Coeff-Com: -0.853D-07-0.682D-05-0.156D-04 0.120D-03 0.350D-03-0.156D-02
 Coeff-Com: -0.319D-02 0.313D-02 0.388D-01-0.117D+00-0.141D-01 0.109D+01
 Coeff:     -0.853D-07-0.682D-05-0.156D-04 0.120D-03 0.350D-03-0.156D-02
 Coeff:     -0.319D-02 0.313D-02 0.388D-01-0.117D+00-0.141D-01 0.109D+01
 Gap=     0.516 Goal=   None    Shift=    0.000
 RMSDP=5.70D-09 MaxDP=1.24D-07 DE=-2.55D-11 OVMax= 6.04D-07

 SCF Done:  E(RHF) =  -2902.87783827     A.U. after   12 cycles
            NFock= 12  Conv=0.57D-08     -V/T= 2.0001
 KE= 2.902642489850D+03 PE=-7.240050474040D+03 EE= 1.284571378024D+03
 Leave Link  502 at Mon Mar 30 21:10:32 2020, MaxMem=  2147483648 cpu:              27.2 elap:               3.5
 (Enter /usr/local/g16/g16/l801.exe)
 Windowed orbitals will be sorted by symmetry type.
 ExpMin= 2.53D-02 ExpMax= 1.17D+07 ExpMxC= 1.33D+04 IAcc=3 IRadAn=         5 AccDes= 0.00D+00
 HarFok:  IExCor=  205 AccDes= 0.00D+00 IRadAn=         5 IDoV=-2 UseB2=F ITyADJ=14
 ICtDFT= 12500011 ScaDFX=  1.000000  1.000000  1.000000  1.000000
 Largest valence mixing into a core orbital is  1.17D-04
 Largest core mixing into a valence orbital is  3.82D-05
 Range of M.O.s used for correlation:    12   197
 NBasis=   197 NAE=    27 NBE=    27 NFC=    11 NFV=     0
 NROrb=    186 NOA=    16 NOB=    16 NVA=   170 NVB=   170

 **** Warning!!: The largest alpha MO coefficient is  0.15271859D+02

 Leave Link  801 at Mon Mar 30 21:10:32 2020, MaxMem=  2147483648 cpu:               0.6 elap:               0.0
 (Enter /usr/local/g16/g16/l804.exe)
 Closed-shell transformation, MDV=  2147483648 ITran=4 ISComp=1.
 Unit  1 TFree=       1248993 TCopy=        808885.
 Semi-Direct transformation.
 ModeAB=           2 MOrb=            16 LenV=    2146360670
 LASXX=     48528660 LTotXX=    48528660 LenRXX=    48528660
 LTotAB=    49298776 MaxLAS=    78372960 LenRXY=    78372960
 NonZer=    97057320 LenScr=   146313216 LnRSAI=           0
 LnScr1=           0 LExtra=           0 Total=    273214836
 MaxDsk=          -1 SrtSym=           F ITran=            4
 DoSDTr:  NPSUse= 16
 JobTyp=0 Pass  1:  I=   1 to  16.
 (rs|ai) integrals will be sorted in core.
 Complete sort for first half transformation.
 First half transformation complete.
 Begin second half transformation for I=  10.
 Begin second half transformation for I=  10.
 Complete sort for second half transformation.
 Second half transformation complete.
 SymMOI:  orbitals are not symmetric.
 Spin components of T(2) and E(2):
     alpha-alpha T2 =       0.2607634097D-01 E2=     -0.1001642770D+00
     alpha-beta  T2 =       0.1422640064D+00 E2=     -0.5572774678D+00
     beta-beta   T2 =       0.2607634097D-01 E2=     -0.1001642770D+00
 ANorm=    0.1092893722D+01
 E2 =    -0.7576060219D+00 EUMP2 =    -0.29036354442888D+04
 Leave Link  804 at Mon Mar 30 21:10:43 2020, MaxMem=  2147483648 cpu:             178.1 elap:              11.1
 (Enter /usr/local/g16/g16/l913.exe)
 CIDS:  MDV=  2147483648.
 Frozen-core window:  NFC=  11 NFV=   0.
 IFCWin=0 IBDFC=1 NFBD=     0     0 NFCmp=     0     0 NFFFC=     0     0
 Using DD3R+UMP44R for 1st iteration.
 Using DD4RQ for 2nd and later iterations.
 Keep R2 and R3 ints in memory in canonical form, NReq=393338849.
 FoFCou: FMM=F IPFlag=           0 FMFlag=           0 FMFlg1=           0
         NFxFlg=           0 DoJE=F BraDBF=F KetDBF=F FulRan=T
         wScrn=  0.000000 ICntrl=       600 IOpCl=  0 I1Cent=           0 NGrid=           0
         NMat0=    1 NMatS0=  19503 NMatT0=    0 NMatD0=    1 NMtDS0=    0 NMtDT0=    0
 Symmetry not used in FoFCou.
 Two-electron integral symmetry not used.
 CIDS: In Core Option IDoMem=           1.
 MP4(SDTQ)
 =========
 Produce multiple copies of IABC intergrals
 DD1Dir will call FoFMem   1 times, MxPair=       272
 NAB=   136 NAA=     0 NBB=     0.
 MP4(D)= -0.14967234D-01
 MP4(S)= -0.65303364D-02
 MP4(R+Q)=  0.15510574D-01
 T4(AAA)= -0.10556119D-02
 T4(AAB)= -0.14276326D-01
 Time for triples=     1781.74 seconds.
 MP4(T)=   -0.30663876D-01
 E3=       -0.11131592D-01        EUMP3=      -0.29036465759D+04
 E4(DQ)=    0.54334048D-03        UMP4(DQ)=   -0.29036460325D+04
 E4(SDQ)=  -0.59869959D-02        UMP4(SDQ)=  -0.29036525629D+04
 E4(SDTQ)= -0.36650872D-01        UMP4(SDTQ)= -0.29036832268D+04
 VARIATIONAL ENERGIES WITH THE FIRST-ORDER WAVEFUNCTION:
 E(VAR1)=  -0.29035214475D+04     E(CISD,4)=  -0.29035207822D+04
 Largest amplitude= 3.44D-02
 Discarding MO integrals.
 Leave Link  913 at Mon Mar 30 21:12:43 2020, MaxMem=  2147483648 cpu:            1913.8 elap:             119.9
 (Enter /usr/local/g16/g16/l601.exe)
 Copying SCF densities to generalized density rwf, IOpCl= 0 IROHF=0.

 **********************************************************************

            Population analysis using the SCF density.

 **********************************************************************

 Orbital symmetries:
       Occupied  (A) (A) (A) (A) (A) (A) (A) (A) (A) (A) (A) (A)
                 (A) (A) (A) (A) (A) (A) (A) (A) (A) (A) (A) (A)
                 (A) (A) (A)
       Virtual   (A) (A) (A) (A) (A) (A) (A) (A) (A) (A) (A) (A)
                 (A) (A) (A) (A) (A) (A) (A) (A) (A) (A) (A) (A)
                 (A) (A) (A) (A) (A) (A) (A) (A) (A) (A) (A) (A)
                 (A) (A) (A) (A) (A) (A) (A) (A) (A) (A) (A) (A)
                 (A) (A) (A) (A) (A) (A) (A) (A) (A) (A) (A) (A)
                 (A) (A) (A) (A) (A) (A) (A) (A) (A) (A) (A) (A)
                 (A) (A) (A) (A) (A) (A) (A) (A) (A) (A) (A) (A)
                 (A) (A) (A) (A) (A) (A) (A) (A) (A) (A) (A) (A)
                 (A) (A) (A) (A) (A) (A) (A) (A) (A) (A) (A) (A)
                 (A) (A) (A) (A) (A) (A) (A) (A) (A) (A) (A) (A)
                 (A) (A) (A) (A) (A) (A) (A) (A) (A) (A) (A) (A)
                 (A) (A) (A) (A) (A) (A) (A) (A) (A) (A) (A) (A)
                 (A) (A) (A) (A) (A) (A) (A) (A) (A) (A) (A) (A)
                 (A) (A) (A) (A) (A) (A) (A) (A) (A) (A) (A) (A)
                 (A) (A)
 The electronic state is 1-A.
 Alpha  occ. eigenvalues -- -520.18534 -69.92290 -63.02947 -63.02946 -63.02942
 Alpha  occ. eigenvalues --  -20.63096 -20.62815 -10.86956  -8.35175  -8.35157
 Alpha  occ. eigenvalues --   -8.35139  -3.84556  -3.84552  -3.84529  -3.84510
 Alpha  occ. eigenvalues --   -3.84506  -1.46854  -1.21773  -1.17575  -0.75227
 Alpha  occ. eigenvalues --   -0.67478  -0.60172  -0.55224  -0.54483  -0.53905
 Alpha  occ. eigenvalues --   -0.51778  -0.48142
 Alpha virt. eigenvalues --    0.03464   0.04539   0.08706   0.09688   0.11616
 Alpha virt. eigenvalues --    0.12808   0.14404   0.15664   0.18042   0.18857
 Alpha virt. eigenvalues --    0.19092   0.21144   0.22673   0.25874   0.26681
 Alpha virt. eigenvalues --    0.27767   0.28160   0.31238   0.33696   0.34354
 Alpha virt. eigenvalues --    0.35692   0.37469   0.39723   0.41468   0.42128
 Alpha virt. eigenvalues --    0.44065   0.46583   0.51350   0.57057   0.58925
 Alpha virt. eigenvalues --    0.59843   0.65239   0.66333   0.68874   0.73125
 Alpha virt. eigenvalues --    0.76214   0.77388   0.78907   0.81206   0.82321
 Alpha virt. eigenvalues --    0.82875   0.83826   0.86262   0.86647   0.89271
 Alpha virt. eigenvalues --    0.90281   0.91982   0.93704   0.95348   0.97815
 Alpha virt. eigenvalues --    0.99030   1.00215   1.01560   1.02554   1.04669
 Alpha virt. eigenvalues --    1.05108   1.10645   1.13917   1.15130   1.17444
 Alpha virt. eigenvalues --    1.18243   1.21787   1.23509   1.30219   1.32529
 Alpha virt. eigenvalues --    1.33711   1.40798   1.45424   1.47224   1.50218
 Alpha virt. eigenvalues --    1.51714   1.57052   1.59496   1.63815   1.69419
 Alpha virt. eigenvalues --    1.79321   1.82899   1.96606   2.06815   2.08375
 Alpha virt. eigenvalues --    2.16022   2.17174   2.21204   2.26436   2.32827
 Alpha virt. eigenvalues --    2.33779   2.36637   2.37433   2.41662   2.43451
 Alpha virt. eigenvalues --    2.44267   2.46028   2.48385   2.52430   2.52736
 Alpha virt. eigenvalues --    2.55013   2.58235   2.63825   2.65455   2.67499
 Alpha virt. eigenvalues --    2.68347   2.69549   2.70161   2.75495   2.77018
 Alpha virt. eigenvalues --    2.78339   2.78607   2.82906   2.88964   2.90440
 Alpha virt. eigenvalues --    2.91259   2.93099   2.96713   3.03967   3.07795
 Alpha virt. eigenvalues --    3.13830   3.21926   3.30253   3.31816   3.82689
 Alpha virt. eigenvalues --    3.90107   4.13533   4.21098   4.25025   4.28508
 Alpha virt. eigenvalues --    4.32839   4.40427   4.44903   4.48146   4.51477
 Alpha virt. eigenvalues --    4.55669   4.75952   4.83115   4.87154   4.96973
 Alpha virt. eigenvalues --    5.19253   5.23554   5.25256   5.40677   5.43355
 Alpha virt. eigenvalues --    5.46737   5.79666   6.18492   6.36613   6.47757
 Alpha virt. eigenvalues --    6.53956   6.59631   6.67080   6.76829   6.84879
 Alpha virt. eigenvalues --    6.98123   7.16350   7.16937   7.20636   7.22174
 Alpha virt. eigenvalues --    7.25349   7.29062   7.32684   7.34099   7.39167
 Alpha virt. eigenvalues --    7.47564   7.53030   7.61737   7.85665   7.94194
 Alpha virt. eigenvalues --    8.21148   8.49934   8.54398  14.75438  15.32366
          Condensed to atoms (all electrons):
               1          2          3          4          5
     1  O    8.131049  -0.081411   0.238343  -0.005196  -0.020144
     2  O   -0.081411   8.148273   0.007199   0.237823  -0.015724
     3  H    0.238343   0.007199   0.492390  -0.001731  -0.002298
     4  H   -0.005196   0.237823  -0.001731   0.493567  -0.004761
     5  Kr  -0.020144  -0.015724  -0.002298  -0.004761  36.030518
 Mulliken charges:
               1
     1  O   -0.262641
     2  O   -0.296161
     3  H    0.266096
     4  H    0.280298
     5  Kr   0.012409
 Sum of Mulliken charges =  -0.00000
 Mulliken charges with hydrogens summed into heavy atoms:
               1
     1  O    0.003454
     2  O   -0.015863
     5  Kr   0.012409
         Mulliken charges condensed to fragments:
      1     -0.012409
      2      0.012409
 Electronic spatial extent (au):  <R**2>=            481.2217
 Charge=             -0.0000 electrons
 Dipole moment (field-independent basis, Debye):
    X=             -2.4226    Y=             -0.3184    Z=              1.4310  Tot=              2.8316
 Quadrupole moment (field-independent basis, Debye-Ang):
   XX=            -37.0082   YY=            -27.8349   ZZ=            -28.9936
   XY=             -1.5663   XZ=              2.5742   YZ=             -1.8113
 Traceless Quadrupole moment (field-independent basis, Debye-Ang):
   XX=             -5.7293   YY=              3.4440   ZZ=              2.2853
   XY=             -1.5663   XZ=              2.5742   YZ=             -1.8113
 Octapole moment (field-independent basis, Debye-Ang**2):
  XXX=            -39.7735  YYY=             -0.8874  ZZZ=              1.0680  XYY=             -5.7757
  XXY=             -4.3983  XXZ=              3.8356  XZZ=             -5.5775  YZZ=             -1.6744
  YYZ=              2.2450  XYZ=             -3.2199
 Hexadecapole moment (field-independent basis, Debye-Ang**3):
 XXXX=           -459.7372 YYYY=            -62.0946 ZZZZ=            -28.8698 XXXY=             -7.9583
 XXXZ=              6.8351 YYYX=             -2.9861 YYYZ=             -2.6769 ZZZX=              2.3322
 ZZZY=             -1.8848 XXYY=            -82.7606 XXZZ=            -72.1855 YYZZ=            -15.6061
 XXYZ=             -5.8673 YYXZ=              3.9084 ZZXY=             -2.8665
 N-N= 1.499587678994D+02 E-N=-7.240050475171D+03  KE= 2.902642489850D+03
 Leave Link  601 at Mon Mar 30 21:12:44 2020, MaxMem=  2147483648 cpu:               0.5 elap:               0.0
 (Enter /usr/local/g16/g16/l122.exe)
 CPIOFr:  IOpCl= 0 IRwI=-1 IRwCP=  731 ICalc= -1 LCPTot=       59414 Len1MO=      159453 IndFrg=       59414
 CPIOFr:  IOpCl= 0 IRwI=-1 IRwCP=  731 ICalc=  0 LCPTot=       59414 Len1MO=      159453 IndFrg=      218867
 Counterpoise: doing calculation for fragment   1 using the basis set of the full-system, NewBq=T
 Leave Link  122 at Mon Mar 30 21:12:44 2020, MaxMem=  2147483648 cpu:               0.0 elap:               0.0
 (Enter /usr/local/g16/g16/l301.exe)
 Basis read from rwf:  (5D, 7F)
 No pseudopotential information found on rwf file.
 There are   229 symmetry adapted cartesian basis functions of A   symmetry.
 There are   197 symmetry adapted basis functions of A   symmetry.
   197 basis functions,   415 primitive gaussians,   229 cartesian basis functions
     9 alpha electrons        9 beta electrons
       nuclear repulsion energy        36.6380792790 Hartrees.
 IExCor=    0 DFT=F Ex=HF Corr=None ExCW=0 ScaHFX=  1.000000
 ScaDFX=  1.000000  1.000000  1.000000  1.000000 ScalE2=  1.000000  1.000000
 IRadAn=      5 IRanWt=     -1 IRanGd=            0 ICorTp=0 IEmpDi=  4
 NAtoms=    5 NActive=    5 NUniq=    5 SFac= 1.00D+00 NAtFMM=   60 NAOKFM=F Big=F
 Integral buffers will be    131072 words long.
 Raffenetti 1 integral format.
 Two-electron integral symmetry is turned on.
 No density basis found on file   718.
 Leave Link  301 at Mon Mar 30 21:12:44 2020, MaxMem=  2147483648 cpu:               0.4 elap:               0.0
 (Enter /usr/local/g16/g16/l302.exe)
 NPDir=0 NMtPBC=     1 NCelOv=     1 NCel=       1 NClECP=     1 NCelD=      1
         NCelK=      1 NCelE2=     1 NClLst=     1 CellRange=     0.0.
 One-electron integrals computed using PRISM.
 One-electron integral symmetry used in STVInt
 NBasis=   197 RedAO= T EigKep=  2.05D-04  NBF=   197
 NBsUse=   197 1.00D-06 EigRej= -1.00D+00 NBFU=   197
 Leave Link  302 at Mon Mar 30 21:12:44 2020, MaxMem=  2147483648 cpu:               1.7 elap:               0.1
 (Enter /usr/local/g16/g16/l303.exe)
 DipDrv:  MaxL=1.
 Leave Link  303 at Mon Mar 30 21:12:44 2020, MaxMem=  2147483648 cpu:               0.4 elap:               0.0
 (Enter /usr/local/g16/g16/l401.exe)
 ExpMin= 2.53D-02 ExpMax= 1.17D+07 ExpMxC= 1.33D+04 IAcc=3 IRadAn=         5 AccDes= 0.00D+00
 Harris functional with IExCor=  205 and IRadAn=       5 diagonalized for initial guess.
 HarFok:  IExCor=  205 AccDes= 0.00D+00 IRadAn=         5 IDoV= 1 UseB2=F ITyADJ=14
 ICtDFT=  3500011 ScaDFX=  1.000000  1.000000  1.000000  1.000000
 FoFCou: FMM=F IPFlag=           0 FMFlag=      100000 FMFlg1=           0
         NFxFlg=           0 DoJE=T BraDBF=F KetDBF=T FulRan=T
         wScrn=  0.000000 ICntrl=       500 IOpCl=  0 I1Cent=   200000004 NGrid=           0
         NMat0=    1 NMatS0=      1 NMatT0=    0 NMatD0=    1 NMtDS0=    0 NMtDT0=    0
 Petite list used in FoFCou.
 Harris En= -150.935845169137    
 JPrj=0 DoOrth=F DoCkMO=F.
 Leave Link  401 at Mon Mar 30 21:12:44 2020, MaxMem=  2147483648 cpu:               3.2 elap:               0.2
 (Enter /usr/local/g16/g16/l502.exe)
 Keep R1 ints in memory in canonical form, NReq=203137364.
 FoFCou: FMM=F IPFlag=           0 FMFlag=           0 FMFlg1=           0
         NFxFlg=           0 DoJE=F BraDBF=F KetDBF=F FulRan=T
         wScrn=  0.000000 ICntrl=       600 IOpCl=  0 I1Cent=           0 NGrid=           0
         NMat0=    1 NMatS0=  19503 NMatT0=    0 NMatD0=    1 NMtDS0=    0 NMtDT0=    0
 Symmetry not used in FoFCou.
 Two-electron integral symmetry not used.
 Closed shell SCF:
 Using DIIS extrapolation, IDIIS=  1040.
 NGot=  2147483648 LenX=  1957179903 LenY=  1957127021
 Requested convergence on RMS density matrix=1.00D-08 within 128 cycles.
 Requested convergence on MAX density matrix=1.00D-06.
 Requested convergence on             energy=1.00D-06.
 No special actions if energy rises.

 Cycle   1  Pass 1  IDiag  1:
 E= -150.771110525979    
 DIIS: error= 1.97D-02 at cycle   1 NSaved=   1.
 NSaved= 1 IEnMin= 1 EnMin= -150.771110525979     IErMin= 1 ErrMin= 1.97D-02
 ErrMax= 1.97D-02  0.00D+00 EMaxC= 1.00D-01 BMatC= 2.29D-01 BMatP= 2.29D-01
 IDIUse=3 WtCom= 8.03D-01 WtEn= 1.97D-01
 Coeff-Com:  0.100D+01
 Coeff-En:   0.100D+01
 Coeff:      0.100D+01
 Gap=     0.712 Goal=   None    Shift=    0.000
 GapD=    0.712 DampG=2.000 DampE=0.500 DampFc=1.0000 IDamp=-1.
 RMSDP=9.05D-04 MaxDP=2.89D-02              OVMax= 6.55D-02

 Cycle   2  Pass 1  IDiag  1:
 E= -150.824662644076     Delta-E=       -0.053552118097 Rises=F Damp=F
 DIIS: error= 6.85D-03 at cycle   2 NSaved=   2.
 NSaved= 2 IEnMin= 2 EnMin= -150.824662644076     IErMin= 2 ErrMin= 6.85D-03
 ErrMax= 6.85D-03  0.00D+00 EMaxC= 1.00D-01 BMatC= 1.66D-02 BMatP= 2.29D-01
 IDIUse=3 WtCom= 9.31D-01 WtEn= 6.85D-02
 Coeff-Com:  0.109D+00 0.891D+00
 Coeff-En:   0.000D+00 0.100D+01
 Coeff:      0.101D+00 0.899D+00
 Gap=     0.538 Goal=   None    Shift=    0.000
 RMSDP=5.06D-04 MaxDP=2.54D-02 DE=-5.36D-02 OVMax= 2.90D-02

 Cycle   3  Pass 1  IDiag  1:
 E= -150.833075975389     Delta-E=       -0.008413331314 Rises=F Damp=F
 DIIS: error= 2.35D-03 at cycle   3 NSaved=   3.
 NSaved= 3 IEnMin= 3 EnMin= -150.833075975389     IErMin= 3 ErrMin= 2.35D-03
 ErrMax= 2.35D-03  0.00D+00 EMaxC= 1.00D-01 BMatC= 2.37D-03 BMatP= 1.66D-02
 IDIUse=3 WtCom= 9.76D-01 WtEn= 2.35D-02
 Coeff-Com: -0.210D-01 0.253D+00 0.768D+00
 Coeff-En:   0.000D+00 0.000D+00 0.100D+01
 Coeff:     -0.205D-01 0.247D+00 0.773D+00
 Gap=     0.509 Goal=   None    Shift=    0.000
 RMSDP=1.14D-04 MaxDP=4.18D-03 DE=-8.41D-03 OVMax= 9.34D-03

 Cycle   4  Pass 1  IDiag  1:
 E= -150.834558315685     Delta-E=       -0.001482340296 Rises=F Damp=F
 DIIS: error= 2.11D-04 at cycle   4 NSaved=   4.
 NSaved= 4 IEnMin= 4 EnMin= -150.834558315685     IErMin= 4 ErrMin= 2.11D-04
 ErrMax= 2.11D-04  0.00D+00 EMaxC= 1.00D-01 BMatC= 1.50D-05 BMatP= 2.37D-03
 IDIUse=3 WtCom= 9.98D-01 WtEn= 2.11D-03
 Coeff-Com: -0.180D-02-0.104D-01 0.562D-02 0.101D+01
 Coeff-En:   0.000D+00 0.000D+00 0.000D+00 0.100D+01
 Coeff:     -0.180D-02-0.104D-01 0.560D-02 0.101D+01
 Gap=     0.511 Goal=   None    Shift=    0.000
 RMSDP=1.70D-05 MaxDP=4.39D-04 DE=-1.48D-03 OVMax= 1.42D-03

 Cycle   5  Pass 1  IDiag  1:
 E= -150.834580672376     Delta-E=       -0.000022356691 Rises=F Damp=F
 DIIS: error= 7.29D-05 at cycle   5 NSaved=   5.
 NSaved= 5 IEnMin= 5 EnMin= -150.834580672376     IErMin= 5 ErrMin= 7.29D-05
 ErrMax= 7.29D-05  0.00D+00 EMaxC= 1.00D-01 BMatC= 1.59D-06 BMatP= 1.50D-05
 IDIUse=1 WtCom= 1.00D+00 WtEn= 0.00D+00
 Coeff-Com:  0.173D-02-0.169D-01-0.582D-01-0.166D+00 0.124D+01
 Coeff:      0.173D-02-0.169D-01-0.582D-01-0.166D+00 0.124D+01
 Gap=     0.511 Goal=   None    Shift=    0.000
 RMSDP=9.53D-06 MaxDP=2.84D-04 DE=-2.24D-05 OVMax= 9.25D-04

 Cycle   6  Pass 1  IDiag  1:
 E= -150.834584708877     Delta-E=       -0.000004036500 Rises=F Damp=F
 DIIS: error= 2.03D-05 at cycle   6 NSaved=   6.
 NSaved= 6 IEnMin= 6 EnMin= -150.834584708877     IErMin= 6 ErrMin= 2.03D-05
 ErrMax= 2.03D-05  0.00D+00 EMaxC= 1.00D-01 BMatC= 9.30D-08 BMatP= 1.59D-06
 IDIUse=1 WtCom= 1.00D+00 WtEn= 0.00D+00
 Coeff-Com: -0.518D-03 0.618D-02 0.220D-01 0.325D-01-0.520D+00 0.146D+01
 Coeff:     -0.518D-03 0.618D-02 0.220D-01 0.325D-01-0.520D+00 0.146D+01
 Gap=     0.511 Goal=   None    Shift=    0.000
 RMSDP=3.26D-06 MaxDP=8.55D-05 DE=-4.04D-06 OVMax= 3.83D-04

 Cycle   7  Pass 1  IDiag  1:
 E= -150.834585035446     Delta-E=       -0.000000326569 Rises=F Damp=F
 DIIS: error= 4.75D-06 at cycle   7 NSaved=   7.
 NSaved= 7 IEnMin= 7 EnMin= -150.834585035446     IErMin= 7 ErrMin= 4.75D-06
 ErrMax= 4.75D-06  0.00D+00 EMaxC= 1.00D-01 BMatC= 6.61D-09 BMatP= 9.30D-08
 IDIUse=1 WtCom= 1.00D+00 WtEn= 0.00D+00
 Coeff-Com:  0.130D-03-0.179D-02-0.691D-02-0.507D-02 0.162D+00-0.614D+00
 Coeff-Com:  0.147D+01
 Coeff:      0.130D-03-0.179D-02-0.691D-02-0.507D-02 0.162D+00-0.614D+00
 Coeff:      0.147D+01
 Gap=     0.511 Goal=   None    Shift=    0.000
 RMSDP=8.66D-07 MaxDP=1.95D-05 DE=-3.27D-07 OVMax= 1.25D-04

 Cycle   8  Pass 1  IDiag  1:
 E= -150.834585062421     Delta-E=       -0.000000026975 Rises=F Damp=F
 DIIS: error= 1.51D-06 at cycle   8 NSaved=   8.
 NSaved= 8 IEnMin= 8 EnMin= -150.834585062421     IErMin= 8 ErrMin= 1.51D-06
 ErrMax= 1.51D-06  0.00D+00 EMaxC= 1.00D-01 BMatC= 9.26D-10 BMatP= 6.61D-09
 IDIUse=1 WtCom= 1.00D+00 WtEn= 0.00D+00
 Coeff-Com: -0.422D-05 0.198D-03 0.113D-02-0.260D-02-0.206D-01 0.155D+00
 Coeff-Com: -0.819D+00 0.169D+01
 Coeff:     -0.422D-05 0.198D-03 0.113D-02-0.260D-02-0.206D-01 0.155D+00
 Coeff:     -0.819D+00 0.169D+01
 Gap=     0.511 Goal=   None    Shift=    0.000
 RMSDP=3.87D-07 MaxDP=1.05D-05 DE=-2.70D-08 OVMax= 6.41D-05

 Cycle   9  Pass 1  IDiag  1:
 E= -150.834585066651     Delta-E=       -0.000000004230 Rises=F Damp=F
 DIIS: error= 4.29D-07 at cycle   9 NSaved=   9.
 NSaved= 9 IEnMin= 9 EnMin= -150.834585066651     IErMin= 9 ErrMin= 4.29D-07
 ErrMax= 4.29D-07  0.00D+00 EMaxC= 1.00D-01 BMatC= 7.71D-11 BMatP= 9.26D-10
 IDIUse=1 WtCom= 1.00D+00 WtEn= 0.00D+00
 Coeff-Com: -0.959D-05 0.151D-03 0.629D-03 0.308D-03-0.153D-01 0.673D-01
 Coeff-Com: -0.219D+00 0.243D+00 0.923D+00
 Coeff:     -0.959D-05 0.151D-03 0.629D-03 0.308D-03-0.153D-01 0.673D-01
 Coeff:     -0.219D+00 0.243D+00 0.923D+00
 Gap=     0.511 Goal=   None    Shift=    0.000
 RMSDP=6.19D-08 MaxDP=2.01D-06 DE=-4.23D-09 OVMax= 9.14D-06

 Cycle  10  Pass 1  IDiag  1:
 E= -150.834585066807     Delta-E=       -0.000000000156 Rises=F Damp=F
 DIIS: error= 2.36D-07 at cycle  10 NSaved=  10.
 NSaved=10 IEnMin=10 EnMin= -150.834585066807     IErMin=10 ErrMin= 2.36D-07
 ErrMax= 2.36D-07  0.00D+00 EMaxC= 1.00D-01 BMatC= 1.90D-11 BMatP= 7.71D-11
 IDIUse=1 WtCom= 1.00D+00 WtEn= 0.00D+00
 Coeff-Com: -0.165D-05-0.991D-05-0.123D-03 0.998D-03 0.279D-03-0.198D-01
 Coeff-Com:  0.150D+00-0.371D+00 0.257D+00 0.983D+00
 Coeff:     -0.165D-05-0.991D-05-0.123D-03 0.998D-03 0.279D-03-0.198D-01
 Coeff:      0.150D+00-0.371D+00 0.257D+00 0.983D+00
 Gap=     0.511 Goal=   None    Shift=    0.000
 RMSDP=3.17D-08 MaxDP=9.91D-07 DE=-1.56D-10 OVMax= 4.32D-06

 Cycle  11  Pass 1  IDiag  1:
 E= -150.834585066842     Delta-E=       -0.000000000034 Rises=F Damp=F
 DIIS: error= 4.24D-08 at cycle  11 NSaved=  11.
 NSaved=11 IEnMin=11 EnMin= -150.834585066842     IErMin=11 ErrMin= 4.24D-08
 ErrMax= 4.24D-08  0.00D+00 EMaxC= 1.00D-01 BMatC= 4.37D-13 BMatP= 1.90D-11
 IDIUse=1 WtCom= 1.00D+00 WtEn= 0.00D+00
 Coeff-Com:  0.107D-05-0.118D-04-0.334D-04-0.987D-04 0.945D-03-0.182D-02
 Coeff-Com: -0.723D-02 0.371D-01-0.957D-01-0.130D+00 0.120D+01
 Coeff:      0.107D-05-0.118D-04-0.334D-04-0.987D-04 0.945D-03-0.182D-02
 Coeff:     -0.723D-02 0.371D-01-0.957D-01-0.130D+00 0.120D+01
 Gap=     0.511 Goal=   None    Shift=    0.000
 RMSDP=5.98D-09 MaxDP=1.33D-07 DE=-3.43D-11 OVMax= 6.89D-07

 SCF Done:  E(RHF) =  -150.834585067     A.U. after   11 cycles
            NFock= 11  Conv=0.60D-08     -V/T= 2.0020
 KE= 1.505284317831D+02 PE=-4.314747454304D+02 EE= 9.347364930142D+01
 Leave Link  502 at Mon Mar 30 21:12:47 2020, MaxMem=  2147483648 cpu:              27.1 elap:               3.3
 (Enter /usr/local/g16/g16/l801.exe)
 Windowed orbitals will be sorted by symmetry type.
 ExpMin= 2.53D-02 ExpMax= 1.17D+07 ExpMxC= 1.33D+04 IAcc=3 IRadAn=         5 AccDes= 0.00D+00
 HarFok:  IExCor=  205 AccDes= 0.00D+00 IRadAn=         5 IDoV=-2 UseB2=F ITyADJ=14
 ICtDFT= 12500011 ScaDFX=  1.000000  1.000000  1.000000  1.000000
 Largest valence mixing into a core orbital is  1.19D-04
 Largest core mixing into a valence orbital is  2.07D-05
 Range of M.O.s used for correlation:     3   197
 NBasis=   197 NAE=     9 NBE=     9 NFC=     2 NFV=     0
 NROrb=    195 NOA=     7 NOB=     7 NVA=   188 NVB=   188

 **** Warning!!: The largest alpha MO coefficient is  0.13408083D+02

 Leave Link  801 at Mon Mar 30 21:12:47 2020, MaxMem=  2147483648 cpu:               0.6 elap:               0.0
 (Enter /usr/local/g16/g16/l804.exe)
 Closed-shell transformation, MDV=  2147483648 ITran=4 ISComp=1.
 Semi-Direct transformation.
 ModeAB=           2 MOrb=             7 LenV=    2146280687
 LASXX=     25261509 LTotXX=    25261509 LenRXX=    25261509
 LTotAB=    25646992 MaxLAS=    35947275 LenRXY=    35947275
 NonZer=    50523018 LenScr=    76544000 LnRSAI=           0
 LnScr1=           0 LExtra=           0 Total=    137752784
 MaxDsk=          -1 SrtSym=           F ITran=            4
 DoSDTr:  NPSUse= 16
 JobTyp=0 Pass  1:  I=   1 to   7.
 (rs|ai) integrals will be sorted in core.
 Complete sort for first half transformation.
 First half transformation complete.
 Complete sort for second half transformation.
 Second half transformation complete.
 SymMOI:  orbitals are not symmetric.
 Spin components of T(2) and E(2):
     alpha-alpha T2 =       0.1604759499D-01 E2=     -0.6287522791D-01
     alpha-beta  T2 =       0.9337861494D-01 E2=     -0.3822224413D+00
     beta-beta   T2 =       0.1604759499D-01 E2=     -0.6287522791D-01
 ANorm=    0.1060883502D+01
 E2 =    -0.5079728971D+00 EUMP2 =    -0.15134255796391D+03
 Leave Link  804 at Mon Mar 30 21:12:55 2020, MaxMem=  2147483648 cpu:             124.0 elap:               7.8
 (Enter /usr/local/g16/g16/l913.exe)
 CIDS:  MDV=  2147483648.
 Frozen-core window:  NFC=   2 NFV=   0.
 IFCWin=0 IBDFC=1 NFBD=     0     0 NFCmp=     0     0 NFFFC=     0     0
 Using DD3R+UMP44R for 1st iteration.
 Using DD4RQ for 2nd and later iterations.
 Keep R2 and R3 ints in memory in canonical form, NReq=393336041.
 FoFCou: FMM=F IPFlag=           0 FMFlag=           0 FMFlg1=           0
         NFxFlg=           0 DoJE=F BraDBF=F KetDBF=F FulRan=T
         wScrn=  0.000000 ICntrl=       600 IOpCl=  0 I1Cent=           0 NGrid=           0
         NMat0=    1 NMatS0=  19503 NMatT0=    0 NMatD0=    1 NMtDS0=    0 NMtDT0=    0
 Symmetry not used in FoFCou.
 Two-electron integral symmetry not used.
 CIDS: In Core Option IDoMem=           1.
 MP4(SDTQ)
 =========
 Produce multiple copies of IABC intergrals
 DD1Dir will call FoFMem   1 times, MxPair=        56
 NAB=    28 NAA=     0 NBB=     0.
 MP4(D)= -0.11270462D-01
 MP4(S)= -0.52271991D-02
 MP4(R+Q)=  0.10801359D-01
 T4(AAA)= -0.66311234D-03
 T4(AAB)= -0.10303972D-01
 Time for triples=      374.00 seconds.
 MP4(T)=   -0.21934169D-01
 E3=       -0.20183361D-02        EUMP3=      -0.15134457630D+03
 E4(DQ)=   -0.46910229D-03        UMP4(DQ)=   -0.15134504540D+03
 E4(SDQ)=  -0.56963013D-02        UMP4(SDQ)=  -0.15135027260D+03
 E4(SDTQ)= -0.27630470D-01        UMP4(SDTQ)= -0.15137220677D+03
 VARIATIONAL ENERGIES WITH THE FIRST-ORDER WAVEFUNCTION:
 E(VAR1)=  -0.15128771977D+03     E(CISD,4)=  -0.15129733667D+03
 Largest amplitude= 2.89D-02
 Discarding MO integrals.
 Leave Link  913 at Mon Mar 30 21:13:22 2020, MaxMem=  2147483648 cpu:             431.0 elap:              27.0
 (Enter /usr/local/g16/g16/l601.exe)
 Copying SCF densities to generalized density rwf, IOpCl= 0 IROHF=0.

 **********************************************************************

            Population analysis using the SCF density.

 **********************************************************************

 Orbital symmetries:
       Occupied  (A) (A) (A) (A) (A) (A) (A) (A) (A)
       Virtual   (A) (A) (A) (A) (A) (A) (A) (A) (A) (A) (A) (A)
                 (A) (A) (A) (A) (A) (A) (A) (A) (A) (A) (A) (A)
                 (A) (A) (A) (A) (A) (A) (A) (A) (A) (A) (A) (A)
                 (A) (A) (A) (A) (A) (A) (A) (A) (A) (A) (A) (A)
                 (A) (A) (A) (A) (A) (A) (A) (A) (A) (A) (A) (A)
                 (A) (A) (A) (A) (A) (A) (A) (A) (A) (A) (A) (A)
                 (A) (A) (A) (A) (A) (A) (A) (A) (A) (A) (A) (A)
                 (A) (A) (A) (A) (A) (A) (A) (A) (A) (A) (A) (A)
                 (A) (A) (A) (A) (A) (A) (A) (A) (A) (A) (A) (A)
                 (A) (A) (A) (A) (A) (A) (A) (A) (A) (A) (A) (A)
                 (A) (A) (A) (A) (A) (A) (A) (A) (A) (A) (A) (A)
                 (A) (A) (A) (A) (A) (A) (A) (A) (A) (A) (A) (A)
                 (A) (A) (A) (A) (A) (A) (A) (A) (A) (A) (A) (A)
                 (A) (A) (A) (A) (A) (A) (A) (A) (A) (A) (A) (A)
                 (A) (A) (A) (A) (A) (A) (A) (A) (A) (A) (A) (A)
                 (A) (A) (A) (A) (A) (A) (A) (A)
 The electronic state is 1-A.
 Alpha  occ. eigenvalues --  -20.63464 -20.63436  -1.47115  -1.22023  -0.75204
 Alpha  occ. eigenvalues --   -0.67388  -0.60215  -0.52537  -0.48569
 Alpha virt. eigenvalues --    0.02535   0.04065   0.07181   0.08234   0.10323
 Alpha virt. eigenvalues --    0.10843   0.13343   0.15081   0.17705   0.18213
 Alpha virt. eigenvalues --    0.19078   0.21037   0.22867   0.26666   0.27208
 Alpha virt. eigenvalues --    0.28198   0.30793   0.31374   0.34103   0.34633
 Alpha virt. eigenvalues --    0.34996   0.36823   0.37931   0.41252   0.42433
 Alpha virt. eigenvalues --    0.44144   0.45506   0.48096   0.49525   0.51408
 Alpha virt. eigenvalues --    0.55060   0.58916   0.64958   0.66678   0.70320
 Alpha virt. eigenvalues --    0.74693   0.78824   0.80856   0.81662   0.84024
 Alpha virt. eigenvalues --    0.85250   0.86627   0.91488   0.93674   0.95267
 Alpha virt. eigenvalues --    0.96408   0.97573   0.98994   1.01322   1.02271
 Alpha virt. eigenvalues --    1.03290   1.05061   1.07798   1.13050   1.14378
 Alpha virt. eigenvalues --    1.17154   1.18085   1.22912   1.25056   1.27701
 Alpha virt. eigenvalues --    1.29473   1.30648   1.31725   1.33065   1.34440
 Alpha virt. eigenvalues --    1.35778   1.36246   1.40835   1.43252   1.44485
 Alpha virt. eigenvalues --    1.50954   1.54801   1.56269   1.57610   1.60341
 Alpha virt. eigenvalues --    1.65224   1.69942   1.71465   1.80826   1.86420
 Alpha virt. eigenvalues --    1.89793   1.97777   2.07560   2.10963   2.16826
 Alpha virt. eigenvalues --    2.17911   2.22928   2.30241   2.34595   2.36535
 Alpha virt. eigenvalues --    2.42668   2.43673   2.47243   2.50882   2.52483
 Alpha virt. eigenvalues --    2.65317   2.68663   2.72100   2.75819   2.78022
 Alpha virt. eigenvalues --    2.82310   2.89230   2.95676   3.05851   3.12001
 Alpha virt. eigenvalues --    3.19022   3.25314   3.27730   3.28825   3.32045
 Alpha virt. eigenvalues --    3.44614   3.58166   3.76473   3.77815   3.79213
 Alpha virt. eigenvalues --    3.81397   3.81911   3.82078   3.83250   3.88139
 Alpha virt. eigenvalues --    3.91445   3.93583   3.97048   4.00019   4.02669
 Alpha virt. eigenvalues --    4.14983   4.18133   4.24882   4.26878   4.33857
 Alpha virt. eigenvalues --    4.35981   4.45925   4.48107   4.48744   4.54283
 Alpha virt. eigenvalues --    4.56155   4.76545   4.87517   4.96377   5.18847
 Alpha virt. eigenvalues --    5.23726   5.25193   5.40660   5.43257   5.46768
 Alpha virt. eigenvalues --    5.79222   6.18141   6.35775   6.47539   6.53725
 Alpha virt. eigenvalues --    6.59401   6.66810   6.76575   6.84687   6.97826
 Alpha virt. eigenvalues --    7.15965   7.16635   7.20142   7.21845   7.25017
 Alpha virt. eigenvalues --    7.28670   7.32407   7.33741   7.38737   7.47164
 Alpha virt. eigenvalues --    7.52686   7.61265   7.85252   7.93874   8.20739
 Alpha virt. eigenvalues --    8.49599   8.53030  10.91782  14.74380  14.82722
 Alpha virt. eigenvalues --   14.87840  15.08153  15.33594  29.02278  29.02523
 Alpha virt. eigenvalues --   29.07081  29.13309  29.22436  49.11348 148.30964
 Alpha virt. eigenvalues --  148.38973 148.70862 752.54827
          Condensed to atoms (all electrons):
               1          2          3          4          5
     1  O    8.101498  -0.079399   0.240988  -0.004527   0.000968
     2  O   -0.079399   8.130063   0.006836   0.232155  -0.001792
     3  H    0.240988   0.006836   0.492241  -0.001123  -0.001458
     4  H   -0.004527   0.232155  -0.001123   0.496479  -0.003368
     5  Kr   0.000968  -0.001792  -0.001458  -0.003368   0.001157
 Mulliken charges:
               1
     1  O   -0.259528
     2  O   -0.287863
     3  H    0.262515
     4  H    0.280384
     5  Kr   0.004492
 Sum of Mulliken charges =   0.00000
 Mulliken charges with hydrogens summed into heavy atoms:
               1
     1  O    0.002987
     2  O   -0.007479
     5  Kr   0.004492
         Mulliken charges condensed to fragments:
      1     -0.004492
      2      0.004492
 Electronic spatial extent (au):  <R**2>=            319.0093
 Charge=             -0.0000 electrons
 Dipole moment (field-independent basis, Debye):
    X=             -2.1925    Y=             -0.1541    Z=              1.5743  Tot=              2.7035
 Quadrupole moment (field-independent basis, Debye-Ang):
   XX=            -19.2817   YY=            -10.1562   ZZ=            -11.3712
   XY=             -1.6782   XZ=              2.4698   YZ=             -1.8360
 Traceless Quadrupole moment (field-independent basis, Debye-Ang):
   XX=             -5.6787   YY=              3.4469   ZZ=              2.2318
   XY=             -1.6782   XZ=              2.4698   YZ=             -1.8360
 Octapole moment (field-independent basis, Debye-Ang**2):
  XXX=            -90.1469  YYY=             -1.0423  ZZZ=              1.1796  XYY=            -22.8665
  XXY=             -4.2895  XXZ=              3.9345  XZZ=            -22.7339  YZZ=             -1.7281
  YYZ=              2.2850  XYZ=             -3.2242
 Hexadecapole moment (field-independent basis, Debye-Ang**3):
 XXXX=           -338.6278 YYYY=            -43.8135 ZZZZ=            -10.6612 XXXY=             -7.7471
 XXXZ=              6.6608 YYYX=             -2.9054 YYYZ=             -2.7198 ZZZX=              2.2896
 ZZZY=             -1.9257 XXYY=            -59.5901 XXZZ=            -49.2287 YYZZ=             -9.5146
 XXYZ=             -5.8787 YYXZ=              3.8821 ZZXY=             -2.8096
 N-N= 3.663807927902D+01 E-N=-4.314747448379D+02  KE= 1.505284317831D+02
 Leave Link  601 at Mon Mar 30 21:13:22 2020, MaxMem=  2147483648 cpu:               0.5 elap:               0.0
 (Enter /usr/local/g16/g16/l122.exe)
 CPIOFr:  IOpCl= 0 IRwI=-1 IRwCP=  731 ICalc=  1 LCPTot=       59414 Len1MO=      159453 IndFrg=      378320
 Counterpoise: doing calculation for fragment   2 using the basis set of the full-system, NewBq=T
 Leave Link  122 at Mon Mar 30 21:13:22 2020, MaxMem=  2147483648 cpu:               0.0 elap:               0.0
 (Enter /usr/local/g16/g16/l301.exe)
 Basis read from rwf:  (5D, 7F)
 No pseudopotential information found on rwf file.
 There are   229 symmetry adapted cartesian basis functions of A   symmetry.
 There are   197 symmetry adapted basis functions of A   symmetry.
   197 basis functions,   415 primitive gaussians,   229 cartesian basis functions
    18 alpha electrons       18 beta electrons
       nuclear repulsion energy         0.0000000000 Hartrees.
 IExCor=    0 DFT=F Ex=HF Corr=None ExCW=0 ScaHFX=  1.000000
 ScaDFX=  1.000000  1.000000  1.000000  1.000000 ScalE2=  1.000000  1.000000
 IRadAn=      5 IRanWt=     -1 IRanGd=            0 ICorTp=0 IEmpDi=  4
 NAtoms=    5 NActive=    5 NUniq=    5 SFac= 1.00D+00 NAtFMM=   60 NAOKFM=F Big=F
 Integral buffers will be    131072 words long.
 Raffenetti 1 integral format.
 Two-electron integral symmetry is turned on.
 No density basis found on file   718.
 Leave Link  301 at Mon Mar 30 21:13:23 2020, MaxMem=  2147483648 cpu:               0.4 elap:               0.0
 (Enter /usr/local/g16/g16/l302.exe)
 NPDir=0 NMtPBC=     1 NCelOv=     1 NCel=       1 NClECP=     1 NCelD=      1
         NCelK=      1 NCelE2=     1 NClLst=     1 CellRange=     0.0.
 One-electron integrals computed using PRISM.
 One-electron integral symmetry used in STVInt
 NBasis=   197 RedAO= T EigKep=  2.05D-04  NBF=   197
 NBsUse=   197 1.00D-06 EigRej= -1.00D+00 NBFU=   197
 Leave Link  302 at Mon Mar 30 21:13:23 2020, MaxMem=  2147483648 cpu:               1.6 elap:               0.1
 (Enter /usr/local/g16/g16/l303.exe)
 DipDrv:  MaxL=1.
 Leave Link  303 at Mon Mar 30 21:13:23 2020, MaxMem=  2147483648 cpu:               0.4 elap:               0.0
 (Enter /usr/local/g16/g16/l401.exe)
 ExpMin= 2.53D-02 ExpMax= 1.17D+07 ExpMxC= 1.33D+04 IAcc=3 IRadAn=         5 AccDes= 0.00D+00
 Harris functional with IExCor=  205 and IRadAn=       5 diagonalized for initial guess.
 HarFok:  IExCor=  205 AccDes= 0.00D+00 IRadAn=         5 IDoV= 1 UseB2=F ITyADJ=14
 ICtDFT=  3500011 ScaDFX=  1.000000  1.000000  1.000000  1.000000
 FoFCou: FMM=F IPFlag=           0 FMFlag=      100000 FMFlg1=           0
         NFxFlg=           0 DoJE=T BraDBF=F KetDBF=T FulRan=T
         wScrn=  0.000000 ICntrl=       500 IOpCl=  0 I1Cent=   200000004 NGrid=           0
         NMat0=    1 NMatS0=      1 NMatT0=    0 NMatD0=    1 NMtDS0=    0 NMtDT0=    0
 Petite list used in FoFCou.
 Harris En= -2751.06004860535    
 JPrj=0 DoOrth=F DoCkMO=F.
 Leave Link  401 at Mon Mar 30 21:13:23 2020, MaxMem=  2147483648 cpu:               3.0 elap:               0.2
 (Enter /usr/local/g16/g16/l502.exe)
 Keep R1 ints in memory in canonical form, NReq=203137364.
 FoFCou: FMM=F IPFlag=           0 FMFlag=           0 FMFlg1=           0
         NFxFlg=           0 DoJE=F BraDBF=F KetDBF=F FulRan=T
         wScrn=  0.000000 ICntrl=       600 IOpCl=  0 I1Cent=           0 NGrid=           0
         NMat0=    1 NMatS0=  19503 NMatT0=    0 NMatD0=    1 NMtDS0=    0 NMtDT0=    0
 Symmetry not used in FoFCou.
 Two-electron integral symmetry not used.
 Closed shell SCF:
 Using DIIS extrapolation, IDIIS=  1040.
 NGot=  2147483648 LenX=  1957179903 LenY=  1957127021
 Requested convergence on RMS density matrix=1.00D-08 within 128 cycles.
 Requested convergence on MAX density matrix=1.00D-06.
 Requested convergence on             energy=1.00D-06.
 No special actions if energy rises.

 Cycle   1  Pass 1  IDiag  1:
 E= -2752.00361338542    
 DIIS: error= 4.27D-02 at cycle   1 NSaved=   1.
 NSaved= 1 IEnMin= 1 EnMin= -2752.00361338542     IErMin= 1 ErrMin= 4.27D-02
 ErrMax= 4.27D-02  0.00D+00 EMaxC= 1.00D-01 BMatC= 4.29D-01 BMatP= 4.29D-01
 IDIUse=3 WtCom= 5.73D-01 WtEn= 4.27D-01
 Coeff-Com:  0.100D+01
 Coeff-En:   0.100D+01
 Coeff:      0.100D+01
 Gap=     0.630 Goal=   None    Shift=    0.000
 GapD=    0.630 DampG=2.000 DampE=0.500 DampFc=1.0000 IDamp=-1.
 RMSDP=1.74D-03 MaxDP=1.29D-01              OVMax= 2.38D-02

 Cycle   2  Pass 1  IDiag  1:
 E= -2752.04698179631     Delta-E=       -0.043368410899 Rises=F Damp=F
 DIIS: error= 6.51D-03 at cycle   2 NSaved=   2.
 NSaved= 2 IEnMin= 2 EnMin= -2752.04698179631     IErMin= 2 ErrMin= 6.51D-03
 ErrMax= 6.51D-03  0.00D+00 EMaxC= 1.00D-01 BMatC= 1.97D-02 BMatP= 4.29D-01
 IDIUse=3 WtCom= 9.35D-01 WtEn= 6.51D-02
 Coeff-Com:  0.152D+00 0.848D+00
 Coeff-En:   0.000D+00 0.100D+01
 Coeff:      0.142D+00 0.858D+00
 Gap=     0.545 Goal=   None    Shift=    0.000
 RMSDP=5.60D-04 MaxDP=3.49D-02 DE=-4.34D-02 OVMax= 1.31D-02

 Cycle   3  Pass 1  IDiag  1:
 E= -2752.05205806625     Delta-E=       -0.005076269937 Rises=F Damp=F
 DIIS: error= 1.20D-03 at cycle   3 NSaved=   3.
 NSaved= 3 IEnMin= 3 EnMin= -2752.05205806625     IErMin= 3 ErrMin= 1.20D-03
 ErrMax= 1.20D-03  0.00D+00 EMaxC= 1.00D-01 BMatC= 7.02D-04 BMatP= 1.97D-02
 IDIUse=3 WtCom= 9.88D-01 WtEn= 1.20D-02
 Coeff-Com: -0.128D-02 0.154D+00 0.847D+00
 Coeff-En:   0.000D+00 0.000D+00 0.100D+01
 Coeff:     -0.127D-02 0.152D+00 0.849D+00
 Gap=     0.556 Goal=   None    Shift=    0.000
 RMSDP=7.38D-05 MaxDP=4.34D-03 DE=-5.08D-03 OVMax= 2.87D-03

 Cycle   4  Pass 1  IDiag  1:
 E= -2752.05226671767     Delta-E=       -0.000208651422 Rises=F Damp=F
 DIIS: error= 3.77D-05 at cycle   4 NSaved=   4.
 NSaved= 4 IEnMin= 4 EnMin= -2752.05226671767     IErMin= 4 ErrMin= 3.77D-05
 ErrMax= 3.77D-05  0.00D+00 EMaxC= 1.00D-01 BMatC= 7.03D-07 BMatP= 7.02D-04
 IDIUse=1 WtCom= 1.00D+00 WtEn= 0.00D+00
 Coeff-Com: -0.364D-03-0.175D-01-0.595D-01 0.108D+01
 Coeff:     -0.364D-03-0.175D-01-0.595D-01 0.108D+01
 Gap=     0.555 Goal=   None    Shift=    0.000
 RMSDP=5.98D-06 MaxDP=2.86D-04 DE=-2.09D-04 OVMax= 2.69D-04

 Cycle   5  Pass 1  IDiag  1:
 E= -2752.05226714616     Delta-E=       -0.000000428482 Rises=F Damp=F
 DIIS: error= 3.01D-06 at cycle   5 NSaved=   5.
 NSaved= 5 IEnMin= 5 EnMin= -2752.05226714616     IErMin= 5 ErrMin= 3.01D-06
 ErrMax= 3.01D-06  0.00D+00 EMaxC= 1.00D-01 BMatC= 6.04D-09 BMatP= 7.03D-07
 IDIUse=1 WtCom= 1.00D+00 WtEn= 0.00D+00
 Coeff-Com:  0.614D-04 0.143D-04-0.516D-02-0.846D-01 0.109D+01
 Coeff:      0.614D-04 0.143D-04-0.516D-02-0.846D-01 0.109D+01
 Gap=     0.555 Goal=   None    Shift=    0.000
 RMSDP=6.62D-07 MaxDP=2.86D-05 DE=-4.28D-07 OVMax= 2.77D-05

 Cycle   6  Pass 1  IDiag  1:
 E= -2752.05226715201     Delta-E=       -0.000000005850 Rises=F Damp=F
 DIIS: error= 2.87D-07 at cycle   6 NSaved=   6.
 NSaved= 6 IEnMin= 6 EnMin= -2752.05226715201     IErMin= 6 ErrMin= 2.87D-07
 ErrMax= 2.87D-07  0.00D+00 EMaxC= 1.00D-01 BMatC= 4.09D-11 BMatP= 6.04D-09
 IDIUse=1 WtCom= 1.00D+00 WtEn= 0.00D+00
 Coeff-Com: -0.302D-05 0.976D-04 0.869D-03-0.186D-02-0.935D-01 0.109D+01
 Coeff:     -0.302D-05 0.976D-04 0.869D-03-0.186D-02-0.935D-01 0.109D+01
 Gap=     0.555 Goal=   None    Shift=    0.000
 RMSDP=6.37D-08 MaxDP=3.78D-06 DE=-5.85D-09 OVMax= 3.31D-06

 Cycle   7  Pass 1  IDiag  1:
 E= -2752.05226715204     Delta-E=       -0.000000000036 Rises=F Damp=F
 DIIS: error= 1.59D-08 at cycle   7 NSaved=   7.
 NSaved= 7 IEnMin= 7 EnMin= -2752.05226715204     IErMin= 7 ErrMin= 1.59D-08
 ErrMax= 1.59D-08  0.00D+00 EMaxC= 1.00D-01 BMatC= 1.42D-13 BMatP= 4.09D-11
 IDIUse=1 WtCom= 1.00D+00 WtEn= 0.00D+00
 Coeff-Com:  0.782D-07-0.442D-05-0.396D-04 0.243D-03 0.359D-02-0.721D-01
 Coeff-Com:  0.107D+01
 Coeff:      0.782D-07-0.442D-05-0.396D-04 0.243D-03 0.359D-02-0.721D-01
 Coeff:      0.107D+01
 Gap=     0.555 Goal=   None    Shift=    0.000
 RMSDP=5.64D-09 MaxDP=2.11D-07 DE=-3.59D-11 OVMax= 2.42D-07

 SCF Done:  E(RHF) =  -2752.05226715     A.U. after    7 cycles
            NFock=  7  Conv=0.56D-08     -V/T= 2.0000
 KE= 2.752039453147D+03 PE=-6.582554393084D+03 EE= 1.078462672785D+03
 Leave Link  502 at Mon Mar 30 21:13:26 2020, MaxMem=  2147483648 cpu:              26.3 elap:               2.7
 (Enter /usr/local/g16/g16/l801.exe)
 Windowed orbitals will be sorted by symmetry type.
 ExpMin= 2.53D-02 ExpMax= 1.17D+07 ExpMxC= 1.33D+04 IAcc=3 IRadAn=         5 AccDes= 0.00D+00
 HarFok:  IExCor=  205 AccDes= 0.00D+00 IRadAn=         5 IDoV=-2 UseB2=F ITyADJ=14
 ICtDFT= 12500011 ScaDFX=  1.000000  1.000000  1.000000  1.000000
 Largest valence mixing into a core orbital is  9.81D-05
 Largest core mixing into a valence orbital is  3.83D-05
 Range of M.O.s used for correlation:    10   197
 NBasis=   197 NAE=    18 NBE=    18 NFC=     9 NFV=     0
 NROrb=    188 NOA=     9 NOB=     9 NVA=   179 NVB=   179

 **** Warning!!: The largest alpha MO coefficient is  0.14241888D+02

 Leave Link  801 at Mon Mar 30 21:13:26 2020, MaxMem=  2147483648 cpu:               0.7 elap:               0.0
 (Enter /usr/local/g16/g16/l804.exe)
 Closed-shell transformation, MDV=  2147483648 ITran=4 ISComp=1.
 Semi-Direct transformation.
 ModeAB=           2 MOrb=             9 LenV=    2146335178
 LASXX=     28892340 LTotXX=    28892340 LenRXX=    28892340
 LTotAB=    29348001 MaxLAS=    44558820 LenRXY=    44558820
 NonZer=    57784680 LenScr=    87449600 LnRSAI=           0
 LnScr1=           0 LExtra=           0 Total=    160900760
 MaxDsk=          -1 SrtSym=           F ITran=            4
 DoSDTr:  NPSUse= 16
 JobTyp=0 Pass  1:  I=   1 to   9.
 (rs|ai) integrals will be sorted in core.
 Complete sort for first half transformation.
 First half transformation complete.
 Complete sort for second half transformation.
 Second half transformation complete.
 SymMOI:  orbitals are not symmetric.
 Spin components of T(2) and E(2):
     alpha-alpha T2 =       0.9503618448D-02 E2=     -0.3581446617D-01
     alpha-beta  T2 =       0.4818560501D-01 E2=     -0.1723748395D+00
     beta-beta   T2 =       0.9503618448D-02 E2=     -0.3581446617D-01
 ANorm=    0.1033050261D+01
 E2 =    -0.2440037719D+00 EUMP2 =    -0.27522962709239D+04
 Leave Link  804 at Mon Mar 30 21:13:34 2020, MaxMem=  2147483648 cpu:             131.6 elap:               8.2
 (Enter /usr/local/g16/g16/l913.exe)
 CIDS:  MDV=  2147483648.
 Frozen-core window:  NFC=   9 NFV=   0.
 IFCWin=0 IBDFC=1 NFBD=     0     0 NFCmp=     0     0 NFFFC=     0     0
 Using DD3R+UMP44R for 1st iteration.
 Using DD4RQ for 2nd and later iterations.
 Keep R2 and R3 ints in memory in canonical form, NReq=393336631.
 FoFCou: FMM=F IPFlag=           0 FMFlag=           0 FMFlg1=           0
         NFxFlg=           0 DoJE=F BraDBF=F KetDBF=F FulRan=T
         wScrn=  0.000000 ICntrl=       600 IOpCl=  0 I1Cent=           0 NGrid=           0
         NMat0=    1 NMatS0=  19503 NMatT0=    0 NMatD0=    1 NMtDS0=    0 NMtDT0=    0
 Symmetry not used in FoFCou.
 Two-electron integral symmetry not used.
 CIDS: In Core Option IDoMem=           1.
 MP4(SDTQ)
 =========
 Produce multiple copies of IABC intergrals
 DD1Dir will call FoFMem   1 times, MxPair=        90
 NAB=    45 NAA=     0 NBB=     0.
 MP4(D)= -0.37216864D-02
 MP4(S)= -0.10901171D-02
 MP4(R+Q)=  0.42487636D-02
 T4(AAA)= -0.32575558D-03
 T4(AAB)= -0.35648032D-02
 Time for triples=      480.50 seconds.
 MP4(T)=   -0.77811176D-02
 E3=       -0.98588203D-02        EUMP3=      -0.27523061297D+04
 E4(DQ)=    0.52707728D-03        UMP4(DQ)=   -0.27523056027D+04
 E4(SDQ)=  -0.56303978D-03        UMP4(SDQ)=  -0.27523066928D+04
 E4(SDTQ)= -0.83441574D-02        UMP4(SDTQ)= -0.27523144739D+04
 VARIATIONAL ENERGIES WITH THE FIRST-ORDER WAVEFUNCTION:
 E(VAR1)=  -0.27522901460D+04     E(CISD,4)=  -0.27522945462D+04
 Largest amplitude= 1.40D-02
 Discarding MO integrals.
 Leave Link  913 at Mon Mar 30 21:14:08 2020, MaxMem=  2147483648 cpu:             548.4 elap:              34.3
 (Enter /usr/local/g16/g16/l601.exe)
 Copying SCF densities to generalized density rwf, IOpCl= 0 IROHF=0.

 **********************************************************************

            Population analysis using the SCF density.

 **********************************************************************

 Orbital symmetries:
       Occupied  (A) (A) (A) (A) (A) (A) (A) (A) (A) (A) (A) (A)
                 (A) (A) (A) (A) (A) (A)
       Virtual   (A) (A) (A) (A) (A) (A) (A) (A) (A) (A) (A) (A)
                 (A) (A) (A) (A) (A) (A) (A) (A) (A) (A) (A) (A)
                 (A) (A) (A) (A) (A) (A) (A) (A) (A) (A) (A) (A)
                 (A) (A) (A) (A) (A) (A) (A) (A) (A) (A) (A) (A)
                 (A) (A) (A) (A) (A) (A) (A) (A) (A) (A) (A) (A)
                 (A) (A) (A) (A) (A) (A) (A) (A) (A) (A) (A) (A)
                 (A) (A) (A) (A) (A) (A) (A) (A) (A) (A) (A) (A)
                 (A) (A) (A) (A) (A) (A) (A) (A) (A) (A) (A) (A)
                 (A) (A) (A) (A) (A) (A) (A) (A) (A) (A) (A) (A)
                 (A) (A) (A) (A) (A) (A) (A) (A) (A) (A) (A) (A)
                 (A) (A) (A) (A) (A) (A) (A) (A) (A) (A) (A) (A)
                 (A) (A) (A) (A) (A) (A) (A) (A) (A) (A) (A) (A)
                 (A) (A) (A) (A) (A) (A) (A) (A) (A) (A) (A) (A)
                 (A) (A) (A) (A) (A) (A) (A) (A) (A) (A) (A) (A)
                 (A) (A) (A) (A) (A) (A) (A) (A) (A) (A) (A)
 The electronic state is 1-A.
 Alpha  occ. eigenvalues -- -520.16581 -69.90314 -63.00972 -63.00972 -63.00972
 Alpha  occ. eigenvalues --  -10.84954  -8.33154  -8.33154  -8.33153  -3.82531
 Alpha  occ. eigenvalues --   -3.82531  -3.82531  -3.82530  -3.82530  -1.15311
 Alpha  occ. eigenvalues --   -0.52431  -0.52429  -0.52428
 Alpha virt. eigenvalues --    0.03072   0.04977   0.08712   0.09308   0.12248
 Alpha virt. eigenvalues --    0.12586   0.13508   0.13825   0.16216   0.17217
 Alpha virt. eigenvalues --    0.18006   0.19717   0.21483   0.27097   0.28217
 Alpha virt. eigenvalues --    0.29332   0.29825   0.32283   0.34682   0.35606
 Alpha virt. eigenvalues --    0.37180   0.38308   0.39952   0.41553   0.42392
 Alpha virt. eigenvalues --    0.42729   0.45762   0.55670   0.57853   0.60789
 Alpha virt. eigenvalues --    0.62181   0.66965   0.69352   0.70190   0.72729
 Alpha virt. eigenvalues --    0.75515   0.78061   0.79451   0.81524   0.83012
 Alpha virt. eigenvalues --    0.84033   0.85625   0.86775   0.88576   0.89691
 Alpha virt. eigenvalues --    0.90549   0.90952   0.92721   0.94031   0.98479
 Alpha virt. eigenvalues --    0.98835   1.00804   1.02974   1.03498   1.05136
 Alpha virt. eigenvalues --    1.08073   1.10309   1.13247   1.16546   1.19516
 Alpha virt. eigenvalues --    1.21105   1.24059   1.26885   1.32566   1.34188
 Alpha virt. eigenvalues --    1.36854   1.40433   1.48240   1.51301   1.52903
 Alpha virt. eigenvalues --    1.56228   1.59196   1.65469   1.72987   1.77501
 Alpha virt. eigenvalues --    1.82471   1.83112   1.89036   1.98420   2.25838
 Alpha virt. eigenvalues --    2.33227   2.35239   2.36793   2.39066   2.39222
 Alpha virt. eigenvalues --    2.42215   2.44517   2.44947   2.49718   2.51958
 Alpha virt. eigenvalues --    2.53215   2.54784   2.56351   2.58223   2.59992
 Alpha virt. eigenvalues --    2.61549   2.64240   2.66905   2.68666   2.71129
 Alpha virt. eigenvalues --    2.71604   2.73096   2.80217   2.80923   2.82558
 Alpha virt. eigenvalues --    2.83399   2.88154   2.90652   2.92744   2.96291
 Alpha virt. eigenvalues --    3.01271   3.05868   3.06918   3.10926   3.19585
 Alpha virt. eigenvalues --    3.20600   3.30181   3.30951   3.39964   3.46832
 Alpha virt. eigenvalues --    3.61776   3.66622   3.81974   3.86849   4.03566
 Alpha virt. eigenvalues --    4.46284   4.47902   4.56891   4.61037   4.69997
 Alpha virt. eigenvalues --    4.77296   4.88162   4.88954   4.98116   5.07280
 Alpha virt. eigenvalues --    5.15294   5.28821   5.57647   5.67853   5.85182
 Alpha virt. eigenvalues --    5.89120   5.97124   6.15506   6.79357   6.82629
 Alpha virt. eigenvalues --    7.38259   7.48628   7.54512   7.64335   7.74076
 Alpha virt. eigenvalues --    7.79763   7.96158   8.16301   8.17613   8.21966
 Alpha virt. eigenvalues --    8.37056   8.51515   8.57261   8.88135   9.62535
 Alpha virt. eigenvalues --    9.75901   9.83910   9.86187   9.94129   9.98949
 Alpha virt. eigenvalues --   10.16104  10.26492  10.46175  10.95956  11.54991
 Alpha virt. eigenvalues --   11.62153  11.81617  12.03621  12.09232  13.19620
 Alpha virt. eigenvalues --   13.71063  14.51537  62.83004  64.68389
          Condensed to atoms (all electrons):
               1          2          3          4          5
     1  O    0.000401  -0.000563  -0.000181   0.000302  -0.001116
     2  O   -0.000563   0.001812   0.000189  -0.001183  -0.003104
     3  H   -0.000181   0.000189   0.000147  -0.000093  -0.001200
     4  H    0.000302  -0.001183  -0.000093   0.001064  -0.007394
     5  Kr  -0.001116  -0.003104  -0.001200  -0.007394  36.025260
 Mulliken charges:
               1
     1  O    0.001157
     2  O    0.002849
     3  H    0.001136
     4  H    0.007303
     5  Kr  -0.012445
 Sum of Mulliken charges =  -0.00000
 Mulliken charges with hydrogens summed into heavy atoms:
               1
     1  O    0.002293
     2  O    0.010152
     5  Kr  -0.012445
         Mulliken charges condensed to fragments:
      1      0.012445
      2     -0.012445
 Electronic spatial extent (au):  <R**2>=            162.3376
 Charge=             -0.0000 electrons
 Dipole moment (field-independent basis, Debye):
    X=              0.0009    Y=              0.0004    Z=              0.0001  Tot=              0.0010
 Quadrupole moment (field-independent basis, Debye-Ang):
   XX=            -17.7266   YY=            -17.7326   ZZ=            -17.7368
   XY=              0.0015   XZ=              0.0010   YZ=             -0.0004
 Traceless Quadrupole moment (field-independent basis, Debye-Ang):
   XX=              0.0054   YY=             -0.0006   ZZ=             -0.0048
   XY=              0.0015   XZ=              0.0010   YZ=             -0.0004
 Octapole moment (field-independent basis, Debye-Ang**2):
  XXX=             51.9712  YYY=              0.3429  ZZZ=              0.1358  XYY=             17.3309
  XXY=              0.1095  XXZ=              0.0435  XZZ=             17.3341  YZZ=              0.1143
  YYZ=              0.0457  XYZ=             -0.0000
 Hexadecapole moment (field-independent basis, Debye-Ang**3):
 XXXX=           -120.1036 YYYY=            -18.5442 ZZZZ=            -18.5569 XXXY=             -0.3251
 XXXZ=             -0.1290 YYYX=             -0.3274 YYYZ=             -0.0008 ZZZX=             -0.1307
 ZZZY=             -0.0007 XXYY=            -23.1138 XXZZ=            -23.1177 YYZZ=             -6.1829
 XXYZ=             -0.0010 YYXZ=             -0.0433 ZZXY=             -0.1089
 N-N= 0.000000000000D+00 E-N=-6.582554394643D+03  KE= 2.752039453147D+03
 Leave Link  601 at Mon Mar 30 21:14:09 2020, MaxMem=  2147483648 cpu:               0.6 elap:               0.1
 (Enter /usr/local/g16/g16/l122.exe)
 CPIOFr:  IOpCl= 0 IRwI=-1 IRwCP=  731 ICalc=  2 LCPTot=       59414 Len1MO=      159453 IndFrg=      537773
 Counterpoise: doing calculation for fragment   1 using the basis set of the fragment.
 Leave Link  122 at Mon Mar 30 21:14:09 2020, MaxMem=  2147483648 cpu:               0.0 elap:               0.0
 (Enter /usr/local/g16/g16/l301.exe)
 Basis read from rwf:  (5D, 7F)
 No pseudopotential information found on rwf file.
 There are   160 symmetry adapted cartesian basis functions of A   symmetry.
 There are   138 symmetry adapted basis functions of A   symmetry.
   138 basis functions,   198 primitive gaussians,   160 cartesian basis functions
     9 alpha electrons        9 beta electrons
       nuclear repulsion energy        36.6380792790 Hartrees.
 IExCor=    0 DFT=F Ex=HF Corr=None ExCW=0 ScaHFX=  1.000000
 ScaDFX=  1.000000  1.000000  1.000000  1.000000 ScalE2=  1.000000  1.000000
 IRadAn=      5 IRanWt=     -1 IRanGd=            0 ICorTp=0 IEmpDi=  4
 NAtoms=    5 NActive=    4 NUniq=    4 SFac= 1.00D+00 NAtFMM=   60 NAOKFM=F Big=F
 Integral buffers will be    131072 words long.
 Raffenetti 1 integral format.
 Two-electron integral symmetry is turned on.
 No density basis found on file   718.
 Leave Link  301 at Mon Mar 30 21:14:09 2020, MaxMem=  2147483648 cpu:               0.4 elap:               0.0
 (Enter /usr/local/g16/g16/l302.exe)
 NPDir=0 NMtPBC=     1 NCelOv=     1 NCel=       1 NClECP=     1 NCelD=      1
         NCelK=      1 NCelE2=     1 NClLst=     1 CellRange=     0.0.
 One-electron integrals computed using PRISM.
 One-electron integral symmetry used in STVInt
 NBasis=   138 RedAO= T EigKep=  2.51D-04  NBF=   138
 NBsUse=   138 1.00D-06 EigRej= -1.00D+00 NBFU=   138
 Leave Link  302 at Mon Mar 30 21:14:09 2020, MaxMem=  2147483648 cpu:               1.4 elap:               0.1
 (Enter /usr/local/g16/g16/l303.exe)
 DipDrv:  MaxL=1.
 Leave Link  303 at Mon Mar 30 21:14:09 2020, MaxMem=  2147483648 cpu:               0.4 elap:               0.0
 (Enter /usr/local/g16/g16/l401.exe)
 ExpMin= 2.53D-02 ExpMax= 1.53D+04 ExpMxC= 5.22D+02 IAcc=3 IRadAn=         5 AccDes= 0.00D+00
 Harris functional with IExCor=  205 and IRadAn=       5 diagonalized for initial guess.
 HarFok:  IExCor=  205 AccDes= 0.00D+00 IRadAn=         5 IDoV= 1 UseB2=F ITyADJ=14
 ICtDFT=  3500011 ScaDFX=  1.000000  1.000000  1.000000  1.000000
 FoFCou: FMM=F IPFlag=           0 FMFlag=      100000 FMFlg1=           0
         NFxFlg=           0 DoJE=T BraDBF=F KetDBF=T FulRan=T
         wScrn=  0.000000 ICntrl=       500 IOpCl=  0 I1Cent=   200000004 NGrid=           0
         NMat0=    1 NMatS0=      1 NMatT0=    0 NMatD0=    1 NMtDS0=    0 NMtDT0=    0
 Petite list used in FoFCou.
 Harris En= -150.935752031800    
 JPrj=0 DoOrth=F DoCkMO=F.
 Leave Link  401 at Mon Mar 30 21:14:09 2020, MaxMem=  2147483648 cpu:               2.3 elap:               0.1
 (Enter /usr/local/g16/g16/l502.exe)
 Keep R1 ints in memory in canonical form, NReq=53860811.
 FoFCou: FMM=F IPFlag=           0 FMFlag=           0 FMFlg1=           0
         NFxFlg=           0 DoJE=F BraDBF=F KetDBF=F FulRan=T
         wScrn=  0.000000 ICntrl=       600 IOpCl=  0 I1Cent=           0 NGrid=           0
         NMat0=    1 NMatS0=   9591 NMatT0=    0 NMatD0=    1 NMtDS0=    0 NMtDT0=    0
 Symmetry not used in FoFCou.
 Two-electron integral symmetry not used.
 Closed shell SCF:
 Using DIIS extrapolation, IDIIS=  1040.
 NGot=  2147483648 LenX=  2101430001 LenY=  2101403960
 Requested convergence on RMS density matrix=1.00D-08 within 128 cycles.
 Requested convergence on MAX density matrix=1.00D-06.
 Requested convergence on             energy=1.00D-06.
 No special actions if energy rises.

 Cycle   1  Pass 1  IDiag  1:
 E= -150.771055758716    
 DIIS: error= 3.65D-02 at cycle   1 NSaved=   1.
 NSaved= 1 IEnMin= 1 EnMin= -150.771055758716     IErMin= 1 ErrMin= 3.65D-02
 ErrMax= 3.65D-02  0.00D+00 EMaxC= 1.00D-01 BMatC= 2.28D-01 BMatP= 2.28D-01
 IDIUse=3 WtCom= 6.35D-01 WtEn= 3.65D-01
 Coeff-Com:  0.100D+01
 Coeff-En:   0.100D+01
 Coeff:      0.100D+01
 Gap=     0.712 Goal=   None    Shift=    0.000
 GapD=    0.712 DampG=2.000 DampE=0.500 DampFc=1.0000 IDamp=-1.
 RMSDP=1.29D-03 MaxDP=2.85D-02              OVMax= 6.54D-02

 Cycle   2  Pass 1  IDiag  1:
 E= -150.824591256608     Delta-E=       -0.053535497892 Rises=F Damp=F
 DIIS: error= 9.41D-03 at cycle   2 NSaved=   2.
 NSaved= 2 IEnMin= 2 EnMin= -150.824591256608     IErMin= 2 ErrMin= 9.41D-03
 ErrMax= 9.41D-03  0.00D+00 EMaxC= 1.00D-01 BMatC= 1.66D-02 BMatP= 2.28D-01
 IDIUse=3 WtCom= 9.06D-01 WtEn= 9.41D-02
 Coeff-Com:  0.109D+00 0.891D+00
 Coeff-En:   0.000D+00 0.100D+01
 Coeff:      0.989D-01 0.901D+00
 Gap=     0.543 Goal=   None    Shift=    0.000
 RMSDP=7.14D-04 MaxDP=2.51D-02 DE=-5.35D-02 OVMax= 2.91D-02

 Cycle   3  Pass 1  IDiag  1:
 E= -150.832975683122     Delta-E=       -0.008384426514 Rises=F Damp=F
 DIIS: error= 3.85D-03 at cycle   3 NSaved=   3.
 NSaved= 3 IEnMin= 3 EnMin= -150.832975683122     IErMin= 3 ErrMin= 3.85D-03
 ErrMax= 3.85D-03  0.00D+00 EMaxC= 1.00D-01 BMatC= 2.41D-03 BMatP= 1.66D-02
 IDIUse=3 WtCom= 9.62D-01 WtEn= 3.85D-02
 Coeff-Com: -0.211D-01 0.255D+00 0.766D+00
 Coeff-En:   0.000D+00 0.000D+00 0.100D+01
 Coeff:     -0.202D-01 0.245D+00 0.775D+00
 Gap=     0.513 Goal=   None    Shift=    0.000
 RMSDP=1.64D-04 MaxDP=4.20D-03 DE=-8.38D-03 OVMax= 9.46D-03

 Cycle   4  Pass 1  IDiag  1:
 E= -150.834483289475     Delta-E=       -0.001507606353 Rises=F Damp=F
 DIIS: error= 4.37D-04 at cycle   4 NSaved=   4.
 NSaved= 4 IEnMin= 4 EnMin= -150.834483289475     IErMin= 4 ErrMin= 4.37D-04
 ErrMax= 4.37D-04  0.00D+00 EMaxC= 1.00D-01 BMatC= 1.61D-05 BMatP= 2.41D-03
 IDIUse=3 WtCom= 9.96D-01 WtEn= 4.37D-03
 Coeff-Com: -0.181D-02-0.114D-01 0.112D-01 0.100D+01
 Coeff-En:   0.000D+00 0.000D+00 0.000D+00 0.100D+01
 Coeff:     -0.180D-02-0.113D-01 0.111D-01 0.100D+01
 Gap=     0.515 Goal=   None    Shift=    0.000
 RMSDP=2.39D-05 MaxDP=4.21D-04 DE=-1.51D-03 OVMax= 1.44D-03

 Cycle   5  Pass 1  IDiag  1:
 E= -150.834506242855     Delta-E=       -0.000022953381 Rises=F Damp=F
 DIIS: error= 1.33D-04 at cycle   5 NSaved=   5.
 NSaved= 5 IEnMin= 5 EnMin= -150.834506242855     IErMin= 5 ErrMin= 1.33D-04
 ErrMax= 1.33D-04  0.00D+00 EMaxC= 1.00D-01 BMatC= 1.59D-06 BMatP= 1.61D-05
 IDIUse=3 WtCom= 9.99D-01 WtEn= 1.33D-03
 Coeff-Com:  0.173D-02-0.169D-01-0.590D-01-0.165D+00 0.124D+01
 Coeff-En:   0.000D+00 0.000D+00 0.000D+00 0.000D+00 0.100D+01
 Coeff:      0.173D-02-0.169D-01-0.589D-01-0.165D+00 0.124D+01
 Gap=     0.515 Goal=   None    Shift=    0.000
 RMSDP=1.35D-05 MaxDP=2.61D-04 DE=-2.30D-05 OVMax= 9.24D-04

 Cycle   6  Pass 1  IDiag  1:
[...]
 Closed shell SCF:
 Using DIIS extrapolation, IDIIS=  1040.
 NGot=  2147483648 LenX=  2101430001 LenY=  2101403960
 Requested convergence on RMS density matrix=1.00D-08 within 128 cycles.
 Requested convergence on MAX density matrix=1.00D-06.
 Requested convergence on             energy=1.00D-06.
 No special actions if energy rises.

 Cycle   1  Pass 1  IDiag  1:
 E= -150.834510632054    
 DIIS: error= 4.46D-11 at cycle   1 NSaved=   1.
 NSaved= 1 IEnMin= 1 EnMin= -150.834510632054     IErMin= 1 ErrMin= 4.46D-11
 ErrMax= 4.46D-11  0.00D+00 EMaxC= 1.00D-01 BMatC= 2.68D-19 BMatP= 2.68D-19
 IDIUse=1 WtCom= 1.00D+00 WtEn= 0.00D+00
 Coeff-Com:  0.100D+01
 Coeff:      0.100D+01
 Gap=     0.889 Goal=   None    Shift=    0.000
 RMSDP=3.03D-12 MaxDP=9.34D-11              OVMax= 2.01D-10

 SCF Done:  E(RHF) =  -150.834510632     A.U. after    1 cycles
            NFock=  1  Conv=0.30D-11     -V/T= 2.0020
 KE= 1.505287730224D+02 PE=-4.314739753611D+02 EE= 9.347261242765D+01
 Leave Link  502 at Mon Mar 30 22:30:11 2020, MaxMem=  2147483648 cpu:               7.6 elap:               0.5
 (Enter /usr/local/g16/g16/l801.exe)
 Windowed orbitals will be sorted by symmetry type.
 ExpMin= 2.53D-02 ExpMax= 1.53D+04 ExpMxC= 5.22D+02 IAcc=3 IRadAn=         5 AccDes= 0.00D+00
 HarFok:  IExCor=  205 AccDes= 0.00D+00 IRadAn=         5 IDoV=-2 UseB2=F ITyADJ=14
 ICtDFT= 12500011 ScaDFX=  1.000000  1.000000  1.000000  1.000000
 Largest valence mixing into a core orbital is  1.19D-04
 Largest core mixing into a valence orbital is  2.07D-05
 Range of M.O.s used for correlation:     3   138
 NBasis=   138 NAE=     9 NBE=     9 NFC=     2 NFV=     0
 NROrb=    136 NOA=     7 NOB=     7 NVA=   129 NVB=   129

 **** Warning!!: The largest alpha MO coefficient is  0.15889592D+02

 Leave Link  801 at Mon Mar 30 22:30:11 2020, MaxMem=  2147483648 cpu:               0.5 elap:               0.0
 (Enter /usr/local/g16/g16/l804.exe)
 Closed-shell transformation, MDV=  2147483648 ITran=4 ISComp=1.
 Semi-Direct transformation.
 ModeAB=           2 MOrb=             7 LenV=    2146849405
 LASXX=      8463147 LTotXX=     8463147 LenRXX=     8463147
 LTotAB=     8647912 MaxLAS=    12261760 LenRXY=    12261760
 NonZer=    16926294 LenScr=    26146816 LnRSAI=           0
 LnScr1=           0 LExtra=           0 Total=     46871723
 MaxDsk=          -1 SrtSym=           F ITran=            4
 DoSDTr:  NPSUse= 16
 JobTyp=0 Pass  1:  I=   1 to   7.
 (rs|ai) integrals will be sorted in core.
 Complete sort for first half transformation.
 First half transformation complete.
 Complete sort for second half transformation.
 Second half transformation complete.
 SymMOI:  orbitals are not symmetric.
 Spin components of T(2) and E(2):
     alpha-alpha T2 =       0.1604681286D-01 E2=     -0.6286763620D-01
     alpha-beta  T2 =       0.9337070402D-01 E2=     -0.3820442987D+00
     beta-beta   T2 =       0.1604681286D-01 E2=     -0.6286763620D-01
 ANorm=    0.1060879036D+01
 E2 =    -0.5077795710D+00 EUMP2 =    -0.15134229020310D+03
 Leave Link  804 at Mon Mar 30 22:30:13 2020, MaxMem=  2147483648 cpu:              28.4 elap:               1.8
 (Enter /usr/local/g16/g16/l913.exe)
 CIDS:  MDV=  2147483648.
 Frozen-core window:  NFC=   2 NFV=   0.
 IFCWin=0 IBDFC=1 NFBD=     0     0 NFCmp=     0     0 NFFFC=     0     0
 Using DD3R+UMP44R for 1st iteration.
 Using DD4RQ for 2nd and later iterations.
 Keep R2 and R3 ints in memory in canonical form, NReq=99863705.
 FoFCou: FMM=F IPFlag=           0 FMFlag=           0 FMFlg1=           0
         NFxFlg=           0 DoJE=F BraDBF=F KetDBF=F FulRan=T
         wScrn=  0.000000 ICntrl=       600 IOpCl=  0 I1Cent=           0 NGrid=           0
         NMat0=    1 NMatS0=   9591 NMatT0=    0 NMatD0=    1 NMtDS0=    0 NMtDT0=    0
 Symmetry not used in FoFCou.
 Two-electron integral symmetry not used.
 CIDS: In Core Option IDoMem=           1.
 MP4(SDTQ)
 =========
 Produce multiple copies of IABC intergrals
 DD1Dir will call FoFMem   1 times, MxPair=        56
 NAB=    28 NAA=     0 NBB=     0.
 MP4(D)= -0.11267925D-01
 MP4(S)= -0.52260251D-02
 MP4(R+Q)=  0.10792288D-01
 T4(AAA)= -0.66247344D-03
 T4(AAB)= -0.10294330D-01
 Time for triples=       94.12 seconds.
 MP4(T)=   -0.21913607D-01
 E3=       -0.20168456D-02        EUMP3=      -0.15134430705D+03
 E4(DQ)=   -0.47563718D-03        UMP4(DQ)=   -0.15134478269D+03
 E4(SDQ)=  -0.57016623D-02        UMP4(SDQ)=  -0.15135000871D+03
 E4(SDTQ)= -0.27615270D-01        UMP4(SDTQ)= -0.15137192232D+03
 VARIATIONAL ENERGIES WITH THE FIRST-ORDER WAVEFUNCTION:
 E(VAR1)=  -0.15128747605D+03     E(CISD,4)=  -0.15129709278D+03
 Largest amplitude= 4.35D-02
 Discarding MO integrals.
 Leave Link  913 at Mon Mar 30 22:30:20 2020, MaxMem=  2147483648 cpu:             117.8 elap:               7.4
 (Enter /usr/local/g16/g16/l122.exe)
 CPIOFr:  IOpCl= 0 IRwI=-1 IRwCP=  731 ICalc=  3 LCPTot=       59414 Len1MO=      159453 IndFrg=      697226
 Restoring MOs from calculation   5 to rwf and chk.
 CPIOFr:  IOpCl= 0 IRwI=-2 IRwCP=20731 ICalc=  4 LCPTot=       59414 Len1MO=      159453 IndFrg=      856679
 CPIOFr:  IOpCl= 0 IRwI= 4 IRwCP=20731 ICalc=  4 LCPTot=       59414 Len1MO=      159453 IndFrg=      856679
 Counterpoise: doing calculation for fragment   2 using the basis set of the fragment.
 Leave Link  122 at Mon Mar 30 22:30:21 2020, MaxMem=  2147483648 cpu:               0.0 elap:               0.0
 (Enter /usr/local/g16/g16/l301.exe)
 Basis read from rwf:  (5D, 7F)
 No pseudopotential information found on rwf file.
 There are    69 symmetry adapted cartesian basis functions of A   symmetry.
 There are    59 symmetry adapted basis functions of A   symmetry.
    59 basis functions,   217 primitive gaussians,    69 cartesian basis functions
    18 alpha electrons       18 beta electrons
       nuclear repulsion energy         0.0000000000 Hartrees.
 IExCor=    0 DFT=F Ex=HF Corr=None ExCW=0 ScaHFX=  1.000000
 ScaDFX=  1.000000  1.000000  1.000000  1.000000 ScalE2=  1.000000  1.000000
 IRadAn=      5 IRanWt=     -1 IRanGd=            0 ICorTp=0 IEmpDi=  4
 NAtoms=    5 NActive=    1 NUniq=    1 SFac= 1.00D+00 NAtFMM=   60 NAOKFM=F Big=F
 Integral buffers will be    131072 words long.
 Raffenetti 1 integral format.
 Two-electron integral symmetry is turned on.
 No density basis found on file   718.
 Leave Link  301 at Mon Mar 30 22:30:21 2020, MaxMem=  2147483648 cpu:               0.4 elap:               0.0
 (Enter /usr/local/g16/g16/l302.exe)
 NPDir=0 NMtPBC=     1 NCelOv=     1 NCel=       1 NClECP=     1 NCelD=      1
         NCelK=      1 NCelE2=     1 NClLst=     1 CellRange=     0.0.
 One-electron integrals computed using PRISM.
 One-electron integral symmetry used in STVInt
 NBasis=    59 RedAO= T EigKep=  1.06D-02  NBF=    59
 NBsUse=    59 1.00D-06 EigRej= -1.00D+00 NBFU=    59
 Leave Link  302 at Mon Mar 30 22:30:21 2020, MaxMem=  2147483648 cpu:               1.3 elap:               0.1
 (Enter /usr/local/g16/g16/l303.exe)
 DipDrv:  MaxL=1.
 Leave Link  303 at Mon Mar 30 22:30:21 2020, MaxMem=  2147483648 cpu:               0.3 elap:               0.0
 (Enter /usr/local/g16/g16/l401.exe)
 Initial guess from the checkpoint file:  "/mnt/driveB/scratch/matheus/Gau-55736.chk"
 B after Tr=    -0.062988    0.000150    0.000059
         Rot=    1.000000    0.000000    0.000000    0.000000 Ang=   0.00 deg.
 Guess basis will be translated and rotated to current coordinates.
 JPrj=2 DoOrth=T DoCkMO=T.
 Generating alternative initial guess.
 ExpMin= 4.00D-02 ExpMax= 1.17D+07 ExpMxC= 1.33D+04 IAcc=3 IRadAn=         5 AccDes= 0.00D+00
 Harris functional with IExCor=  205 and IRadAn=       5 diagonalized for initial guess.
 HarFok:  IExCor=  205 AccDes= 0.00D+00 IRadAn=         5 IDoV= 1 UseB2=F ITyADJ=14
 ICtDFT=  3500011 ScaDFX=  1.000000  1.000000  1.000000  1.000000
 FoFCou: FMM=F IPFlag=           0 FMFlag=      100000 FMFlg1=           0
         NFxFlg=           0 DoJE=T BraDBF=F KetDBF=T FulRan=T
         wScrn=  0.000000 ICntrl=       500 IOpCl=  0 I1Cent=   200000004 NGrid=           0
         NMat0=    1 NMatS0=      1 NMatT0=    0 NMatD0=    1 NMtDS0=    0 NMtDT0=    0
 Petite list used in FoFCou.
 Harris En= -2751.05937170533    
 Leave Link  401 at Mon Mar 30 22:30:21 2020, MaxMem=  2147483648 cpu:               2.3 elap:               0.1
 (Enter /usr/local/g16/g16/l502.exe)
 Keep R1 ints in memory in canonical form, NReq=14291944.
 FoFCou: FMM=F IPFlag=           0 FMFlag=           0 FMFlg1=           0
         NFxFlg=           0 DoJE=F BraDBF=F KetDBF=F FulRan=T
         wScrn=  0.000000 ICntrl=       600 IOpCl=  0 I1Cent=           0 NGrid=           0
         NMat0=    1 NMatS0=   1770 NMatT0=    0 NMatD0=    1 NMtDS0=    0 NMtDT0=    0
 Symmetry not used in FoFCou.
 Two-electron integral symmetry not used.
 Closed shell SCF:
 Using DIIS extrapolation, IDIIS=  1040.
 NGot=  2147483648 LenX=  2145904888 LenY=  2145899686
 Requested convergence on RMS density matrix=1.00D-08 within 128 cycles.
 Requested convergence on MAX density matrix=1.00D-06.
 Requested convergence on             energy=1.00D-06.
 No special actions if energy rises.

 Cycle   1  Pass 1  IDiag  1:
 E= -2752.05222307625    
 DIIS: error= 2.23D-13 at cycle   1 NSaved=   1.
 NSaved= 1 IEnMin= 1 EnMin= -2752.05222307625     IErMin= 1 ErrMin= 2.23D-13
 ErrMax= 2.23D-13  0.00D+00 EMaxC= 1.00D-01 BMatC= 1.41D-24 BMatP= 1.41D-24
 IDIUse=1 WtCom= 1.00D+00 WtEn= 0.00D+00
 Coeff-Com:  0.100D+01
 Coeff:      0.100D+01
 Gap=     0.719 Goal=   None    Shift=    0.000
 RMSDP=9.31D-15 MaxDP=1.82D-13              OVMax= 1.02D-13

 SCF Done:  E(RHF) =  -2752.05222308     A.U. after    1 cycles
            NFock=  1  Conv=0.93D-14     -V/T= 2.0000
 KE= 2.752048106937D+03 PE=-6.582565276257D+03 EE= 1.078464946243D+03
 Leave Link  502 at Mon Mar 30 22:30:21 2020, MaxMem=  2147483648 cpu:               9.3 elap:               0.6
 (Enter /usr/local/g16/g16/l801.exe)
 Windowed orbitals will be sorted by symmetry type.
 ExpMin= 4.00D-02 ExpMax= 1.17D+07 ExpMxC= 1.33D+04 IAcc=3 IRadAn=         5 AccDes= 0.00D+00
 HarFok:  IExCor=  205 AccDes= 0.00D+00 IRadAn=         5 IDoV=-2 UseB2=F ITyADJ=14
 ICtDFT= 12500011 ScaDFX=  1.000000  1.000000  1.000000  1.000000
 Largest valence mixing into a core orbital is  9.79D-05
 Largest core mixing into a valence orbital is  3.83D-05
 Range of M.O.s used for correlation:    10    59
 NBasis=    59 NAE=    18 NBE=    18 NFC=     9 NFV=     0
 NROrb=     50 NOA=     9 NOB=     9 NVA=    41 NVB=    41
 Leave Link  801 at Mon Mar 30 22:30:22 2020, MaxMem=  2147483648 cpu:               0.4 elap:               0.0
 (Enter /usr/local/g16/g16/l804.exe)
 Closed-shell transformation, MDV=  2147483648 ITran=4 ISComp=1.
 Semi-Direct transformation.
 ModeAB=           2 MOrb=             9 LenV=    2147140326
 LASXX=       482211 LTotXX=      482211 LenRXX=      482211
 LTotAB=      511245 MaxLAS=     1086750 LenRXY=     1086750
 NonZer=     1162350 LenScr=     2357760 LnRSAI=           0
 LnScr1=           0 LExtra=           0 Total=      3926721
 MaxDsk=          -1 SrtSym=           F ITran=            4
 DoSDTr:  NPSUse= 16
 JobTyp=0 Pass  1:  I=   1 to   9.
 (rs|ai) integrals will be sorted in core.
 Complete sort for first half transformation.
 First half transformation complete.
 Complete sort for second half transformation.
 Second half transformation complete.
 SymMOI:  orbitals are not symmetric.
 Spin components of T(2) and E(2):
     alpha-alpha T2 =       0.9484485167D-02 E2=     -0.3552398032D-01
     alpha-beta  T2 =       0.4799866946D-01 E2=     -0.1708433112D+00
     beta-beta   T2 =       0.9484485167D-02 E2=     -0.3552398032D-01
 ANorm=    0.1032941257D+01
 E2 =    -0.2418912719D+00 EUMP2 =    -0.27522941143481D+04
 Leave Link  804 at Mon Mar 30 22:30:22 2020, MaxMem=  2147483648 cpu:               5.0 elap:               0.3
 (Enter /usr/local/g16/g16/l913.exe)
 CIDS:  MDV=  2147483648.
 Frozen-core window:  NFC=   9 NFV=   0.
 IFCWin=0 IBDFC=1 NFBD=     0     0 NFCmp=     0     0 NFFFC=     0     0
 Using DD3R+UMP44R for 1st iteration.
 Using DD4RQ for 2nd and later iterations.
 Keep R2 and R3 ints in memory in canonical form, NReq=15862484.
 FoFCou: FMM=F IPFlag=           0 FMFlag=           0 FMFlg1=           0
         NFxFlg=           0 DoJE=F BraDBF=F KetDBF=F FulRan=T
         wScrn=  0.000000 ICntrl=       600 IOpCl=  0 I1Cent=           0 NGrid=           0
         NMat0=    1 NMatS0=   1770 NMatT0=    0 NMatD0=    1 NMtDS0=    0 NMtDT0=    0
 Symmetry not used in FoFCou.
 Two-electron integral symmetry not used.
 CIDS: In Core Option IDoMem=           1.
 MP4(SDTQ)
 =========
 Produce multiple copies of IABC intergrals
 DD1Dir will call FoFMem   1 times, MxPair=        90
 NAB=    45 NAA=     0 NBB=     0.
 MP4(D)= -0.36913093D-02
 MP4(S)= -0.10734540D-02
 MP4(R+Q)=  0.42077927D-02
 T4(AAA)= -0.32336090D-03
 T4(AAB)= -0.35259699D-02
 Time for triples=        3.39 seconds.
 MP4(T)=   -0.76986616D-02
 E3=       -0.99406389D-02        EUMP3=      -0.27523040550D+04
 E4(DQ)=    0.51648341D-03        UMP4(DQ)=   -0.27523035385D+04
 E4(SDQ)=  -0.55697064D-03        UMP4(SDQ)=  -0.27523046120D+04
 E4(SDTQ)= -0.82556322D-02        UMP4(SDTQ)= -0.27523123106D+04
 VARIATIONAL ENERGIES WITH THE FIRST-ORDER WAVEFUNCTION:
 E(VAR1)=  -0.27522882489D+04     E(CISD,4)=  -0.27522926209D+04
 Largest amplitude= 2.10D-02
 Discarding MO integrals.
 Leave Link  913 at Mon Mar 30 22:30:23 2020, MaxMem=  2147483648 cpu:              13.6 elap:               0.9
 (Enter /usr/local/g16/g16/l122.exe)
 CPIOFr:  IOpCl= 0 IRwI=-1 IRwCP=  731 ICalc=  4 LCPTot=       59414 Len1MO=      159453 IndFrg=      856679
 Restoring MOs from calculation   1 to rwf.
 CPIOFr:  IOpCl= 0 IRwI=-2 IRwCP=  731 ICalc=  0 LCPTot=       59414 Len1MO=      159453 IndFrg=      218867
 Counterpoise corrected energy =   -2903.684520914156
                   BSSE energy =       0.000227030295
              sum of fragments =   -2903.684232937803
           complexation energy =      -0.32 kcal/mole (raw)
           complexation energy =      -0.18 kcal/mole (corrected)
 Leave Link  122 at Mon Mar 30 22:30:23 2020, MaxMem=  2147483648 cpu:               0.1 elap:               0.0
 (Enter /usr/local/g16/g16/l108.exe)
 Scan completed.
 
 Summary of the potential surface scan, energies are +2752 a.u.:
   N      R1          SCF          MP2          MP3         MP4DQ       MP4SDQ       MP4SDTQ  
 ----  ---------  -----------  -----------  -----------  -----------  -----------  -----------
    1     3.0000     -0.05222     -0.29411     -0.30405     -0.30354     -0.30461     -0.31231
    2     3.1000     -0.05222     -0.29411     -0.30405     -0.30354     -0.30461     -0.31231
    3     3.2000     -0.05222     -0.29411     -0.30405     -0.30354     -0.30461     -0.31231
    4     3.3000     -0.05222     -0.29411     -0.30405     -0.30354     -0.30461     -0.31231
    5     3.4000     -0.05222     -0.29411     -0.30405     -0.30354     -0.30461     -0.31231
    6     3.5000     -0.05222     -0.29411     -0.30405     -0.30354     -0.30461     -0.31231
    7     3.6000     -0.05222     -0.29411     -0.30405     -0.30354     -0.30461     -0.31231
    8     3.7000     -0.05222     -0.29411     -0.30405     -0.30354     -0.30461     -0.31231
    9     3.8000     -0.05222     -0.29411     -0.30405     -0.30354     -0.30461     -0.31231
   10     3.9000     -0.05222     -0.29411     -0.30405     -0.30354     -0.30461     -0.31231
   11     4.0000     -0.05222     -0.29411     -0.30405     -0.30354     -0.30461     -0.31231
   12     4.1000     -0.05222     -0.29411     -0.30405     -0.30354     -0.30461     -0.31231
   13     4.2000     -0.05222     -0.29411     -0.30405     -0.30354     -0.30461     -0.31231
   14     4.3000     -0.05222     -0.29411     -0.30405     -0.30354     -0.30461     -0.31231
   15     4.4000     -0.05222     -0.29411     -0.30405     -0.30354     -0.30461     -0.31231
   16     4.5000     -0.05222     -0.29411     -0.30405     -0.30354     -0.30461     -0.31231
   17     4.6000     -0.05222     -0.29411     -0.30405     -0.30354     -0.30461     -0.31231
   18     4.7000     -0.05222     -0.29411     -0.30405     -0.30354     -0.30461     -0.31231
   19     4.8000     -0.05222     -0.29411     -0.30405     -0.30354     -0.30461     -0.31231
   20     4.9000     -0.05222     -0.29411     -0.30405     -0.30354     -0.30461     -0.31231
   21     5.0000     -0.05222     -0.29411     -0.30405     -0.30354     -0.30461     -0.31231
 ----  ---------  -----------  -----------  -----------  -----------  -----------  -----------
  
 Leave Link  108 at Mon Mar 30 22:30:23 2020, MaxMem=  2147483648 cpu:               0.1 elap:               0.0
 (Enter /usr/local/g16/g16/l9999.exe)
 1\1\GINC-ARTHUR-MS-7B09\Scan\RMP4SDTQ-FC\Aug-CC-pVTZ\H2Kr1O2\MATHEUS\3
 0-Mar-2020\1\\#p mp4/aug-cc-PVTz int=ultrafine counterpoise=2 Scan\\PT
 CC\\0,1\O,0,0.,0.,0.725\O,0,0.,0.,-0.725\H,0,0.8633149634,0.3142209495
 ,1.0235104166\H,0,0.,0.9187205947,-1.0235104166\Kr,0,0.,R1,0.\\R1=3.,s
 ,20,0.1\\Version=ES64L-G16RevA.03\HF=-2752.0522231,-2752.0522231,-2752
 .0522231,-2752.0522231,-2752.0522231,-2752.0522231,-2752.0522231,-2752
 .0522231,-2752.0522231,-2752.0522231,-2752.0522231,-2752.0522231,-2752
 .0522231,-2752.0522231,-2752.0522231,-2752.0522231,-2752.0522231,-2752
 .0522231,-2752.0522231,-2752.0522231,-2752.0522231\MP2=-2752.2941143,-
 2752.2941143,-2752.2941143,-2752.2941143,-2752.2941143,-2752.2941143,-
 2752.2941143,-2752.2941143,-2752.2941143,-2752.2941143,-2752.2941143,-
 2752.2941143,-2752.2941143,-2752.2941143,-2752.2941143,-2752.2941143,-
 2752.2941143,-2752.2941143,-2752.2941143,-2752.2941143,-2752.2941143\M
 P3=-2752.304055,-2752.304055,-2752.304055,-2752.304055,-2752.304055,-2
 752.304055,-2752.304055,-2752.304055,-2752.304055,-2752.304055,-2752.3
 04055,-2752.304055,-2752.304055,-2752.304055,-2752.304055,-2752.304055
 ,-2752.304055,-2752.304055,-2752.304055,-2752.304055,-2752.304055\MP4D
 =-2752.3077463,-2752.3077463,-2752.3077463,-2752.3077463,-2752.3077463
 ,-2752.3077463,-2752.3077463,-2752.3077463,-2752.3077463,-2752.3077463
 ,-2752.3077463,-2752.3077463,-2752.3077463,-2752.3077463,-2752.3077463
 ,-2752.3077463,-2752.3077463,-2752.3077463,-2752.3077463,-2752.3077463
 ,-2752.3077463\MP4DQ=-2752.3035385,-2752.3035385,-2752.3035385,-2752.3
 035385,-2752.3035385,-2752.3035385,-2752.3035385,-2752.3035385,-2752.3
 035385,-2752.3035385,-2752.3035385,-2752.3035385,-2752.3035385,-2752.3
 035385,-2752.3035385,-2752.3035385,-2752.3035385,-2752.3035385,-2752.3
 035385,-2752.3035385,-2752.3035385\MP4SDQ=-2752.304612,-2752.304612,-2
 752.304612,-2752.304612,-2752.304612,-2752.304612,-2752.304612,-2752.3
 04612,-2752.304612,-2752.304612,-2752.304612,-2752.304612,-2752.304612
 ,-2752.304612,-2752.304612,-2752.304612,-2752.304612,-2752.304612,-275
 2.304612,-2752.304612,-2752.304612\MP4SDTQ=-2752.3123106,-2752.3123106
 ,-2752.3123106,-2752.3123106,-2752.3123106,-2752.3123106,-2752.3123106
 ,-2752.3123106,-2752.3123106,-2752.3123106,-2752.3123106,-2752.3123106
 ,-2752.3123106,-2752.3123106,-2752.3123106,-2752.3123106,-2752.3123106
 ,-2752.3123106,-2752.3123106,-2752.3123106,-2752.3123106\RMSD=9.887e-1
 0,1.149e-10,2.884e-11,7.210e-12,1.870e-12,4.706e-13,1.326e-13,3.703e-1
 4,2.686e-14,1.418e-14,1.132e-14,7.875e-15,5.370e-15,5.115e-15,5.000e-1
 5,1.164e-14,1.222e-14,7.303e-15,1.016e-14,8.296e-15,9.310e-15\PG=C01 [
 X(H2Kr1O2)]\\@


 READER, WHETHER YOU BE DILETTANTE OR PROFESSOR ... SHOW YOURSELF TO BE
 MORE HUMAN THAN CRITICAL, AND THEN YOUR PLEASURE WILL INCREASE.
                                           -- DOMENICO SCARLATTI (1738)
 Job cpu time:       0 days 20 hours 48 minutes 51.4 seconds.
 Elapsed time:       0 days  1 hours 19 minutes 17.2 seconds.
 File lengths (MBytes):  RWF=   4067 Int=      0 D2E=      0 Chk=     12 Scr=      1
 Normal termination of Gaussian 16 at Mon Mar 30 22:30:23 2020.
