 Entering Gaussian System, Link 0=g16
 Input=Inputs/H2O2-Kr_19.com
 Output=Logs/H2O2-Kr_19.log
 Initial command:
 /usr/local/g16/g16/l1.exe "/mnt/driveB/scratch/matheus/Gau-12780.inp" -scrdir="/mnt/driveB/scratch/matheus/"
 Entering Link 1 = /usr/local/g16/g16/l1.exe PID=     12782.
  
 Copyright (c) 1988,1990,1992,1993,1995,1998,2003,2009,2016,
            Gaussian, Inc.  All Rights Reserved.
  
 This is part of the Gaussian(R) 16 program.  It is based on
 the Gaussian(R) 09 system (copyright 2009, Gaussian, Inc.),
 the Gaussian(R) 03 system (copyright 2003, Gaussian, Inc.),
 the Gaussian(R) 98 system (copyright 1998, Gaussian, Inc.),
 the Gaussian(R) 94 system (copyright 1995, Gaussian, Inc.),
 the Gaussian 92(TM) system (copyright 1992, Gaussian, Inc.),
 the Gaussian 90(TM) system (copyright 1990, Gaussian, Inc.),
 the Gaussian 88(TM) system (copyright 1988, Gaussian, Inc.),
 the Gaussian 86(TM) system (copyright 1986, Carnegie Mellon
 University), and the Gaussian 82(TM) system (copyright 1983,
 Carnegie Mellon University). Gaussian is a federally registered
 trademark of Gaussian, Inc.
  
 This software contains proprietary and confidential information,
 including trade secrets, belonging to Gaussian, Inc.
  
 This software is provided under written license and may be
 used, copied, transmitted, or stored only in accord with that
 written license.
  
 The following legend is applicable only to US Government
 contracts under FAR:
  
                    RESTRICTED RIGHTS LEGEND
  
 Use, reproduction and disclosure by the US Government is
 subject to restrictions as set forth in subparagraphs (a)
 and (c) of the Commercial Computer Software - Restricted
 Rights clause in FAR 52.227-19.
  
 Gaussian, Inc.
 340 Quinnipiac St., Bldg. 40, Wallingford CT 06492
  
  
 ---------------------------------------------------------------
 Warning -- This program may not be used in any manner that
 competes with the business of Gaussian, Inc. or will provide
 assistance to any competitor of Gaussian, Inc.  The licensee
 of this program is prohibited from giving any competitor of
 Gaussian, Inc. access to this program.  By using this program,
 the user acknowledges that Gaussian, Inc. is engaged in the
 business of creating and licensing software in the field of
 computational chemistry and represents and warrants to the
 licensee that it is not a competitor of Gaussian, Inc. and that
 it will not use this program in any manner prohibited above.
 ---------------------------------------------------------------
  

 Cite this work as:
 Gaussian 16, Revision A.03,
 M. J. Frisch, G. W. Trucks, H. B. Schlegel, G. E. Scuseria, 
 M. A. Robb, J. R. Cheeseman, G. Scalmani, V. Barone, 
 G. A. Petersson, H. Nakatsuji, X. Li, M. Caricato, A. V. Marenich, 
 J. Bloino, B. G. Janesko, R. Gomperts, B. Mennucci, H. P. Hratchian, 
 J. V. Ortiz, A. F. Izmaylov, J. L. Sonnenberg, D. Williams-Young, 
 F. Ding, F. Lipparini, F. Egidi, J. Goings, B. Peng, A. Petrone, 
 T. Henderson, D. Ranasinghe, V. G. Zakrzewski, J. Gao, N. Rega, 
 G. Zheng, W. Liang, M. Hada, M. Ehara, K. Toyota, R. Fukuda, 
 J. Hasegawa, M. Ishida, T. Nakajima, Y. Honda, O. Kitao, H. Nakai, 
 T. Vreven, K. Throssell, J. A. Montgomery, Jr., J. E. Peralta, 
 F. Ogliaro, M. J. Bearpark, J. J. Heyd, E. N. Brothers, K. N. Kudin, 
 V. N. Staroverov, T. A. Keith, R. Kobayashi, J. Normand, 
 K. Raghavachari, A. P. Rendell, J. C. Burant, S. S. Iyengar, 
 J. Tomasi, M. Cossi, J. M. Millam, M. Klene, C. Adamo, R. Cammi, 
 J. W. Ochterski, R. L. Martin, K. Morokuma, O. Farkas, 
 J. B. Foresman, and D. J. Fox, Gaussian, Inc., Wallingford CT, 2016.
 
 ******************************************
 Gaussian 16:  ES64L-G16RevA.03 25-Dec-2016
                 1-Apr-2020 
 ******************************************
 %mem=16GB
 %nproc=16
 Will use up to   16 processors via shared memory.
 ----------------------------------------------------
 #p mp4/aug-cc-PVTz int=ultrafine counterpoise=2 Scan
 ----------------------------------------------------
 1/38=1,60=1,62=2,172=1/1,8;
 2/12=2,17=6,18=5,29=3,40=1/2;
 1/38=1,53=2,62=2,63=1/22;
 3/5=16,6=1,7=10,11=9,25=1,30=1,75=-5/1,2,3;
 4//1;
 5/5=2,38=5/2;
 8/6=4,9=120000,10=1/1,4;
 9/5=5/13;
 6/7=2,8=2,9=2,10=2,18=1/1;
 1/53=2,62=2,63=1/22;
 3/5=7,6=11,7=10,11=9,25=1,30=1,75=-5,82=7/1,2,3;
 4//1;
 5/5=2,38=5/2;
 8/6=4,9=120000,10=1/1,4;
 9/5=5/13;
 6/7=2,8=2,9=2,10=2,18=1/1;
 1/53=2,62=2,63=1/22(-6);
 1/60=1,62=2/8(1);
 99/9=1/99;
 2/29=3/2;
 1/53=3,62=2,63=1/22;
 3/5=7,6=11,7=10,11=9,25=1,30=1,75=-5,82=7/1,2,3;
 4/5=5,16=3,69=1/1;
 5/5=2,38=5/2;
 8/6=4,9=120000,10=1/1,4;
 9/5=5/13;
 1/53=3,62=2,63=1/22(-5);
 1/60=1,62=2/8(-8);
 99/9=1/99;
 Leave Link    1 at Wed Apr  1 14:23:09 2020, MaxMem=  2147483648 cpu:               0.3 elap:               0.0
 (Enter /usr/local/g16/g16/l101.exe)
 ----
 PTCC
 ----
 Symbolic Z-matrix:
 Charge =  0 Multiplicity = 1 in supermolecule
 Charge =  0 Multiplicity = 1 in fragment      1.
 Charge =  0 Multiplicity = 1 in fragment      2.
 O(Fragment=1)         0.        0.        0.725 
 O(Fragment=1)         0.        0.       -0.725 
 H(Fragment=1)        -0.15953  -0.90476   1.02351 
 H(Fragment=1)         0.        0.91872  -1.02351 
 Kr(Fragment=2)        0.       R1        0. 
       Variables:
  R1                    3.     Scan 20    0.1    
 
 ITRead=  0  0  0  0  0
 MicOpt= -1 -1 -1 -1 -1
 NAtoms=      5 NQM=        5 NQMF=       0 NMMI=      0 NMMIF=      0
                NMic=       0 NMicF=      0.
                    Isotopes and Nuclear Properties:
 (Nuclear quadrupole moments (NQMom) in fm**2, nuclear magnetic moments (NMagM)
  in nuclear magnetons)

  Atom         1           2           3           4           5
 IAtWgt=          16          16           1           1          84
 AtmWgt=  15.9949146  15.9949146   1.0078250   1.0078250  83.9115064
 NucSpn=           0           0           1           1           0
 AtZEff=  -0.0000000  -0.0000000  -0.0000000  -0.0000000  -0.0000000
 NQMom=    0.0000000   0.0000000   0.0000000   0.0000000   0.0000000
 NMagM=    0.0000000   0.0000000   2.7928460   2.7928460   0.0000000
 AtZNuc=   8.0000000   8.0000000   1.0000000   1.0000000  36.0000000
 Leave Link  101 at Wed Apr  1 14:23:09 2020, MaxMem=  2147483648 cpu:               1.4 elap:               0.1
 (Enter /usr/local/g16/g16/l108.exe)
 Scan the potential surface.
 Variable   Value     No. Steps Step-Size
 -------- ----------- --------- ---------
     1       3.000000      20      0.1000
 A total of     21 points will be computed.
 Leave Link  108 at Wed Apr  1 14:23:09 2020, MaxMem=  2147483648 cpu:               0.0 elap:               0.0
 (Enter /usr/local/g16/g16/l202.exe)
 ---------------------------------------------------------------------------------------------------
                            Z-MATRIX (ANGSTROMS AND DEGREES)
   CD    Cent   Atom    N1       Length/X        N2       Alpha/Y        N3        Beta/Z          J
 ---------------------------------------------------------------------------------------------------
      1      1  O        0   0.000000          0.000000          0.725000
      2      2  O        0   0.000000          0.000000         -0.725000
      3      3  H        0  -0.159534         -0.904763          1.023510
      4      4  H        0   0.000000          0.918721         -1.023510
      5      5  Kr       0   0.000000          3.000000          0.000000
 ---------------------------------------------------------------------------------------------------
                         Z-Matrix orientation:                         
 ---------------------------------------------------------------------
 Center     Atomic      Atomic             Coordinates (Angstroms)
 Number     Number       Type             X           Y           Z
 ---------------------------------------------------------------------
      1          8           0        0.000000    0.000000    0.725000
      2          8           0        0.000000    0.000000   -0.725000
      3          1           0       -0.159534   -0.904763    1.023510
      4          1           0        0.000000    0.918721   -1.023510
      5         36           0        0.000000    3.000000    0.000000
 ---------------------------------------------------------------------
                    Distance matrix (angstroms):
                    1          2          3          4          5
     1  O    0.000000
     2  O    1.450000   0.000000
     3  H    0.966000   1.975180   0.000000
     4  H    1.975180   0.966000   2.746059   0.000000
     5  Kr   3.086361   3.086361   4.039827   2.319331   0.000000
 Stoichiometry    H2KrO2
 Framework group  C1[X(H2KrO2)]
 Deg. of freedom     9
 Full point group                 C1      NOp   1
 Largest Abelian subgroup         C1      NOp   1
 Largest concise Abelian subgroup C1      NOp   1
                         Standard orientation:                         
 ---------------------------------------------------------------------
 Center     Atomic      Atomic             Coordinates (Angstroms)
 Number     Number       Type             X           Y           Z
 ---------------------------------------------------------------------
      1          8           0       -2.013524   -0.686962   -0.021683
      2          8           0       -1.986222    0.762620   -0.000129
      3          1           0       -2.924418   -0.970655    0.129799
      4          1           0       -1.062052    1.043690    0.007960
      5         36           0        0.999568   -0.018842    0.001020
 ---------------------------------------------------------------------
 Rotational constants (GHZ):          26.6931853           2.3029701           2.1204695
 Leave Link  202 at Wed Apr  1 14:23:09 2020, MaxMem=  2147483648 cpu:               0.0 elap:               0.0
 (Enter /usr/local/g16/g16/l122.exe)
 Counterpoise: doing full-system calculation.
 Leave Link  122 at Wed Apr  1 14:23:09 2020, MaxMem=  2147483648 cpu:               0.0 elap:               0.0
 (Enter /usr/local/g16/g16/l301.exe)
 Standard basis: Aug-CC-pVTZ (5D, 7F)
 Ernie: Thresh=  0.10000D-02 Tol=  0.10000D-05 Strict=F.
 Ernie:  38 primitive shells out of 205 were deleted.
 There are   229 symmetry adapted cartesian basis functions of A   symmetry.
 There are   197 symmetry adapted basis functions of A   symmetry.
   197 basis functions,   415 primitive gaussians,   229 cartesian basis functions
    27 alpha electrons       27 beta electrons
       nuclear repulsion energy       148.2893704878 Hartrees.
 IExCor=    0 DFT=F Ex=HF Corr=None ExCW=0 ScaHFX=  1.000000
 ScaDFX=  1.000000  1.000000  1.000000  1.000000 ScalE2=  1.000000  1.000000
 IRadAn=      5 IRanWt=     -1 IRanGd=            0 ICorTp=0 IEmpDi=  4
 NAtoms=    5 NActive=    5 NUniq=    5 SFac= 1.00D+00 NAtFMM=   60 NAOKFM=F Big=F
 Integral buffers will be    131072 words long.
 Raffenetti 1 integral format.
 Two-electron integral symmetry is turned on.
 Leave Link  301 at Wed Apr  1 14:23:09 2020, MaxMem=  2147483648 cpu:               0.3 elap:               0.0
 (Enter /usr/local/g16/g16/l302.exe)
 NPDir=0 NMtPBC=     1 NCelOv=     1 NCel=       1 NClECP=     1 NCelD=      1
         NCelK=      1 NCelE2=     1 NClLst=     1 CellRange=     0.0.
 One-electron integrals computed using PRISM.
 One-electron integral symmetry used in STVInt
 NBasis=   197 RedAO= T EigKep=  1.93D-04  NBF=   197
 NBsUse=   197 1.00D-06 EigRej= -1.00D+00 NBFU=   197
 Leave Link  302 at Wed Apr  1 14:23:10 2020, MaxMem=  2147483648 cpu:               1.7 elap:               0.1
 (Enter /usr/local/g16/g16/l303.exe)
 DipDrv:  MaxL=1.
 Leave Link  303 at Wed Apr  1 14:23:10 2020, MaxMem=  2147483648 cpu:               0.4 elap:               0.0
 (Enter /usr/local/g16/g16/l401.exe)
 ExpMin= 2.53D-02 ExpMax= 1.17D+07 ExpMxC= 1.33D+04 IAcc=3 IRadAn=         5 AccDes= 0.00D+00
 Harris functional with IExCor=  205 and IRadAn=       5 diagonalized for initial guess.
 HarFok:  IExCor=  205 AccDes= 0.00D+00 IRadAn=         5 IDoV= 1 UseB2=F ITyADJ=14
 ICtDFT=  3500011 ScaDFX=  1.000000  1.000000  1.000000  1.000000
 FoFCou: FMM=F IPFlag=           0 FMFlag=      100000 FMFlg1=           0
         NFxFlg=           0 DoJE=T BraDBF=F KetDBF=T FulRan=T
         wScrn=  0.000000 ICntrl=       500 IOpCl=  0 I1Cent=   200000004 NGrid=           0
         NMat0=    1 NMatS0=      1 NMatT0=    0 NMatD0=    1 NMtDS0=    0 NMtDT0=    0
 Petite list used in FoFCou.
 Harris En= -2901.99058403032    
 JPrj=0 DoOrth=F DoCkMO=F.
 Leave Link  401 at Wed Apr  1 14:23:10 2020, MaxMem=  2147483648 cpu:               3.3 elap:               0.2
 (Enter /usr/local/g16/g16/l502.exe)
 Keep R1 ints in memory in canonical form, NReq=203132832.
 FoFCou: FMM=F IPFlag=           0 FMFlag=           0 FMFlg1=           0
         NFxFlg=           0 DoJE=F BraDBF=F KetDBF=F FulRan=T
         wScrn=  0.000000 ICntrl=       600 IOpCl=  0 I1Cent=           0 NGrid=           0
         NMat0=    1 NMatS0=  19503 NMatT0=    0 NMatD0=    1 NMtDS0=    0 NMtDT0=    0
 Symmetry not used in FoFCou.
 Two-electron integral symmetry not used.
 Closed shell SCF:
 Using DIIS extrapolation, IDIIS=  1040.
 NGot=  2147483648 LenX=  1957179903 LenY=  1957127021
 Requested convergence on RMS density matrix=1.00D-08 within 128 cycles.
 Requested convergence on MAX density matrix=1.00D-06.
 Requested convergence on             energy=1.00D-06.
 No special actions if energy rises.

 Cycle   1  Pass 1  IDiag  1:
 E= -2902.76646037914    
 DIIS: error= 3.50D-02 at cycle   1 NSaved=   1.
 NSaved= 1 IEnMin= 1 EnMin= -2902.76646037914     IErMin= 1 ErrMin= 3.50D-02
 ErrMax= 3.50D-02  0.00D+00 EMaxC= 1.00D-01 BMatC= 6.57D-01 BMatP= 6.57D-01
 IDIUse=3 WtCom= 6.50D-01 WtEn= 3.50D-01
 Coeff-Com:  0.100D+01
 Coeff-En:   0.100D+01
 Coeff:      0.100D+01
 Gap=     0.677 Goal=   None    Shift=    0.000
 GapD=    0.677 DampG=2.000 DampE=0.500 DampFc=1.0000 IDamp=-1.
 RMSDP=2.02D-03 MaxDP=1.30D-01              OVMax= 6.29D-02

 Cycle   2  Pass 1  IDiag  1:
 E= -2902.86283256866     Delta-E=       -0.096372189519 Rises=F Damp=F
 DIIS: error= 7.71D-03 at cycle   2 NSaved=   2.
 NSaved= 2 IEnMin= 2 EnMin= -2902.86283256866     IErMin= 2 ErrMin= 7.71D-03
 ErrMax= 7.71D-03  0.00D+00 EMaxC= 1.00D-01 BMatC= 3.53D-02 BMatP= 6.57D-01
 IDIUse=3 WtCom= 9.23D-01 WtEn= 7.71D-02
 Coeff-Com:  0.137D+00 0.863D+00
 Coeff-En:   0.000D+00 0.100D+01
 Coeff:      0.126D+00 0.874D+00
 Gap=     0.515 Goal=   None    Shift=    0.000
 RMSDP=7.42D-04 MaxDP=3.64D-02 DE=-9.64D-02 OVMax= 2.54D-02

 Cycle   3  Pass 1  IDiag  1:
 E= -2902.87569782739     Delta-E=       -0.012865258731 Rises=F Damp=F
 DIIS: error= 2.55D-03 at cycle   3 NSaved=   3.
 NSaved= 3 IEnMin= 3 EnMin= -2902.87569782739     IErMin= 3 ErrMin= 2.55D-03
 ErrMax= 2.55D-03  0.00D+00 EMaxC= 1.00D-01 BMatC= 2.58D-03 BMatP= 3.53D-02
 IDIUse=3 WtCom= 9.75D-01 WtEn= 2.55D-02
 Coeff-Com: -0.662D-02 0.191D+00 0.816D+00
 Coeff-En:   0.000D+00 0.000D+00 0.100D+01
 Coeff:     -0.645D-02 0.186D+00 0.820D+00
 Gap=     0.488 Goal=   None    Shift=    0.000
 RMSDP=1.28D-04 MaxDP=4.93D-03 DE=-1.29D-02 OVMax= 8.40D-03

 Cycle   4  Pass 1  IDiag  1:
 E= -2902.87698653208     Delta-E=       -0.001288704685 Rises=F Damp=F
 DIIS: error= 3.85D-04 at cycle   4 NSaved=   4.
 NSaved= 4 IEnMin= 4 EnMin= -2902.87698653208     IErMin= 4 ErrMin= 3.85D-04
 ErrMax= 3.85D-04  0.00D+00 EMaxC= 1.00D-01 BMatC= 4.17D-05 BMatP= 2.58D-03
 IDIUse=3 WtCom= 9.96D-01 WtEn= 3.85D-03
 Coeff-Com: -0.389D-02 0.121D-01 0.135D+00 0.857D+00
 Coeff-En:   0.000D+00 0.000D+00 0.000D+00 0.100D+01
 Coeff:     -0.388D-02 0.121D-01 0.135D+00 0.857D+00
 Gap=     0.492 Goal=   None    Shift=    0.000
 RMSDP=2.05D-05 MaxDP=6.15D-04 DE=-1.29D-03 OVMax= 1.60D-03

 Cycle   5  Pass 1  IDiag  1:
 E= -2902.87702152346     Delta-E=       -0.000034991389 Rises=F Damp=F
 DIIS: error= 1.47D-04 at cycle   5 NSaved=   5.
 NSaved= 5 IEnMin= 5 EnMin= -2902.87702152346     IErMin= 5 ErrMin= 1.47D-04
 ErrMax= 1.47D-04  0.00D+00 EMaxC= 1.00D-01 BMatC= 3.10D-06 BMatP= 4.17D-05
 IDIUse=3 WtCom= 9.99D-01 WtEn= 1.47D-03
 Coeff-Com:  0.809D-03-0.157D-01-0.665D-01 0.782D-02 0.107D+01
 Coeff-En:   0.000D+00 0.000D+00 0.000D+00 0.000D+00 0.100D+01
 Coeff:      0.808D-03-0.157D-01-0.664D-01 0.781D-02 0.107D+01
 Gap=     0.492 Goal=   None    Shift=    0.000
 RMSDP=9.32D-06 MaxDP=3.15D-04 DE=-3.50D-05 OVMax= 8.34D-04

 Cycle   6  Pass 1  IDiag  1:
 E= -2902.87702601993     Delta-E=       -0.000004496469 Rises=F Damp=F
 DIIS: error= 3.26D-05 at cycle   6 NSaved=   6.
 NSaved= 6 IEnMin= 6 EnMin= -2902.87702601993     IErMin= 6 ErrMin= 3.26D-05
 ErrMax= 3.26D-05  0.00D+00 EMaxC= 1.00D-01 BMatC= 1.90D-07 BMatP= 3.10D-06
 IDIUse=1 WtCom= 1.00D+00 WtEn= 0.00D+00
 Coeff-Com:  0.156D-03 0.144D-03-0.543D-02-0.574D-01-0.231D-01 0.109D+01
 Coeff:      0.156D-03 0.144D-03-0.543D-02-0.574D-01-0.231D-01 0.109D+01
 Gap=     0.492 Goal=   None    Shift=    0.000
 RMSDP=2.54D-06 MaxDP=7.99D-05 DE=-4.50D-06 OVMax= 2.23D-04

 Cycle   7  Pass 1  IDiag  1:
 E= -2902.87702639194     Delta-E=       -0.000000372011 Rises=F Damp=F
 DIIS: error= 9.66D-06 at cycle   7 NSaved=   7.
 NSaved= 7 IEnMin= 7 EnMin= -2902.87702639194     IErMin= 7 ErrMin= 9.66D-06
 ErrMax= 9.66D-06  0.00D+00 EMaxC= 1.00D-01 BMatC= 1.77D-08 BMatP= 1.90D-07
 IDIUse=1 WtCom= 1.00D+00 WtEn= 0.00D+00
 Coeff-Com: -0.380D-04 0.110D-02 0.429D-02-0.451D-02-0.755D-01 0.313D-01
 Coeff-Com:  0.104D+01
 Coeff:     -0.380D-04 0.110D-02 0.429D-02-0.451D-02-0.755D-01 0.313D-01
 Coeff:      0.104D+01
 Gap=     0.492 Goal=   None    Shift=    0.000
 RMSDP=8.54D-07 MaxDP=3.30D-05 DE=-3.72D-07 OVMax= 6.76D-05

 Cycle   8  Pass 1  IDiag  1:
 E= -2902.87702642852     Delta-E=       -0.000000036574 Rises=F Damp=F
 DIIS: error= 4.32D-06 at cycle   8 NSaved=   8.
 NSaved= 8 IEnMin= 8 EnMin= -2902.87702642852     IErMin= 8 ErrMin= 4.32D-06
 ErrMax= 4.32D-06  0.00D+00 EMaxC= 1.00D-01 BMatC= 5.15D-09 BMatP= 1.77D-08
 IDIUse=1 WtCom= 1.00D+00 WtEn= 0.00D+00
 Coeff-Com: -0.282D-04 0.347D-03 0.206D-02 0.474D-02-0.239D-01-0.112D+00
 Coeff-Com:  0.372D+00 0.756D+00
 Coeff:     -0.282D-04 0.347D-03 0.206D-02 0.474D-02-0.239D-01-0.112D+00
 Coeff:      0.372D+00 0.756D+00
 Gap=     0.492 Goal=   None    Shift=    0.000
 RMSDP=2.86D-07 MaxDP=8.29D-06 DE=-3.66D-08 OVMax= 2.83D-05

 Cycle   9  Pass 1  IDiag  1:
 E= -2902.87702643454     Delta-E=       -0.000000006022 Rises=F Damp=F
 DIIS: error= 1.24D-06 at cycle   9 NSaved=   9.
 NSaved= 9 IEnMin= 9 EnMin= -2902.87702643454     IErMin= 9 ErrMin= 1.24D-06
 ErrMax= 1.24D-06  0.00D+00 EMaxC= 1.00D-01 BMatC= 3.83D-10 BMatP= 5.15D-09
 IDIUse=1 WtCom= 1.00D+00 WtEn= 0.00D+00
 Coeff-Com:  0.522D-05-0.159D-03-0.652D-03 0.551D-04 0.111D-01 0.978D-02
 Coeff-Com: -0.177D+00-0.127D+00 0.128D+01
 Coeff:      0.522D-05-0.159D-03-0.652D-03 0.551D-04 0.111D-01 0.978D-02
 Coeff:     -0.177D+00-0.127D+00 0.128D+01
 Gap=     0.492 Goal=   None    Shift=    0.000
 RMSDP=1.87D-07 MaxDP=4.22D-06 DE=-6.02D-09 OVMax= 2.25D-05

 Cycle  10  Pass 1  IDiag  1:
 E= -2902.87702643600     Delta-E=       -0.000000001459 Rises=F Damp=F
 DIIS: error= 6.08D-07 at cycle  10 NSaved=  10.
 NSaved=10 IEnMin=10 EnMin= -2902.87702643600     IErMin=10 ErrMin= 6.08D-07
 ErrMax= 6.08D-07  0.00D+00 EMaxC= 1.00D-01 BMatC= 7.25D-11 BMatP= 3.83D-10
 IDIUse=1 WtCom= 1.00D+00 WtEn= 0.00D+00
 Coeff-Com:  0.942D-06 0.585D-04 0.122D-03-0.999D-03-0.310D-02 0.114D-01
 Coeff-Com:  0.551D-01-0.563D-01-0.680D+00 0.167D+01
 Coeff:      0.942D-06 0.585D-04 0.122D-03-0.999D-03-0.310D-02 0.114D-01
 Coeff:      0.551D-01-0.563D-01-0.680D+00 0.167D+01
 Gap=     0.492 Goal=   None    Shift=    0.000
 RMSDP=1.13D-07 MaxDP=2.47D-06 DE=-1.46D-09 OVMax= 1.65D-05

 Cycle  11  Pass 1  IDiag  1:
 E= -2902.87702643636     Delta-E=       -0.000000000360 Rises=F Damp=F
 DIIS: error= 2.60D-07 at cycle  11 NSaved=  11.
 NSaved=11 IEnMin=11 EnMin= -2902.87702643636     IErMin=11 ErrMin= 2.60D-07
 ErrMax= 2.60D-07  0.00D+00 EMaxC= 1.00D-01 BMatC= 8.83D-12 BMatP= 7.25D-11
 IDIUse=1 WtCom= 1.00D+00 WtEn= 0.00D+00
 Coeff-Com: -0.146D-05-0.131D-04 0.317D-04 0.721D-03-0.569D-04-0.988D-02
 Coeff-Com:  0.126D-03 0.545D-01 0.182D+00-0.900D+00 0.167D+01
 Coeff:     -0.146D-05-0.131D-04 0.317D-04 0.721D-03-0.569D-04-0.988D-02
 Coeff:      0.126D-03 0.545D-01 0.182D+00-0.900D+00 0.167D+01
 Gap=     0.492 Goal=   None    Shift=    0.000
 RMSDP=4.56D-08 MaxDP=1.09D-06 DE=-3.60D-10 OVMax= 7.15D-06

 Cycle  12  Pass 1  IDiag  1:
 E= -2902.87702643640     Delta-E=       -0.000000000045 Rises=F Damp=F
 DIIS: error= 7.91D-08 at cycle  12 NSaved=  12.
 NSaved=12 IEnMin=12 EnMin= -2902.87702643640     IErMin=12 ErrMin= 7.91D-08
 ErrMax= 7.91D-08  0.00D+00 EMaxC= 1.00D-01 BMatC= 8.23D-13 BMatP= 8.83D-12
 IDIUse=1 WtCom= 1.00D+00 WtEn= 0.00D+00
 Coeff-Com:  0.140D-06-0.547D-05-0.235D-04 0.305D-04 0.439D-03-0.342D-03
 Coeff-Com: -0.579D-02 0.149D-02 0.401D-01-0.411D-01-0.293D+00 0.130D+01
 Coeff:      0.140D-06-0.547D-05-0.235D-04 0.305D-04 0.439D-03-0.342D-03
 Coeff:     -0.579D-02 0.149D-02 0.401D-01-0.411D-01-0.293D+00 0.130D+01
 Gap=     0.492 Goal=   None    Shift=    0.000
 RMSDP=1.27D-08 MaxDP=3.14D-07 DE=-4.46D-11 OVMax= 2.00D-06

 Cycle  13  Pass 1  IDiag  1:
 E= -2902.87702643640     Delta-E=       -0.000000000002 Rises=F Damp=F
 DIIS: error= 2.14D-08 at cycle  13 NSaved=  13.
 NSaved=13 IEnMin=13 EnMin= -2902.87702643640     IErMin=13 ErrMin= 2.14D-08
 ErrMax= 2.14D-08  0.00D+00 EMaxC= 1.00D-01 BMatC= 1.13D-13 BMatP= 8.23D-13
 IDIUse=1 WtCom= 1.00D+00 WtEn= 0.00D+00
 Coeff-Com:  0.149D-06 0.221D-05-0.707D-06-0.868D-04-0.496D-04 0.120D-02
 Coeff-Com:  0.499D-03-0.505D-02-0.277D-01 0.107D+00-0.141D+00-0.182D+00
 Coeff-Com:  0.125D+01
 Coeff:      0.149D-06 0.221D-05-0.707D-06-0.868D-04-0.496D-04 0.120D-02
 Coeff:      0.499D-03-0.505D-02-0.277D-01 0.107D+00-0.141D+00-0.182D+00
 Coeff:      0.125D+01
 Gap=     0.492 Goal=   None    Shift=    0.000
 RMSDP=3.51D-09 MaxDP=7.70D-08 DE=-1.82D-12 OVMax= 4.77D-07

 SCF Done:  E(RHF) =  -2902.87702644     A.U. after   13 cycles
            NFock= 13  Conv=0.35D-08     -V/T= 2.0001
 KE= 2.902624494315D+03 PE=-7.237197611613D+03 EE= 1.283406720374D+03
 Leave Link  502 at Wed Apr  1 14:23:14 2020, MaxMem=  2147483648 cpu:              27.4 elap:               3.7
 (Enter /usr/local/g16/g16/l801.exe)
 Windowed orbitals will be sorted by symmetry type.
 ExpMin= 2.53D-02 ExpMax= 1.17D+07 ExpMxC= 1.33D+04 IAcc=3 IRadAn=         5 AccDes= 0.00D+00
 HarFok:  IExCor=  205 AccDes= 0.00D+00 IRadAn=         5 IDoV=-2 UseB2=F ITyADJ=14
 ICtDFT= 12500011 ScaDFX=  1.000000  1.000000  1.000000  1.000000
 Largest valence mixing into a core orbital is  1.16D-04
 Largest core mixing into a valence orbital is  3.82D-05
 Range of M.O.s used for correlation:    12   197
 NBasis=   197 NAE=    27 NBE=    27 NFC=    11 NFV=     0
 NROrb=    186 NOA=    16 NOB=    16 NVA=   170 NVB=   170

 **** Warning!!: The largest alpha MO coefficient is  0.12555090D+02

 Leave Link  801 at Wed Apr  1 14:23:14 2020, MaxMem=  2147483648 cpu:               0.7 elap:               0.0
 (Enter /usr/local/g16/g16/l804.exe)
 Closed-shell transformation, MDV=  2147483648 ITran=4 ISComp=1.
 Unit  1 TFree=       1248993 TCopy=        808885.
 Semi-Direct transformation.
 ModeAB=           2 MOrb=            16 LenV=    2146362460
 LASXX=     48528660 LTotXX=    48528660 LenRXX=    48528660
 LTotAB=    49298776 MaxLAS=    78372960 LenRXY=    78372960
 NonZer=    97057320 LenScr=   146313216 LnRSAI=           0
 LnScr1=           0 LExtra=           0 Total=    273214836
 MaxDsk=          -1 SrtSym=           F ITran=            4
 DoSDTr:  NPSUse= 16
 JobTyp=0 Pass  1:  I=   1 to  16.
 (rs|ai) integrals will be sorted in core.
 Complete sort for first half transformation.
 First half transformation complete.
 Begin second half transformation for I=  10.
 Begin second half transformation for I=  10.
 Complete sort for second half transformation.
 Second half transformation complete.
 SymMOI:  orbitals are not symmetric.
 Spin components of T(2) and E(2):
     alpha-alpha T2 =       0.2590598825D-01 E2=     -0.9986450451D-01
     alpha-beta  T2 =       0.1417348757D+00 E2=     -0.5562107546D+00
     beta-beta   T2 =       0.2590598825D-01 E2=     -0.9986450451D-01
 ANorm=    0.1092495699D+01
 E2 =    -0.7559397636D+00 EUMP2 =    -0.29036329662000D+04
 Leave Link  804 at Wed Apr  1 14:23:25 2020, MaxMem=  2147483648 cpu:             180.2 elap:              11.3
 (Enter /usr/local/g16/g16/l913.exe)
 CIDS:  MDV=  2147483648.
 Frozen-core window:  NFC=  11 NFV=   0.
 IFCWin=0 IBDFC=1 NFBD=     0     0 NFCmp=     0     0 NFFFC=     0     0
 Using DD3R+UMP44R for 1st iteration.
 Using DD4RQ for 2nd and later iterations.
 Keep R2 and R3 ints in memory in canonical form, NReq=393334317.
 FoFCou: FMM=F IPFlag=           0 FMFlag=           0 FMFlg1=           0
         NFxFlg=           0 DoJE=F BraDBF=F KetDBF=F FulRan=T
         wScrn=  0.000000 ICntrl=       600 IOpCl=  0 I1Cent=           0 NGrid=           0
         NMat0=    1 NMatS0=  19503 NMatT0=    0 NMatD0=    1 NMtDS0=    0 NMtDT0=    0
 Symmetry not used in FoFCou.
 Two-electron integral symmetry not used.
 CIDS: In Core Option IDoMem=           1.
 MP4(SDTQ)
 =========
 Produce multiple copies of IABC intergrals
 DD1Dir will call FoFMem   1 times, MxPair=       272
 NAB=   136 NAA=     0 NBB=     0.
 MP4(D)= -0.14942860D-01
 MP4(S)= -0.63899437D-02
 MP4(R+Q)=  0.15343024D-01
 T4(AAA)= -0.10371747D-02
 T4(AAB)= -0.14126445D-01
 Time for triples=     1780.93 seconds.
 MP4(T)=   -0.30327239D-01
 E3=       -0.11342726D-01        EUMP3=      -0.29036443089D+04
 E4(DQ)=    0.40016401D-03        UMP4(DQ)=   -0.29036439088D+04
 E4(SDQ)=  -0.59897797D-02        UMP4(SDQ)=  -0.29036502987D+04
 E4(SDTQ)= -0.36317018D-01        UMP4(SDTQ)= -0.29036806259D+04
 VARIATIONAL ENERGIES WITH THE FIRST-ORDER WAVEFUNCTION:
 E(VAR1)=  -0.29035198856D+04     E(CISD,4)=  -0.29035193320D+04
 Largest amplitude= 3.01D-02
 Discarding MO integrals.
 Leave Link  913 at Wed Apr  1 14:25:24 2020, MaxMem=  2147483648 cpu:            1905.4 elap:             119.3
 (Enter /usr/local/g16/g16/l601.exe)
 Copying SCF densities to generalized density rwf, IOpCl= 0 IROHF=0.

 **********************************************************************

            Population analysis using the SCF density.

 **********************************************************************

 Orbital symmetries:
       Occupied  (A) (A) (A) (A) (A) (A) (A) (A) (A) (A) (A) (A)
                 (A) (A) (A) (A) (A) (A) (A) (A) (A) (A) (A) (A)
                 (A) (A) (A)
       Virtual   (A) (A) (A) (A) (A) (A) (A) (A) (A) (A) (A) (A)
                 (A) (A) (A) (A) (A) (A) (A) (A) (A) (A) (A) (A)
                 (A) (A) (A) (A) (A) (A) (A) (A) (A) (A) (A) (A)
                 (A) (A) (A) (A) (A) (A) (A) (A) (A) (A) (A) (A)
                 (A) (A) (A) (A) (A) (A) (A) (A) (A) (A) (A) (A)
                 (A) (A) (A) (A) (A) (A) (A) (A) (A) (A) (A) (A)
                 (A) (A) (A) (A) (A) (A) (A) (A) (A) (A) (A) (A)
                 (A) (A) (A) (A) (A) (A) (A) (A) (A) (A) (A) (A)
                 (A) (A) (A) (A) (A) (A) (A) (A) (A) (A) (A) (A)
                 (A) (A) (A) (A) (A) (A) (A) (A) (A) (A) (A) (A)
                 (A) (A) (A) (A) (A) (A) (A) (A) (A) (A) (A) (A)
                 (A) (A) (A) (A) (A) (A) (A) (A) (A) (A) (A) (A)
                 (A) (A) (A) (A) (A) (A) (A) (A) (A) (A) (A) (A)
                 (A) (A) (A) (A) (A) (A) (A) (A) (A) (A) (A) (A)
                 (A) (A)
 The electronic state is 1-A.
 Alpha  occ. eigenvalues -- -520.17281 -69.91035 -63.01694 -63.01691 -63.01688
 Alpha  occ. eigenvalues --  -20.62659 -20.62316 -10.85699  -8.33922  -8.33896
 Alpha  occ. eigenvalues --   -8.33881  -3.83302  -3.83297  -3.83277  -3.83248
 Alpha  occ. eigenvalues --   -3.83245  -1.46414  -1.21668  -1.16281  -0.71560
 Alpha  occ. eigenvalues --   -0.69898  -0.62339  -0.54382  -0.53178  -0.52803
 Alpha  occ. eigenvalues --   -0.51740  -0.45589
 Alpha virt. eigenvalues --    0.03594   0.04508   0.08878   0.10594   0.11427
 Alpha virt. eigenvalues --    0.12475   0.15271   0.16458   0.17384   0.17805
 Alpha virt. eigenvalues --    0.19687   0.21240   0.25152   0.26059   0.26676
 Alpha virt. eigenvalues --    0.28300   0.29196   0.31113   0.33605   0.35904
 Alpha virt. eigenvalues --    0.36724   0.37587   0.39158   0.41720   0.43117
 Alpha virt. eigenvalues --    0.44710   0.46040   0.52400   0.56776   0.59317
 Alpha virt. eigenvalues --    0.61506   0.65192   0.69570   0.70729   0.74376
 Alpha virt. eigenvalues --    0.76311   0.77638   0.78678   0.79749   0.82008
 Alpha virt. eigenvalues --    0.84109   0.84587   0.85255   0.86462   0.87627
 Alpha virt. eigenvalues --    0.89879   0.91312   0.93561   0.93864   0.97040
 Alpha virt. eigenvalues --    0.98831   1.00701   1.01885   1.03406   1.07539
 Alpha virt. eigenvalues --    1.09571   1.11695   1.13076   1.14054   1.17123
 Alpha virt. eigenvalues --    1.20320   1.21492   1.23805   1.24817   1.27588
 Alpha virt. eigenvalues --    1.35215   1.39960   1.46199   1.49995   1.50593
 Alpha virt. eigenvalues --    1.57624   1.61125   1.62221   1.65023   1.69216
 Alpha virt. eigenvalues --    1.71824   1.90783   1.94772   1.99290   2.08543
 Alpha virt. eigenvalues --    2.13610   2.14133   2.20391   2.28224   2.30171
 Alpha virt. eigenvalues --    2.32800   2.33766   2.37065   2.41296   2.42780
 Alpha virt. eigenvalues --    2.45434   2.48042   2.53241   2.53540   2.54967
 Alpha virt. eigenvalues --    2.56185   2.58331   2.61892   2.64056   2.66388
 Alpha virt. eigenvalues --    2.68792   2.69940   2.71731   2.74050   2.75591
 Alpha virt. eigenvalues --    2.78598   2.80923   2.82776   2.86420   2.88675
 Alpha virt. eigenvalues --    2.89455   2.93762   2.94851   3.01044   3.09595
 Alpha virt. eigenvalues --    3.14421   3.27657   3.28805   3.35548   3.74350
 Alpha virt. eigenvalues --    3.95872   4.09221   4.15115   4.30073   4.31292
 Alpha virt. eigenvalues --    4.36094   4.37747   4.39253   4.44316   4.50662
 Alpha virt. eigenvalues --    4.59356   4.66866   4.78798   4.83493   5.05052
 Alpha virt. eigenvalues --    5.15523   5.28348   5.29230   5.34354   5.34800
 Alpha virt. eigenvalues --    5.64034   5.81212   6.16025   6.31046   6.42939
 Alpha virt. eigenvalues --    6.47116   6.64422   6.70472   6.78585   6.82174
 Alpha virt. eigenvalues --    7.08508   7.10797   7.11273   7.19779   7.21306
 Alpha virt. eigenvalues --    7.25585   7.31270   7.32814   7.34400   7.35892
 Alpha virt. eigenvalues --    7.40009   7.62351   7.62589   7.76624   8.02759
 Alpha virt. eigenvalues --    8.23941   8.52409   8.55581  14.78454  15.24550
          Condensed to atoms (all electrons):
               1          2          3          4          5
     1  O    8.118318  -0.057499   0.228476  -0.015707  -0.029952
     2  O   -0.057499   8.123035  -0.006374   0.264618  -0.011103
     3  H    0.228476  -0.006374   0.518770   0.004988   0.002460
     4  H   -0.015707   0.264618   0.004988   0.459051  -0.004729
     5  Kr  -0.029952  -0.011103   0.002460  -0.004729  36.030471
 Mulliken charges:
               1
     1  O   -0.243636
     2  O   -0.312677
     3  H    0.251680
     4  H    0.291780
     5  Kr   0.012853
 Sum of Mulliken charges =  -0.00000
 Mulliken charges with hydrogens summed into heavy atoms:
               1
     1  O    0.008044
     2  O   -0.020897
     5  Kr   0.012853
         Mulliken charges condensed to fragments:
      1     -0.012853
      2      0.012853
 Electronic spatial extent (au):  <R**2>=            492.2134
 Charge=             -0.0000 electrons
 Dipole moment (field-independent basis, Debye):
    X=              0.1610    Y=             -0.2665    Z=              0.2880  Tot=              0.4241
 Quadrupole moment (field-independent basis, Debye-Ang):
   XX=            -26.2005   YY=            -28.3199   ZZ=            -30.4813
   XY=              3.9928   XZ=             -0.9124   YZ=             -0.3004
 Traceless Quadrupole moment (field-independent basis, Debye-Ang):
   XX=              2.1334   YY=              0.0140   ZZ=             -2.1474
   XY=              3.9928   XZ=             -0.9124   YZ=             -0.3004
 Octapole moment (field-independent basis, Debye-Ang**2):
  XXX=             -2.3019  YYY=             -0.5654  ZZZ=              0.1147  XYY=              4.0441
  XXY=            -16.9794  XXZ=              2.7582  XZZ=              8.0376  YZZ=             -0.3200
  YYZ=              0.3534  XYZ=              0.9374
 Hexadecapole moment (field-independent basis, Debye-Ang**3):
 XXXX=           -334.3334 YYYY=            -63.1978 ZZZZ=            -28.7202 XXXY=             53.9334
 XXXZ=             -8.4596 YYYX=              5.7192 YYYZ=             -0.3714 ZZZX=             -0.3610
 ZZZY=             -0.1606 XXYY=            -74.5802 XXZZ=            -78.9986 YYZZ=            -17.1239
 XXYZ=             -2.8508 YYXZ=             -1.0375 ZZXY=              0.4974
 N-N= 1.482893704878D+02 E-N=-7.237197612372D+03  KE= 2.902624494315D+03
 Leave Link  601 at Wed Apr  1 14:25:25 2020, MaxMem=  2147483648 cpu:               0.5 elap:               0.0
 (Enter /usr/local/g16/g16/l122.exe)
 CPIOFr:  IOpCl= 0 IRwI=-1 IRwCP=  731 ICalc= -1 LCPTot=       59414 Len1MO=      159453 IndFrg=       59414
 CPIOFr:  IOpCl= 0 IRwI=-1 IRwCP=  731 ICalc=  0 LCPTot=       59414 Len1MO=      159453 IndFrg=      218867
 Counterpoise: doing calculation for fragment   1 using the basis set of the full-system, NewBq=T
 Leave Link  122 at Wed Apr  1 14:25:25 2020, MaxMem=  2147483648 cpu:               0.0 elap:               0.0
 (Enter /usr/local/g16/g16/l301.exe)
 Basis read from rwf:  (5D, 7F)
 No pseudopotential information found on rwf file.
 There are   229 symmetry adapted cartesian basis functions of A   symmetry.
 There are   197 symmetry adapted basis functions of A   symmetry.
   197 basis functions,   415 primitive gaussians,   229 cartesian basis functions
     9 alpha electrons        9 beta electrons
       nuclear repulsion energy        36.6009459102 Hartrees.
 IExCor=    0 DFT=F Ex=HF Corr=None ExCW=0 ScaHFX=  1.000000
 ScaDFX=  1.000000  1.000000  1.000000  1.000000 ScalE2=  1.000000  1.000000
 IRadAn=      5 IRanWt=     -1 IRanGd=            0 ICorTp=0 IEmpDi=  4
 NAtoms=    5 NActive=    5 NUniq=    5 SFac= 1.00D+00 NAtFMM=   60 NAOKFM=F Big=F
 Integral buffers will be    131072 words long.
 Raffenetti 1 integral format.
 Two-electron integral symmetry is turned on.
 No density basis found on file   718.
 Leave Link  301 at Wed Apr  1 14:25:25 2020, MaxMem=  2147483648 cpu:               0.4 elap:               0.0
 (Enter /usr/local/g16/g16/l302.exe)
 NPDir=0 NMtPBC=     1 NCelOv=     1 NCel=       1 NClECP=     1 NCelD=      1
         NCelK=      1 NCelE2=     1 NClLst=     1 CellRange=     0.0.
 One-electron integrals computed using PRISM.
 One-electron integral symmetry used in STVInt
 NBasis=   197 RedAO= T EigKep=  1.93D-04  NBF=   197
 NBsUse=   197 1.00D-06 EigRej= -1.00D+00 NBFU=   197
 Leave Link  302 at Wed Apr  1 14:25:25 2020, MaxMem=  2147483648 cpu:               1.7 elap:               0.1
 (Enter /usr/local/g16/g16/l303.exe)
 DipDrv:  MaxL=1.
 Leave Link  303 at Wed Apr  1 14:25:25 2020, MaxMem=  2147483648 cpu:               0.4 elap:               0.0
 (Enter /usr/local/g16/g16/l401.exe)
 ExpMin= 2.53D-02 ExpMax= 1.17D+07 ExpMxC= 1.33D+04 IAcc=3 IRadAn=         5 AccDes= 0.00D+00
 Harris functional with IExCor=  205 and IRadAn=       5 diagonalized for initial guess.
 HarFok:  IExCor=  205 AccDes= 0.00D+00 IRadAn=         5 IDoV= 1 UseB2=F ITyADJ=14
 ICtDFT=  3500011 ScaDFX=  1.000000  1.000000  1.000000  1.000000
 FoFCou: FMM=F IPFlag=           0 FMFlag=      100000 FMFlg1=           0
         NFxFlg=           0 DoJE=T BraDBF=F KetDBF=T FulRan=T
         wScrn=  0.000000 ICntrl=       500 IOpCl=  0 I1Cent=   200000004 NGrid=           0
         NMat0=    1 NMatS0=      1 NMatT0=    0 NMatD0=    1 NMtDS0=    0 NMtDT0=    0
 Petite list used in FoFCou.
 Harris En= -150.933478576041    
 JPrj=0 DoOrth=F DoCkMO=F.
 Leave Link  401 at Wed Apr  1 14:25:25 2020, MaxMem=  2147483648 cpu:               3.3 elap:               0.2
 (Enter /usr/local/g16/g16/l502.exe)
 Keep R1 ints in memory in canonical form, NReq=203132832.
 FoFCou: FMM=F IPFlag=           0 FMFlag=           0 FMFlg1=           0
         NFxFlg=           0 DoJE=F BraDBF=F KetDBF=F FulRan=T
         wScrn=  0.000000 ICntrl=       600 IOpCl=  0 I1Cent=           0 NGrid=           0
         NMat0=    1 NMatS0=  19503 NMatT0=    0 NMatD0=    1 NMtDS0=    0 NMtDT0=    0
 Symmetry not used in FoFCou.
 Two-electron integral symmetry not used.
 Closed shell SCF:
 Using DIIS extrapolation, IDIIS=  1040.
 NGot=  2147483648 LenX=  1957179903 LenY=  1957127021
 Requested convergence on RMS density matrix=1.00D-08 within 128 cycles.
 Requested convergence on MAX density matrix=1.00D-06.
 Requested convergence on             energy=1.00D-06.
 No special actions if energy rises.

 Cycle   1  Pass 1  IDiag  1:
 E= -150.771734604582    
 DIIS: error= 2.33D-02 at cycle   1 NSaved=   1.
 NSaved= 1 IEnMin= 1 EnMin= -150.771734604582     IErMin= 1 ErrMin= 2.33D-02
 ErrMax= 2.33D-02  0.00D+00 EMaxC= 1.00D-01 BMatC= 2.27D-01 BMatP= 2.27D-01
 IDIUse=3 WtCom= 7.67D-01 WtEn= 2.33D-01
 Coeff-Com:  0.100D+01
 Coeff-En:   0.100D+01
 Coeff:      0.100D+01
 Gap=     0.681 Goal=   None    Shift=    0.000
 GapD=    0.681 DampG=2.000 DampE=0.500 DampFc=1.0000 IDamp=-1.
 RMSDP=9.42D-04 MaxDP=2.93D-02              OVMax= 6.76D-02

 Cycle   2  Pass 1  IDiag  1:
 E= -150.823907823416     Delta-E=       -0.052173218834 Rises=F Damp=F
 DIIS: error= 6.57D-03 at cycle   2 NSaved=   2.
 NSaved= 2 IEnMin= 2 EnMin= -150.823907823416     IErMin= 2 ErrMin= 6.57D-03
 ErrMax= 6.57D-03  0.00D+00 EMaxC= 1.00D-01 BMatC= 1.52D-02 BMatP= 2.27D-01
 IDIUse=3 WtCom= 9.34D-01 WtEn= 6.57D-02
 Coeff-Com:  0.999D-01 0.900D+00
 Coeff-En:   0.000D+00 0.100D+01
 Coeff:      0.933D-01 0.907D+00
 Gap=     0.516 Goal=   None    Shift=    0.000
 RMSDP=4.55D-04 MaxDP=2.42D-02 DE=-5.22D-02 OVMax= 2.73D-02

 Cycle   3  Pass 1  IDiag  1:
 E= -150.831413384393     Delta-E=       -0.007505560977 Rises=F Damp=F
 DIIS: error= 2.77D-03 at cycle   3 NSaved=   3.
 NSaved= 3 IEnMin= 3 EnMin= -150.831413384393     IErMin= 3 ErrMin= 2.77D-03
 ErrMax= 2.77D-03  0.00D+00 EMaxC= 1.00D-01 BMatC= 2.13D-03 BMatP= 1.52D-02
 IDIUse=3 WtCom= 9.72D-01 WtEn= 2.77D-02
 Coeff-Com: -0.205D-01 0.251D+00 0.769D+00
 Coeff-En:   0.000D+00 0.000D+00 0.100D+01
 Coeff:     -0.199D-01 0.244D+00 0.776D+00
 Gap=     0.488 Goal=   None    Shift=    0.000
 RMSDP=1.01D-04 MaxDP=3.40D-03 DE=-7.51D-03 OVMax= 8.96D-03

 Cycle   4  Pass 1  IDiag  1:
 E= -150.832729989620     Delta-E=       -0.001316605227 Rises=F Damp=F
 DIIS: error= 3.03D-04 at cycle   4 NSaved=   4.
 NSaved= 4 IEnMin= 4 EnMin= -150.832729989620     IErMin= 4 ErrMin= 3.03D-04
 ErrMax= 3.03D-04  0.00D+00 EMaxC= 1.00D-01 BMatC= 1.44D-05 BMatP= 2.13D-03
 IDIUse=3 WtCom= 9.97D-01 WtEn= 3.03D-03
 Coeff-Com: -0.164D-02-0.115D-01 0.741D-02 0.101D+01
 Coeff-En:   0.000D+00 0.000D+00 0.000D+00 0.100D+01
 Coeff:     -0.163D-02-0.115D-01 0.739D-02 0.101D+01
 Gap=     0.490 Goal=   None    Shift=    0.000
 RMSDP=1.46D-05 MaxDP=3.84D-04 DE=-1.32D-03 OVMax= 1.34D-03

 Cycle   5  Pass 1  IDiag  1:
 E= -150.832750322901     Delta-E=       -0.000020333281 Rises=F Damp=F
 DIIS: error= 8.90D-05 at cycle   5 NSaved=   5.
 NSaved= 5 IEnMin= 5 EnMin= -150.832750322901     IErMin= 5 ErrMin= 8.90D-05
 ErrMax= 8.90D-05  0.00D+00 EMaxC= 1.00D-01 BMatC= 1.38D-06 BMatP= 1.44D-05
 IDIUse=1 WtCom= 1.00D+00 WtEn= 0.00D+00
 Coeff-Com:  0.162D-02-0.163D-01-0.571D-01-0.171D+00 0.124D+01
 Coeff:      0.162D-02-0.163D-01-0.571D-01-0.171D+00 0.124D+01
 Gap=     0.490 Goal=   None    Shift=    0.000
 RMSDP=7.98D-06 MaxDP=2.09D-04 DE=-2.03D-05 OVMax= 7.76D-04

 Cycle   6  Pass 1  IDiag  1:
 E= -150.832753563587     Delta-E=       -0.000003240686 Rises=F Damp=F
 DIIS: error= 1.75D-05 at cycle   6 NSaved=   6.
 NSaved= 6 IEnMin= 6 EnMin= -150.832753563587     IErMin= 6 ErrMin= 1.75D-05
 ErrMax= 1.75D-05  0.00D+00 EMaxC= 1.00D-01 BMatC= 5.64D-08 BMatP= 1.38D-06
 IDIUse=1 WtCom= 1.00D+00 WtEn= 0.00D+00
 Coeff-Com: -0.383D-03 0.493D-02 0.176D-01 0.191D-01-0.403D+00 0.136D+01
 Coeff:     -0.383D-03 0.493D-02 0.176D-01 0.191D-01-0.403D+00 0.136D+01
 Gap=     0.490 Goal=   None    Shift=    0.000
 RMSDP=1.88D-06 MaxDP=5.75D-05 DE=-3.24D-06 OVMax= 1.73D-04

 Cycle   7  Pass 1  IDiag  1:
 E= -150.832753720574     Delta-E=       -0.000000156987 Rises=F Damp=F
 DIIS: error= 2.39D-06 at cycle   7 NSaved=   7.
 NSaved= 7 IEnMin= 7 EnMin= -150.832753720574     IErMin= 7 ErrMin= 2.39D-06
 ErrMax= 2.39D-06  0.00D+00 EMaxC= 1.00D-01 BMatC= 1.84D-09 BMatP= 5.64D-08
 IDIUse=1 WtCom= 1.00D+00 WtEn= 0.00D+00
 Coeff-Com:  0.275D-04-0.496D-03-0.223D-02-0.859D-03 0.543D-01-0.309D+00
 Coeff-Com:  0.126D+01
 Coeff:      0.275D-04-0.496D-03-0.223D-02-0.859D-03 0.543D-01-0.309D+00
 Coeff:      0.126D+01
 Gap=     0.490 Goal=   None    Shift=    0.000
 RMSDP=3.35D-07 MaxDP=6.91D-06 DE=-1.57D-07 OVMax= 4.15D-05

 Cycle   8  Pass 1  IDiag  1:
 E= -150.832753726472     Delta-E=       -0.000000005898 Rises=F Damp=F
 DIIS: error= 1.25D-06 at cycle   8 NSaved=   8.
 NSaved= 8 IEnMin= 8 EnMin= -150.832753726472     IErMin= 8 ErrMin= 1.25D-06
 ErrMax= 1.25D-06  0.00D+00 EMaxC= 1.00D-01 BMatC= 2.64D-10 BMatP= 1.84D-09
 IDIUse=1 WtCom= 1.00D+00 WtEn= 0.00D+00
 Coeff-Com:  0.113D-04-0.720D-04-0.100D-03-0.251D-02 0.742D-02 0.381D-01
 Coeff-Com: -0.508D+00 0.147D+01
 Coeff:      0.113D-04-0.720D-04-0.100D-03-0.251D-02 0.742D-02 0.381D-01
 Coeff:     -0.508D+00 0.147D+01
 Gap=     0.490 Goal=   None    Shift=    0.000
 RMSDP=1.62D-07 MaxDP=3.99D-06 DE=-5.90D-09 OVMax= 2.51D-05

 Cycle   9  Pass 1  IDiag  1:
 E= -150.832753727539     Delta-E=       -0.000000001068 Rises=F Damp=F
 DIIS: error= 6.49D-07 at cycle   9 NSaved=   9.
 NSaved= 9 IEnMin= 9 EnMin= -150.832753727539     IErMin= 9 ErrMin= 6.49D-07
 ErrMax= 6.49D-07  0.00D+00 EMaxC= 1.00D-01 BMatC= 6.88D-11 BMatP= 2.64D-10
 IDIUse=1 WtCom= 1.00D+00 WtEn= 0.00D+00
 Coeff-Com: -0.189D-05 0.602D-04 0.316D-03-0.387D-03-0.662D-02 0.523D-01
 Coeff-Com: -0.275D+00 0.287D+00 0.942D+00
 Coeff:     -0.189D-05 0.602D-04 0.316D-03-0.387D-03-0.662D-02 0.523D-01
 Coeff:     -0.275D+00 0.287D+00 0.942D+00
 Gap=     0.490 Goal=   None    Shift=    0.000
 RMSDP=6.81D-08 MaxDP=1.72D-06 DE=-1.07D-09 OVMax= 1.09D-05

 Cycle  10  Pass 1  IDiag  1:
 E= -150.832753727764     Delta-E=       -0.000000000224 Rises=F Damp=F
 DIIS: error= 3.98D-07 at cycle  10 NSaved=  10.
 NSaved=10 IEnMin=10 EnMin= -150.832753727764     IErMin=10 ErrMin= 3.98D-07
 ErrMax= 3.98D-07  0.00D+00 EMaxC= 1.00D-01 BMatC= 2.22D-11 BMatP= 6.88D-11
 IDIUse=1 WtCom= 1.00D+00 WtEn= 0.00D+00
 Coeff-Com: -0.584D-05 0.437D-04 0.984D-04 0.136D-02-0.537D-02-0.951D-02
 Coeff-Com:  0.207D+00-0.643D+00 0.618D-01 0.139D+01
 Coeff:     -0.584D-05 0.437D-04 0.984D-04 0.136D-02-0.537D-02-0.951D-02
 Coeff:      0.207D+00-0.643D+00 0.618D-01 0.139D+01
 Gap=     0.490 Goal=   None    Shift=    0.000
 RMSDP=6.93D-08 MaxDP=1.77D-06 DE=-2.24D-10 OVMax= 1.12D-05

 Cycle  11  Pass 1  IDiag  1:
 E= -150.832753727872     Delta-E=       -0.000000000108 Rises=F Damp=F
 DIIS: error= 9.63D-08 at cycle  11 NSaved=  11.
 NSaved=11 IEnMin=11 EnMin= -150.832753727872     IErMin=11 ErrMin= 9.63D-08
 ErrMax= 9.63D-08  0.00D+00 EMaxC= 1.00D-01 BMatC= 1.51D-12 BMatP= 2.22D-11
 IDIUse=1 WtCom= 1.00D+00 WtEn= 0.00D+00
 Coeff-Com:  0.155D-05-0.198D-04-0.706D-04-0.105D-03 0.177D-02-0.435D-02
 Coeff-Com: -0.122D-01 0.108D+00-0.161D+00-0.313D+00 0.138D+01
 Coeff:      0.155D-05-0.198D-04-0.706D-04-0.105D-03 0.177D-02-0.435D-02
 Coeff:     -0.122D-01 0.108D+00-0.161D+00-0.313D+00 0.138D+01
 Gap=     0.490 Goal=   None    Shift=    0.000
 RMSDP=2.12D-08 MaxDP=5.25D-07 DE=-1.08D-10 OVMax= 3.37D-06

 Cycle  12  Pass 1  IDiag  1:
 E= -150.832753727879     Delta-E=       -0.000000000007 Rises=F Damp=F
 DIIS: error= 8.01D-09 at cycle  12 NSaved=  12.
 NSaved=12 IEnMin=12 EnMin= -150.832753727879     IErMin=12 ErrMin= 8.01D-09
 ErrMax= 8.01D-09  0.00D+00 EMaxC= 1.00D-01 BMatC= 1.97D-14 BMatP= 1.51D-12
 IDIUse=1 WtCom= 1.00D+00 WtEn= 0.00D+00
 Coeff-Com: -0.147D-06 0.275D-05 0.130D-04-0.854D-05-0.268D-03 0.130D-02
 Coeff-Com: -0.399D-02-0.183D-02 0.301D-01 0.197D-01-0.281D+00 0.124D+01
 Coeff:     -0.147D-06 0.275D-05 0.130D-04-0.854D-05-0.268D-03 0.130D-02
 Coeff:     -0.399D-02-0.183D-02 0.301D-01 0.197D-01-0.281D+00 0.124D+01
 Gap=     0.490 Goal=   None    Shift=    0.000
 RMSDP=1.67D-09 MaxDP=2.95D-08 DE=-7.16D-12 OVMax= 1.96D-07

 SCF Done:  E(RHF) =  -150.832753728     A.U. after   12 cycles
            NFock= 12  Conv=0.17D-08     -V/T= 2.0021
 KE= 1.505163988281D+02 PE=-4.314511129544D+02 EE= 9.350101448820D+01
 Leave Link  502 at Wed Apr  1 14:25:29 2020, MaxMem=  2147483648 cpu:              26.9 elap:               3.5
 (Enter /usr/local/g16/g16/l801.exe)
 Windowed orbitals will be sorted by symmetry type.
 ExpMin= 2.53D-02 ExpMax= 1.17D+07 ExpMxC= 1.33D+04 IAcc=3 IRadAn=         5 AccDes= 0.00D+00
 HarFok:  IExCor=  205 AccDes= 0.00D+00 IRadAn=         5 IDoV=-2 UseB2=F ITyADJ=14
 ICtDFT= 12500011 ScaDFX=  1.000000  1.000000  1.000000  1.000000
 Largest valence mixing into a core orbital is  1.19D-04
 Largest core mixing into a valence orbital is  2.01D-05
 Range of M.O.s used for correlation:     3   197
 NBasis=   197 NAE=     9 NBE=     9 NFC=     2 NFV=     0
 NROrb=    195 NOA=     7 NOB=     7 NVA=   188 NVB=   188

 **** Warning!!: The largest alpha MO coefficient is  0.15263625D+02

 Leave Link  801 at Wed Apr  1 14:25:29 2020, MaxMem=  2147483648 cpu:               0.6 elap:               0.0
 (Enter /usr/local/g16/g16/l804.exe)
 Closed-shell transformation, MDV=  2147483648 ITran=4 ISComp=1.
 Semi-Direct transformation.
 ModeAB=           2 MOrb=             7 LenV=    2146282477
 LASXX=     25261509 LTotXX=    25261509 LenRXX=    25261509
 LTotAB=    25646992 MaxLAS=    35947275 LenRXY=    35947275
 NonZer=    50523018 LenScr=    76544000 LnRSAI=           0
 LnScr1=           0 LExtra=           0 Total=    137752784
 MaxDsk=          -1 SrtSym=           F ITran=            4
 DoSDTr:  NPSUse= 16
 JobTyp=0 Pass  1:  I=   1 to   7.
 (rs|ai) integrals will be sorted in core.
 Complete sort for first half transformation.
 First half transformation complete.
 Complete sort for second half transformation.
 Second half transformation complete.
 SymMOI:  orbitals are not symmetric.
 Spin components of T(2) and E(2):
     alpha-alpha T2 =       0.1589999858D-01 E2=     -0.6266532407D-01
     alpha-beta  T2 =       0.9285709653D-01 E2=     -0.3813333655D+00
     beta-beta   T2 =       0.1589999858D-01 E2=     -0.6266532407D-01
 ANorm=    0.1060498512D+01
 E2 =    -0.5066640136D+00 EUMP2 =    -0.15133941774153D+03
 Leave Link  804 at Wed Apr  1 14:25:36 2020, MaxMem=  2147483648 cpu:             121.1 elap:               7.6
 (Enter /usr/local/g16/g16/l913.exe)
 CIDS:  MDV=  2147483648.
 Frozen-core window:  NFC=   2 NFV=   0.
 IFCWin=0 IBDFC=1 NFBD=     0     0 NFCmp=     0     0 NFFFC=     0     0
 Using DD3R+UMP44R for 1st iteration.
 Using DD4RQ for 2nd and later iterations.
 Keep R2 and R3 ints in memory in canonical form, NReq=393331509.
 FoFCou: FMM=F IPFlag=           0 FMFlag=           0 FMFlg1=           0
         NFxFlg=           0 DoJE=F BraDBF=F KetDBF=F FulRan=T
         wScrn=  0.000000 ICntrl=       600 IOpCl=  0 I1Cent=           0 NGrid=           0
         NMat0=    1 NMatS0=  19503 NMatT0=    0 NMatD0=    1 NMtDS0=    0 NMtDT0=    0
 Symmetry not used in FoFCou.
 Two-electron integral symmetry not used.
 CIDS: In Core Option IDoMem=           1.
 MP4(SDTQ)
 =========
 Produce multiple copies of IABC intergrals
 DD1Dir will call FoFMem   1 times, MxPair=        56
 NAB=    28 NAA=     0 NBB=     0.
 MP4(D)= -0.11227334D-01
 MP4(S)= -0.51217306D-02
 MP4(R+Q)=  0.10696315D-01
 T4(AAA)= -0.65123310D-03
 T4(AAB)= -0.10183955D-01
 Time for triples=      374.38 seconds.
 MP4(T)=   -0.21670376D-01
 E3=       -0.23075212D-02        EUMP3=      -0.15134172526D+03
 E4(DQ)=   -0.53101900D-03        UMP4(DQ)=   -0.15134225628D+03
 E4(SDQ)=  -0.56527496D-02        UMP4(SDQ)=  -0.15134737801D+03
 E4(SDTQ)= -0.27323126D-01        UMP4(SDTQ)= -0.15136904839D+03
 VARIATIONAL ENERGIES WITH THE FIRST-ORDER WAVEFUNCTION:
 E(VAR1)=  -0.15128531081D+03     E(CISD,4)=  -0.15129491506D+03
 Largest amplitude= 2.65D-02
 Discarding MO integrals.
 Leave Link  913 at Wed Apr  1 14:26:03 2020, MaxMem=  2147483648 cpu:             431.8 elap:              27.0
 (Enter /usr/local/g16/g16/l601.exe)
 Copying SCF densities to generalized density rwf, IOpCl= 0 IROHF=0.

 **********************************************************************

            Population analysis using the SCF density.

 **********************************************************************

 Orbital symmetries:
       Occupied  (A) (A) (A) (A) (A) (A) (A) (A) (A)
       Virtual   (A) (A) (A) (A) (A) (A) (A) (A) (A) (A) (A) (A)
                 (A) (A) (A) (A) (A) (A) (A) (A) (A) (A) (A) (A)
                 (A) (A) (A) (A) (A) (A) (A) (A) (A) (A) (A) (A)
                 (A) (A) (A) (A) (A) (A) (A) (A) (A) (A) (A) (A)
                 (A) (A) (A) (A) (A) (A) (A) (A) (A) (A) (A) (A)
                 (A) (A) (A) (A) (A) (A) (A) (A) (A) (A) (A) (A)
                 (A) (A) (A) (A) (A) (A) (A) (A) (A) (A) (A) (A)
                 (A) (A) (A) (A) (A) (A) (A) (A) (A) (A) (A) (A)
                 (A) (A) (A) (A) (A) (A) (A) (A) (A) (A) (A) (A)
                 (A) (A) (A) (A) (A) (A) (A) (A) (A) (A) (A) (A)
                 (A) (A) (A) (A) (A) (A) (A) (A) (A) (A) (A) (A)
                 (A) (A) (A) (A) (A) (A) (A) (A) (A) (A) (A) (A)
                 (A) (A) (A) (A) (A) (A) (A) (A) (A) (A) (A) (A)
                 (A) (A) (A) (A) (A) (A) (A) (A) (A) (A) (A) (A)
                 (A) (A) (A) (A) (A) (A) (A) (A) (A) (A) (A) (A)
                 (A) (A) (A) (A) (A) (A) (A) (A)
 The electronic state is 1-A.
 Alpha  occ. eigenvalues --  -20.62904 -20.62876  -1.46606  -1.21834  -0.71174
 Alpha  occ. eigenvalues --   -0.69989  -0.62554  -0.52822  -0.45874
 Alpha virt. eigenvalues --    0.03129   0.03908   0.07467   0.09034   0.10304
 Alpha virt. eigenvalues --    0.11512   0.13271   0.15310   0.17286   0.17655
 Alpha virt. eigenvalues --    0.19978   0.20815   0.24314   0.26573   0.27808
 Alpha virt. eigenvalues --    0.28993   0.30796   0.32187   0.32534   0.34645
 Alpha virt. eigenvalues --    0.37511   0.38279   0.39494   0.41314   0.43223
 Alpha virt. eigenvalues --    0.43919   0.45347   0.49365   0.49630   0.51507
 Alpha virt. eigenvalues --    0.56449   0.59424   0.65186   0.70424   0.72751
 Alpha virt. eigenvalues --    0.74564   0.77867   0.79529   0.80278   0.81398
 Alpha virt. eigenvalues --    0.82867   0.87496   0.90217   0.91379   0.94643
 Alpha virt. eigenvalues --    0.96399   0.96721   0.99218   1.01476   1.03522
 Alpha virt. eigenvalues --    1.05268   1.09534   1.10202   1.14120   1.14381
 Alpha virt. eigenvalues --    1.17232   1.18542   1.19740   1.24713   1.28068
 Alpha virt. eigenvalues --    1.29689   1.31745   1.33237   1.34131   1.34727
 Alpha virt. eigenvalues --    1.35660   1.37886   1.38281   1.40469   1.50012
 Alpha virt. eigenvalues --    1.52251   1.54783   1.59739   1.59887   1.62646
 Alpha virt. eigenvalues --    1.65654   1.70075   1.72150   1.78466   1.87491
 Alpha virt. eigenvalues --    1.94035   1.94750   2.00737   2.11093   2.14543
 Alpha virt. eigenvalues --    2.15792   2.21485   2.28953   2.30397   2.33727
 Alpha virt. eigenvalues --    2.39759   2.43828   2.46670   2.52341   2.58566
 Alpha virt. eigenvalues --    2.63790   2.69781   2.71547   2.73382   2.82004
 Alpha virt. eigenvalues --    2.83827   2.85488   2.90554   3.06696   3.10533
 Alpha virt. eigenvalues --    3.25958   3.26526   3.28197   3.28793   3.33893
 Alpha virt. eigenvalues --    3.45355   3.56671   3.69517   3.78890   3.79772
 Alpha virt. eigenvalues --    3.82519   3.82650   3.83511   3.84666   3.87387
 Alpha virt. eigenvalues --    3.92635   3.95182   3.97368   4.00340   4.09722
 Alpha virt. eigenvalues --    4.11501   4.15988   4.20486   4.30692   4.32825
 Alpha virt. eigenvalues --    4.37030   4.40049   4.43470   4.48948   4.51721
 Alpha virt. eigenvalues --    4.62006   4.67499   4.80375   5.05174   5.15373
 Alpha virt. eigenvalues --    5.28350   5.29411   5.34282   5.34784   5.64113
 Alpha virt. eigenvalues --    5.81004   6.15839   6.30857   6.42635   6.46728
 Alpha virt. eigenvalues --    6.64284   6.70335   6.78358   6.81940   7.08299
 Alpha virt. eigenvalues --    7.10595   7.11003   7.19575   7.21115   7.25350
 Alpha virt. eigenvalues --    7.31062   7.32286   7.34226   7.35171   7.39550
 Alpha virt. eigenvalues --    7.62092   7.62449   7.76211   8.02304   8.23691
 Alpha virt. eigenvalues --    8.52124   8.55107  10.89991  14.78184  14.83503
 Alpha virt. eigenvalues --   14.88382  15.06299  15.28551  29.03236  29.03860
 Alpha virt. eigenvalues --   29.08147  29.14173  29.23583  49.11126 148.31496
 Alpha virt. eigenvalues --  148.39179 148.72358 752.51514
          Condensed to atoms (all electrons):
               1          2          3          4          5
     1  O    8.102762  -0.054690   0.227353  -0.017455  -0.005733
     2  O   -0.054690   8.102700  -0.006836   0.259098  -0.000167
     3  H    0.227353  -0.006836   0.517853   0.005806   0.001094
     4  H   -0.017455   0.259098   0.005806   0.465497  -0.003693
     5  Kr  -0.005733  -0.000167   0.001094  -0.003693   0.001633
 Mulliken charges:
               1
     1  O   -0.252237
     2  O   -0.300105
     3  H    0.254730
     4  H    0.290746
     5  Kr   0.006866
 Sum of Mulliken charges =  -0.00000
 Mulliken charges with hydrogens summed into heavy atoms:
               1
     1  O    0.002493
     2  O   -0.009359
     5  Kr   0.006866
         Mulliken charges condensed to fragments:
      1     -0.006866
      2      0.006866
 Electronic spatial extent (au):  <R**2>=            324.1816
 Charge=             -0.0000 electrons
 Dipole moment (field-independent basis, Debye):
    X=              0.0246    Y=             -0.0042    Z=              0.2942  Tot=              0.2953
 Quadrupole moment (field-independent basis, Debye-Ang):
   XX=             -8.3276   YY=            -10.6391   ZZ=            -12.8539
   XY=              4.1849   XZ=             -0.9061   YZ=             -0.2993
 Traceless Quadrupole moment (field-independent basis, Debye-Ang):
   XX=              2.2793   YY=             -0.0323   ZZ=             -2.2470
   XY=              4.1849   XZ=             -0.9061   YZ=             -0.2993
 Octapole moment (field-independent basis, Debye-Ang**2):
  XXX=             49.7305  YYY=             -1.2167  ZZZ=              0.1799  XYY=             21.6039
  XXY=            -16.9717  XXZ=              2.7854  XZZ=             25.6649  YZZ=             -0.5309
  YYZ=              0.3741  XYZ=              0.9367
 Hexadecapole moment (field-independent basis, Debye-Ang**3):
 XXXX=           -207.7985 YYYY=            -44.8571 ZZZZ=            -10.4871 XXXY=             53.2572
 XXXZ=             -8.3942 YYYX=              5.1262 YYYZ=             -0.3702 ZZZX=             -0.2945
 ZZZY=             -0.1596 XXYY=            -50.5284 XXZZ=            -55.1478 YYZZ=            -11.0247
 XXYZ=             -2.8517 YYXZ=             -1.0138 ZZXY=              0.2574
 N-N= 3.660094591023D+01 E-N=-4.314511133431D+02  KE= 1.505163988281D+02
 Leave Link  601 at Wed Apr  1 14:26:04 2020, MaxMem=  2147483648 cpu:               0.5 elap:               0.0
 (Enter /usr/local/g16/g16/l122.exe)
 CPIOFr:  IOpCl= 0 IRwI=-1 IRwCP=  731 ICalc=  1 LCPTot=       59414 Len1MO=      159453 IndFrg=      378320
 Counterpoise: doing calculation for fragment   2 using the basis set of the full-system, NewBq=T
 Leave Link  122 at Wed Apr  1 14:26:04 2020, MaxMem=  2147483648 cpu:               0.0 elap:               0.0
 (Enter /usr/local/g16/g16/l301.exe)
 Basis read from rwf:  (5D, 7F)
 No pseudopotential information found on rwf file.
 There are   229 symmetry adapted cartesian basis functions of A   symmetry.
 There are   197 symmetry adapted basis functions of A   symmetry.
   197 basis functions,   415 primitive gaussians,   229 cartesian basis functions
    18 alpha electrons       18 beta electrons
       nuclear repulsion energy         0.0000000000 Hartrees.
 IExCor=    0 DFT=F Ex=HF Corr=None ExCW=0 ScaHFX=  1.000000
 ScaDFX=  1.000000  1.000000  1.000000  1.000000 ScalE2=  1.000000  1.000000
 IRadAn=      5 IRanWt=     -1 IRanGd=            0 ICorTp=0 IEmpDi=  4
 NAtoms=    5 NActive=    5 NUniq=    5 SFac= 1.00D+00 NAtFMM=   60 NAOKFM=F Big=F
 Integral buffers will be    131072 words long.
 Raffenetti 1 integral format.
 Two-electron integral symmetry is turned on.
 No density basis found on file   718.
 Leave Link  301 at Wed Apr  1 14:26:04 2020, MaxMem=  2147483648 cpu:               0.4 elap:               0.0
 (Enter /usr/local/g16/g16/l302.exe)
 NPDir=0 NMtPBC=     1 NCelOv=     1 NCel=       1 NClECP=     1 NCelD=      1
         NCelK=      1 NCelE2=     1 NClLst=     1 CellRange=     0.0.
 One-electron integrals computed using PRISM.
 One-electron integral symmetry used in STVInt
 NBasis=   197 RedAO= T EigKep=  1.93D-04  NBF=   197
 NBsUse=   197 1.00D-06 EigRej= -1.00D+00 NBFU=   197
 Leave Link  302 at Wed Apr  1 14:26:04 2020, MaxMem=  2147483648 cpu:               2.0 elap:               0.1
 (Enter /usr/local/g16/g16/l303.exe)
 DipDrv:  MaxL=1.
 Leave Link  303 at Wed Apr  1 14:26:04 2020, MaxMem=  2147483648 cpu:               0.6 elap:               0.0
 (Enter /usr/local/g16/g16/l401.exe)
 ExpMin= 2.53D-02 ExpMax= 1.17D+07 ExpMxC= 1.33D+04 IAcc=3 IRadAn=         5 AccDes= 0.00D+00
 Harris functional with IExCor=  205 and IRadAn=       5 diagonalized for initial guess.
 HarFok:  IExCor=  205 AccDes= 0.00D+00 IRadAn=         5 IDoV= 1 UseB2=F ITyADJ=14
 ICtDFT=  3500011 ScaDFX=  1.000000  1.000000  1.000000  1.000000
 FoFCou: FMM=F IPFlag=           0 FMFlag=      100000 FMFlg1=           0
         NFxFlg=           0 DoJE=T BraDBF=F KetDBF=T FulRan=T
         wScrn=  0.000000 ICntrl=       500 IOpCl=  0 I1Cent=   200000004 NGrid=           0
         NMat0=    1 NMatS0=      1 NMatT0=    0 NMatD0=    1 NMtDS0=    0 NMtDT0=    0
 Petite list used in FoFCou.
 Harris En= -2751.06003253811    
 JPrj=0 DoOrth=F DoCkMO=F.
 Leave Link  401 at Wed Apr  1 14:26:04 2020, MaxMem=  2147483648 cpu:               3.1 elap:               0.2
 (Enter /usr/local/g16/g16/l502.exe)
 Keep R1 ints in memory in canonical form, NReq=203132832.
 FoFCou: FMM=F IPFlag=           0 FMFlag=           0 FMFlg1=           0
         NFxFlg=           0 DoJE=F BraDBF=F KetDBF=F FulRan=T
         wScrn=  0.000000 ICntrl=       600 IOpCl=  0 I1Cent=           0 NGrid=           0
         NMat0=    1 NMatS0=  19503 NMatT0=    0 NMatD0=    1 NMtDS0=    0 NMtDT0=    0
 Symmetry not used in FoFCou.
 Two-electron integral symmetry not used.
 Closed shell SCF:
 Using DIIS extrapolation, IDIIS=  1040.
 NGot=  2147483648 LenX=  1957179903 LenY=  1957127021
 Requested convergence on RMS density matrix=1.00D-08 within 128 cycles.
 Requested convergence on MAX density matrix=1.00D-06.
 Requested convergence on             energy=1.00D-06.
 No special actions if energy rises.

 Cycle   1  Pass 1  IDiag  1:
 E= -2752.00362993652    
 DIIS: error= 3.46D-02 at cycle   1 NSaved=   1.
 NSaved= 1 IEnMin= 1 EnMin= -2752.00362993652     IErMin= 1 ErrMin= 3.46D-02
 ErrMax= 3.46D-02  0.00D+00 EMaxC= 1.00D-01 BMatC= 4.28D-01 BMatP= 4.28D-01
 IDIUse=3 WtCom= 6.54D-01 WtEn= 3.46D-01
 Coeff-Com:  0.100D+01
 Coeff-En:   0.100D+01
 Coeff:      0.100D+01
 Gap=     0.630 Goal=   None    Shift=    0.000
 GapD=    0.630 DampG=2.000 DampE=0.500 DampFc=1.0000 IDamp=-1.
 RMSDP=1.77D-03 MaxDP=1.29D-01              OVMax= 2.38D-02

 Cycle   2  Pass 1  IDiag  1:
 E= -2752.04698366416     Delta-E=       -0.043353727637 Rises=F Damp=F
 DIIS: error= 7.39D-03 at cycle   2 NSaved=   2.
 NSaved= 2 IEnMin= 2 EnMin= -2752.04698366416     IErMin= 2 ErrMin= 7.39D-03
 ErrMax= 7.39D-03  0.00D+00 EMaxC= 1.00D-01 BMatC= 1.97D-02 BMatP= 4.28D-01
 IDIUse=3 WtCom= 9.26D-01 WtEn= 7.39D-02
 Coeff-Com:  0.152D+00 0.848D+00
 Coeff-En:   0.000D+00 0.100D+01
 Coeff:      0.141D+00 0.859D+00
 Gap=     0.543 Goal=   None    Shift=    0.000
 RMSDP=5.77D-04 MaxDP=3.49D-02 DE=-4.34D-02 OVMax= 1.31D-02

 Cycle   3  Pass 1  IDiag  1:
 E= -2752.05205361158     Delta-E=       -0.005069947420 Rises=F Damp=F
 DIIS: error= 1.51D-03 at cycle   3 NSaved=   3.
 NSaved= 3 IEnMin= 3 EnMin= -2752.05205361158     IErMin= 3 ErrMin= 1.51D-03
 ErrMax= 1.51D-03  0.00D+00 EMaxC= 1.00D-01 BMatC= 7.14D-04 BMatP= 1.97D-02
 IDIUse=3 WtCom= 9.85D-01 WtEn= 1.51D-02
 Coeff-Com: -0.128D-02 0.155D+00 0.846D+00
 Coeff-En:   0.000D+00 0.000D+00 0.100D+01
 Coeff:     -0.126D-02 0.153D+00 0.848D+00
 Gap=     0.554 Goal=   None    Shift=    0.000
 RMSDP=7.52D-05 MaxDP=4.38D-03 DE=-5.07D-03 OVMax= 2.89D-03

 Cycle   4  Pass 1  IDiag  1:
 E= -2752.05226578212     Delta-E=       -0.000212170541 Rises=F Damp=F
 DIIS: error= 3.66D-05 at cycle   4 NSaved=   4.
 NSaved= 4 IEnMin= 4 EnMin= -2752.05226578212     IErMin= 4 ErrMin= 3.66D-05
 ErrMax= 3.66D-05  0.00D+00 EMaxC= 1.00D-01 BMatC= 7.46D-07 BMatP= 7.14D-04
 IDIUse=1 WtCom= 1.00D+00 WtEn= 0.00D+00
 Coeff-Com: -0.365D-03-0.177D-01-0.588D-01 0.108D+01
 Coeff:     -0.365D-03-0.177D-01-0.588D-01 0.108D+01
 Gap=     0.553 Goal=   None    Shift=    0.000
 RMSDP=6.17D-06 MaxDP=2.89D-04 DE=-2.12D-04 OVMax= 2.71D-04

 Cycle   5  Pass 1  IDiag  1:
 E= -2752.05226622409     Delta-E=       -0.000000441977 Rises=F Damp=F
 DIIS: error= 3.76D-06 at cycle   5 NSaved=   5.
 NSaved= 5 IEnMin= 5 EnMin= -2752.05226622409     IErMin= 5 ErrMin= 3.76D-06
 ErrMax= 3.76D-06  0.00D+00 EMaxC= 1.00D-01 BMatC= 6.02D-09 BMatP= 7.46D-07
 IDIUse=1 WtCom= 1.00D+00 WtEn= 0.00D+00
 Coeff-Com:  0.614D-04 0.208D-04-0.518D-02-0.847D-01 0.109D+01
 Coeff:      0.614D-04 0.208D-04-0.518D-02-0.847D-01 0.109D+01
 Gap=     0.553 Goal=   None    Shift=    0.000
 RMSDP=6.72D-07 MaxDP=2.88D-05 DE=-4.42D-07 OVMax= 2.77D-05

 Cycle   6  Pass 1  IDiag  1:
 E= -2752.05226622994     Delta-E=       -0.000000005843 Rises=F Damp=F
 DIIS: error= 3.26D-07 at cycle   6 NSaved=   6.
 NSaved= 6 IEnMin= 6 EnMin= -2752.05226622994     IErMin= 6 ErrMin= 3.26D-07
 ErrMax= 3.26D-07  0.00D+00 EMaxC= 1.00D-01 BMatC= 4.09D-11 BMatP= 6.02D-09
 IDIUse=1 WtCom= 1.00D+00 WtEn= 0.00D+00
 Coeff-Com: -0.300D-05 0.990D-04 0.864D-03-0.189D-02-0.931D-01 0.109D+01
 Coeff:     -0.300D-05 0.990D-04 0.864D-03-0.189D-02-0.931D-01 0.109D+01
 Gap=     0.553 Goal=   None    Shift=    0.000
 RMSDP=6.75D-08 MaxDP=3.79D-06 DE=-5.84D-09 OVMax= 3.31D-06

 Cycle   7  Pass 1  IDiag  1:
 E= -2752.05226622996     Delta-E=       -0.000000000023 Rises=F Damp=F
 DIIS: error= 1.72D-08 at cycle   7 NSaved=   7.
 NSaved= 7 IEnMin= 7 EnMin= -2752.05226622996     IErMin= 7 ErrMin= 1.72D-08
 ErrMax= 1.72D-08  0.00D+00 EMaxC= 1.00D-01 BMatC= 1.41D-13 BMatP= 4.09D-11
 IDIUse=1 WtCom= 1.00D+00 WtEn= 0.00D+00
 Coeff-Com:  0.602D-07-0.398D-05-0.345D-04 0.235D-03 0.305D-02-0.660D-01
 Coeff-Com:  0.106D+01
 Coeff:      0.602D-07-0.398D-05-0.345D-04 0.235D-03 0.305D-02-0.660D-01
 Coeff:      0.106D+01
 Gap=     0.553 Goal=   None    Shift=    0.000
 RMSDP=6.14D-09 MaxDP=2.15D-07 DE=-2.27D-11 OVMax= 2.35D-07

 SCF Done:  E(RHF) =  -2752.05226623     A.U. after    7 cycles
            NFock=  7  Conv=0.61D-08     -V/T= 2.0000
 KE= 2.752039689662D+03 PE=-6.582554677616D+03 EE= 1.078462721724D+03
 Leave Link  502 at Wed Apr  1 14:26:07 2020, MaxMem=  2147483648 cpu:              25.2 elap:               2.6
 (Enter /usr/local/g16/g16/l801.exe)
 Windowed orbitals will be sorted by symmetry type.
 ExpMin= 2.53D-02 ExpMax= 1.17D+07 ExpMxC= 1.33D+04 IAcc=3 IRadAn=         5 AccDes= 0.00D+00
 HarFok:  IExCor=  205 AccDes= 0.00D+00 IRadAn=         5 IDoV=-2 UseB2=F ITyADJ=14
 ICtDFT= 12500011 ScaDFX=  1.000000  1.000000  1.000000  1.000000
 Largest valence mixing into a core orbital is  9.81D-05
 Largest core mixing into a valence orbital is  3.83D-05
 Range of M.O.s used for correlation:    10   197
 NBasis=   197 NAE=    18 NBE=    18 NFC=     9 NFV=     0
 NROrb=    188 NOA=     9 NOB=     9 NVA=   179 NVB=   179

 **** Warning!!: The largest alpha MO coefficient is  0.13217411D+02

 Leave Link  801 at Wed Apr  1 14:26:07 2020, MaxMem=  2147483648 cpu:               0.5 elap:               0.0
 (Enter /usr/local/g16/g16/l804.exe)
 Closed-shell transformation, MDV=  2147483648 ITran=4 ISComp=1.
 Semi-Direct transformation.
 ModeAB=           2 MOrb=             9 LenV=    2146336968
 LASXX=     28892340 LTotXX=    28892340 LenRXX=    28892340
 LTotAB=    29348001 MaxLAS=    44558820 LenRXY=    44558820
 NonZer=    57784680 LenScr=    87449600 LnRSAI=           0
 LnScr1=           0 LExtra=           0 Total=    160900760
 MaxDsk=          -1 SrtSym=           F ITran=            4
 DoSDTr:  NPSUse= 16
 JobTyp=0 Pass  1:  I=   1 to   9.
 (rs|ai) integrals will be sorted in core.
 Complete sort for first half transformation.
 First half transformation complete.
 Complete sort for second half transformation.
 Second half transformation complete.
 SymMOI:  orbitals are not symmetric.
 Spin components of T(2) and E(2):
     alpha-alpha T2 =       0.9502498157D-02 E2=     -0.3580329430D-01
     alpha-beta  T2 =       0.4817620097D-01 E2=     -0.1723123364D+00
     beta-beta   T2 =       0.9502498157D-02 E2=     -0.3580329430D-01
 ANorm=    0.1033044625D+01
 E2 =    -0.2439189250D+00 EUMP2 =    -0.27522961851550D+04
 Leave Link  804 at Wed Apr  1 14:26:15 2020, MaxMem=  2147483648 cpu:             130.9 elap:               8.2
 (Enter /usr/local/g16/g16/l913.exe)
 CIDS:  MDV=  2147483648.
 Frozen-core window:  NFC=   9 NFV=   0.
 IFCWin=0 IBDFC=1 NFBD=     0     0 NFCmp=     0     0 NFFFC=     0     0
 Using DD3R+UMP44R for 1st iteration.
 Using DD4RQ for 2nd and later iterations.
 Keep R2 and R3 ints in memory in canonical form, NReq=393332099.
 FoFCou: FMM=F IPFlag=           0 FMFlag=           0 FMFlg1=           0
         NFxFlg=           0 DoJE=F BraDBF=F KetDBF=F FulRan=T
         wScrn=  0.000000 ICntrl=       600 IOpCl=  0 I1Cent=           0 NGrid=           0
         NMat0=    1 NMatS0=  19503 NMatT0=    0 NMatD0=    1 NMtDS0=    0 NMtDT0=    0
 Symmetry not used in FoFCou.
 Two-electron integral symmetry not used.
 CIDS: In Core Option IDoMem=           1.
 MP4(SDTQ)
 =========
 Produce multiple copies of IABC intergrals
 DD1Dir will call FoFMem   1 times, MxPair=        90
 NAB=    45 NAA=     0 NBB=     0.
 MP4(D)= -0.37207393D-02
 MP4(S)= -0.10893100D-02
 MP4(R+Q)=  0.42465892D-02
 T4(AAA)= -0.32560971D-03
 T4(AAB)= -0.35627044D-02
 Time for triples=      477.33 seconds.
 MP4(T)=   -0.77766283D-02
 E3=       -0.98647095D-02        EUMP3=      -0.27523060499D+04
 E4(DQ)=    0.52584982D-03        UMP4(DQ)=   -0.27523055240D+04
 E4(SDQ)=  -0.56346013D-03        UMP4(SDQ)=  -0.27523066133D+04
 E4(SDTQ)= -0.83400884D-02        UMP4(SDTQ)= -0.27523143900D+04
 VARIATIONAL ENERGIES WITH THE FIRST-ORDER WAVEFUNCTION:
 E(VAR1)=  -0.27522900737D+04     E(CISD,4)=  -0.27522944731D+04
 Largest amplitude= 1.62D-02
 Discarding MO integrals.
 Leave Link  913 at Wed Apr  1 14:26:49 2020, MaxMem=  2147483648 cpu:             544.0 elap:              34.0
 (Enter /usr/local/g16/g16/l601.exe)
 Copying SCF densities to generalized density rwf, IOpCl= 0 IROHF=0.

 **********************************************************************

            Population analysis using the SCF density.

 **********************************************************************

 Orbital symmetries:
       Occupied  (A) (A) (A) (A) (A) (A) (A) (A) (A) (A) (A) (A)
                 (A) (A) (A) (A) (A) (A)
       Virtual   (A) (A) (A) (A) (A) (A) (A) (A) (A) (A) (A) (A)
                 (A) (A) (A) (A) (A) (A) (A) (A) (A) (A) (A) (A)
                 (A) (A) (A) (A) (A) (A) (A) (A) (A) (A) (A) (A)
                 (A) (A) (A) (A) (A) (A) (A) (A) (A) (A) (A) (A)
                 (A) (A) (A) (A) (A) (A) (A) (A) (A) (A) (A) (A)
                 (A) (A) (A) (A) (A) (A) (A) (A) (A) (A) (A) (A)
                 (A) (A) (A) (A) (A) (A) (A) (A) (A) (A) (A) (A)
                 (A) (A) (A) (A) (A) (A) (A) (A) (A) (A) (A) (A)
                 (A) (A) (A) (A) (A) (A) (A) (A) (A) (A) (A) (A)
                 (A) (A) (A) (A) (A) (A) (A) (A) (A) (A) (A) (A)
                 (A) (A) (A) (A) (A) (A) (A) (A) (A) (A) (A) (A)
                 (A) (A) (A) (A) (A) (A) (A) (A) (A) (A) (A) (A)
                 (A) (A) (A) (A) (A) (A) (A) (A) (A) (A) (A) (A)
                 (A) (A) (A) (A) (A) (A) (A) (A) (A) (A) (A) (A)
                 (A) (A) (A) (A) (A) (A) (A) (A) (A) (A) (A)
 The electronic state is 1-A.
 Alpha  occ. eigenvalues -- -520.16580 -69.90314 -63.00972 -63.00972 -63.00971
 Alpha  occ. eigenvalues --  -10.84954  -8.33154  -8.33154  -8.33153  -3.82531
 Alpha  occ. eigenvalues --   -3.82531  -3.82531  -3.82530  -3.82529  -1.15311
 Alpha  occ. eigenvalues --   -0.52431  -0.52429  -0.52429
 Alpha virt. eigenvalues --    0.02909   0.04921   0.08528   0.10082   0.10955
 Alpha virt. eigenvalues --    0.12331   0.13158   0.14575   0.16790   0.17307
 Alpha virt. eigenvalues --    0.17918   0.19826   0.21675   0.27434   0.28004
 Alpha virt. eigenvalues --    0.29032   0.29970   0.34610   0.34640   0.36690
 Alpha virt. eigenvalues --    0.37294   0.37505   0.38877   0.41020   0.42639
 Alpha virt. eigenvalues --    0.44121   0.45205   0.57190   0.57472   0.60953
 Alpha virt. eigenvalues --    0.62083   0.65907   0.68554   0.69720   0.71328
 Alpha virt. eigenvalues --    0.77088   0.77616   0.79459   0.81118   0.82039
 Alpha virt. eigenvalues --    0.83735   0.83962   0.87092   0.87719   0.88217
 Alpha virt. eigenvalues --    0.89224   0.90278   0.90915   0.96034   0.96855
 Alpha virt. eigenvalues --    1.00094   1.01849   1.03747   1.05552   1.07704
 Alpha virt. eigenvalues --    1.09569   1.13723   1.14819   1.15523   1.16938
 Alpha virt. eigenvalues --    1.18358   1.22157   1.24825   1.28314   1.29614
 Alpha virt. eigenvalues --    1.36006   1.37679   1.44761   1.48507   1.51199
 Alpha virt. eigenvalues --    1.61150   1.65475   1.71376   1.75792   1.77937
 Alpha virt. eigenvalues --    1.82977   1.87241   1.88801   1.91234   2.25223
 Alpha virt. eigenvalues --    2.33902   2.36084   2.36860   2.38548   2.39549
 Alpha virt. eigenvalues --    2.43222   2.43676   2.48744   2.50747   2.53569
 Alpha virt. eigenvalues --    2.54110   2.54787   2.56593   2.57815   2.58250
 Alpha virt. eigenvalues --    2.60410   2.61642   2.65126   2.66083   2.67854
 Alpha virt. eigenvalues --    2.70460   2.70971   2.73487   2.75916   2.76661
 Alpha virt. eigenvalues --    2.80907   2.81549   2.89374   2.91239   2.91769
 Alpha virt. eigenvalues --    2.96894   3.04132   3.10444   3.12422   3.16128
 Alpha virt. eigenvalues --    3.24488   3.28294   3.29197   3.37163   3.54007
 Alpha virt. eigenvalues --    3.59909   3.65126   3.85371   3.87474   4.03502
 Alpha virt. eigenvalues --    4.43926   4.48783   4.56722   4.62903   4.65279
 Alpha virt. eigenvalues --    4.76412   4.91145   4.92316   4.94661   5.08225
 Alpha virt. eigenvalues --    5.13550   5.15413   5.59916   5.67292   5.86506
 Alpha virt. eigenvalues --    5.88428   5.95392   6.22120   6.84749   6.94426
 Alpha virt. eigenvalues --    7.26224   7.42338   7.60572   7.65648   7.74646
 Alpha virt. eigenvalues --    7.79264   8.09210   8.09932   8.17040   8.25541
 Alpha virt. eigenvalues --    8.34011   8.38081   8.69093   8.90160   9.64198
 Alpha virt. eigenvalues --    9.70730   9.77001   9.83938   9.95966  10.06212
 Alpha virt. eigenvalues --   10.17834  10.20796  10.49821  10.93317  11.42620
 Alpha virt. eigenvalues --   11.56495  11.61644  12.03270  12.13618  13.21847
 Alpha virt. eigenvalues --   13.69288  14.53167  62.93971  64.52279
          Condensed to atoms (all electrons):
               1          2          3          4          5
     1  O    0.001090  -0.001019  -0.000438   0.000469  -0.004593
     2  O   -0.001019   0.002362   0.000316  -0.001281  -0.004109
     3  H   -0.000438   0.000316   0.000231  -0.000124   0.000808
     4  H    0.000469  -0.001281  -0.000124   0.001037  -0.007302
     5  Kr  -0.004593  -0.004109   0.000808  -0.007302  36.029827
 Mulliken charges:
               1
     1  O    0.004492
     2  O    0.003731
     3  H   -0.000793
     4  H    0.007201
     5  Kr  -0.014631
 Sum of Mulliken charges =  -0.00000
 Mulliken charges with hydrogens summed into heavy atoms:
               1
     1  O    0.003699
     2  O    0.010932
     5  Kr  -0.014631
         Mulliken charges condensed to fragments:
      1      0.014631
      2     -0.014631
 Electronic spatial extent (au):  <R**2>=            168.0433
 Charge=              0.0000 electrons
 Dipole moment (field-independent basis, Debye):
    X=             -0.0010    Y=              0.0005    Z=             -0.0000  Tot=              0.0011
 Quadrupole moment (field-independent basis, Debye-Ang):
   XX=            -17.7286   YY=            -17.7320   ZZ=            -17.7359
   XY=             -0.0025   XZ=             -0.0000   YZ=              0.0001
 Traceless Quadrupole moment (field-independent basis, Debye-Ang):
   XX=              0.0036   YY=              0.0001   ZZ=             -0.0037
   XY=             -0.0025   XZ=             -0.0000   YZ=              0.0001
 Octapole moment (field-independent basis, Debye-Ang**2):
  XXX=            -53.1638  YYY=              1.0055  ZZZ=             -0.0543  XYY=            -17.7260
  XXY=              0.3279  XXZ=             -0.0182  XZZ=            -17.7287  YZZ=              0.3354
  YYZ=             -0.0180  XYZ=              0.0001
 Hexadecapole moment (field-independent basis, Debye-Ang**3):
 XXXX=           -124.8190 YYYY=            -18.5732 ZZZZ=            -18.5487 XXXY=              0.9866
 XXXZ=             -0.0545 YYYX=              0.9939 YYYZ=              0.0010 ZZZX=             -0.0543
 ZZZY=              0.0013 XXYY=            -23.9022 XXZZ=            -23.9003 YYZZ=             -6.1852
 XXYZ=              0.0004 YYXZ=             -0.0181 ZZXY=              0.3306
 N-N= 0.000000000000D+00 E-N=-6.582554679144D+03  KE= 2.752039689662D+03
 Leave Link  601 at Wed Apr  1 14:26:49 2020, MaxMem=  2147483648 cpu:               0.5 elap:               0.0
 (Enter /usr/local/g16/g16/l122.exe)
 CPIOFr:  IOpCl= 0 IRwI=-1 IRwCP=  731 ICalc=  2 LCPTot=       59414 Len1MO=      159453 IndFrg=      537773
 Counterpoise: doing calculation for fragment   1 using the basis set of the fragment.
 Leave Link  122 at Wed Apr  1 14:26:49 2020, MaxMem=  2147483648 cpu:               0.0 elap:               0.0
 (Enter /usr/local/g16/g16/l301.exe)
 Basis read from rwf:  (5D, 7F)
 No pseudopotential information found on rwf file.
 There are   160 symmetry adapted cartesian basis functions of A   symmetry.
 There are   138 symmetry adapted basis functions of A   symmetry.
   138 basis functions,   198 primitive gaussians,   160 cartesian basis functions
     9 alpha electrons        9 beta electrons
       nuclear repulsion energy        36.6009459102 Hartrees.
 IExCor=    0 DFT=F Ex=HF Corr=None ExCW=0 ScaHFX=  1.000000
 ScaDFX=  1.000000  1.000000  1.000000  1.000000 ScalE2=  1.000000  1.000000
 IRadAn=      5 IRanWt=     -1 IRanGd=            0 ICorTp=0 IEmpDi=  4
 NAtoms=    5 NActive=    4 NUniq=    4 SFac= 1.00D+00 NAtFMM=   60 NAOKFM=F Big=F
 Integral buffers will be    131072 words long.
 Raffenetti 1 integral format.
 Two-electron integral symmetry is turned on.
 No density basis found on file   718.
 Leave Link  301 at Wed Apr  1 14:26:50 2020, MaxMem=  2147483648 cpu:               0.4 elap:               0.0
 (Enter /usr/local/g16/g16/l302.exe)
 NPDir=0 NMtPBC=     1 NCelOv=     1 NCel=       1 NClECP=     1 NCelD=      1
         NCelK=      1 NCelE2=     1 NClLst=     1 CellRange=     0.0.
 One-electron integrals computed using PRISM.
 One-electron integral symmetry used in STVInt
 NBasis=   138 RedAO= T EigKep=  2.60D-04  NBF=   138
 NBsUse=   138 1.00D-06 EigRej= -1.00D+00 NBFU=   138
 Leave Link  302 at Wed Apr  1 14:26:50 2020, MaxMem=  2147483648 cpu:               1.5 elap:               0.1
 (Enter /usr/local/g16/g16/l303.exe)
 DipDrv:  MaxL=1.
 Leave Link  303 at Wed Apr  1 14:26:50 2020, MaxMem=  2147483648 cpu:               0.3 elap:               0.0
 (Enter /usr/local/g16/g16/l401.exe)
 ExpMin= 2.53D-02 ExpMax= 1.53D+04 ExpMxC= 5.22D+02 IAcc=3 IRadAn=         5 AccDes= 0.00D+00
 Harris functional with IExCor=  205 and IRadAn=       5 diagonalized for initial guess.
 HarFok:  IExCor=  205 AccDes= 0.00D+00 IRadAn=         5 IDoV= 1 UseB2=F ITyADJ=14
 ICtDFT=  3500011 ScaDFX=  1.000000  1.000000  1.000000  1.000000
 FoFCou: FMM=F IPFlag=           0 FMFlag=      100000 FMFlg1=           0
         NFxFlg=           0 DoJE=T BraDBF=F KetDBF=T FulRan=T
         wScrn=  0.000000 ICntrl=       500 IOpCl=  0 I1Cent=   200000004 NGrid=           0
         NMat0=    1 NMatS0=      1 NMatT0=    0 NMatD0=    1 NMtDS0=    0 NMtDT0=    0
 Petite list used in FoFCou.
 Harris En= -150.933402552681    
 JPrj=0 DoOrth=F DoCkMO=F.
 Leave Link  401 at Wed Apr  1 14:26:50 2020, MaxMem=  2147483648 cpu:               2.6 elap:               0.2
 (Enter /usr/local/g16/g16/l502.exe)
 Keep R1 ints in memory in canonical form, NReq=53860811.
 FoFCou: FMM=F IPFlag=           0 FMFlag=           0 FMFlg1=           0
         NFxFlg=           0 DoJE=F BraDBF=F KetDBF=F FulRan=T
         wScrn=  0.000000 ICntrl=       600 IOpCl=  0 I1Cent=           0 NGrid=           0
         NMat0=    1 NMatS0=   9591 NMatT0=    0 NMatD0=    1 NMtDS0=    0 NMtDT0=    0
 Symmetry not used in FoFCou.
 Two-electron integral symmetry not used.
 Closed shell SCF:
 Using DIIS extrapolation, IDIIS=  1040.
 NGot=  2147483648 LenX=  2101430001 LenY=  2101403960
 Requested convergence on RMS density matrix=1.00D-08 within 128 cycles.
 Requested convergence on MAX density matrix=1.00D-06.
 Requested convergence on             energy=1.00D-06.
 No special actions if energy rises.

 Cycle   1  Pass 1  IDiag  1:
 E= -150.771684976630    
 DIIS: error= 3.15D-02 at cycle   1 NSaved=   1.
 NSaved= 1 IEnMin= 1 EnMin= -150.771684976630     IErMin= 1 ErrMin= 3.15D-02
 ErrMax= 3.15D-02  0.00D+00 EMaxC= 1.00D-01 BMatC= 2.27D-01 BMatP= 2.27D-01
 IDIUse=3 WtCom= 6.85D-01 WtEn= 3.15D-01
 Coeff-Com:  0.100D+01
 Coeff-En:   0.100D+01
 Coeff:      0.100D+01
 Gap=     0.681 Goal=   None    Shift=    0.000
 GapD=    0.681 DampG=2.000 DampE=0.500 DampFc=1.0000 IDamp=-1.
 RMSDP=1.33D-03 MaxDP=2.91D-02              OVMax= 6.75D-02

 Cycle   2  Pass 1  IDiag  1:
 E= -150.823845585395     Delta-E=       -0.052160608765 Rises=F Damp=F
 DIIS: error= 1.21D-02 at cycle   2 NSaved=   2.
 NSaved= 2 IEnMin= 2 EnMin= -150.823845585395     IErMin= 2 ErrMin= 1.21D-02
 ErrMax= 1.21D-02  0.00D+00 EMaxC= 1.00D-01 BMatC= 1.52D-02 BMatP= 2.27D-01
 IDIUse=3 WtCom= 8.79D-01 WtEn= 1.21D-01
 Coeff-Com:  0.100D+00 0.900D+00
 Coeff-En:   0.000D+00 0.100D+01
 Coeff:      0.878D-01 0.912D+00
 Gap=     0.520 Goal=   None    Shift=    0.000
 RMSDP=6.59D-04 MaxDP=2.41D-02 DE=-5.22D-02 OVMax= 2.75D-02

 Cycle   3  Pass 1  IDiag  1:
 E= -150.831299654300     Delta-E=       -0.007454068905 Rises=F Damp=F
 DIIS: error= 4.82D-03 at cycle   3 NSaved=   3.
 NSaved= 3 IEnMin= 3 EnMin= -150.831299654300     IErMin= 3 ErrMin= 4.82D-03
 ErrMax= 4.82D-03  0.00D+00 EMaxC= 1.00D-01 BMatC= 2.21D-03 BMatP= 1.52D-02
 IDIUse=3 WtCom= 9.52D-01 WtEn= 4.82D-02
[...]
         NMat0=    1 NMatS0=   9591 NMatT0=    0 NMatD0=    1 NMtDS0=    0 NMtDT0=    0
 Symmetry not used in FoFCou.
 Two-electron integral symmetry not used.
 Closed shell SCF:
 Using DIIS extrapolation, IDIIS=  1040.
 NGot=  2147483648 LenX=  2101430001 LenY=  2101403960
 Requested convergence on RMS density matrix=1.00D-08 within 128 cycles.
 Requested convergence on MAX density matrix=1.00D-06.
 Requested convergence on             energy=1.00D-06.
 No special actions if energy rises.

 Cycle   1  Pass 1  IDiag  1:
 E= -150.832689884116    
 DIIS: error= 2.09D-10 at cycle   1 NSaved=   1.
 NSaved= 1 IEnMin= 1 EnMin= -150.832689884116     IErMin= 1 ErrMin= 2.09D-10
 ErrMax= 2.09D-10  0.00D+00 EMaxC= 1.00D-01 BMatC= 5.77D-18 BMatP= 5.77D-18
 IDIUse=1 WtCom= 1.00D+00 WtEn= 0.00D+00
 Coeff-Com:  0.100D+01
 Coeff:      0.100D+01
 Gap=     0.883 Goal=   None    Shift=    0.000
 RMSDP=1.37D-11 MaxDP=3.92D-10              OVMax= 8.50D-10

 SCF Done:  E(RHF) =  -150.832689884     A.U. after    1 cycles
            NFock=  1  Conv=0.14D-10     -V/T= 2.0021
 KE= 1.505167125946D+02 PE=-4.314504993901D+02 EE= 9.350015100112D+01
 Leave Link  502 at Wed Apr  1 15:42:44 2020, MaxMem=  2147483648 cpu:               7.2 elap:               0.5
 (Enter /usr/local/g16/g16/l801.exe)
 Windowed orbitals will be sorted by symmetry type.
 ExpMin= 2.53D-02 ExpMax= 1.53D+04 ExpMxC= 5.22D+02 IAcc=3 IRadAn=         5 AccDes= 0.00D+00
 HarFok:  IExCor=  205 AccDes= 0.00D+00 IRadAn=         5 IDoV=-2 UseB2=F ITyADJ=14
 ICtDFT= 12500011 ScaDFX=  1.000000  1.000000  1.000000  1.000000
 Largest valence mixing into a core orbital is  1.19D-04
 Largest core mixing into a valence orbital is  2.01D-05
 Range of M.O.s used for correlation:     3   138
 NBasis=   138 NAE=     9 NBE=     9 NFC=     2 NFV=     0
 NROrb=    136 NOA=     7 NOB=     7 NVA=   129 NVB=   129

 **** Warning!!: The largest alpha MO coefficient is  0.14461265D+02

 Leave Link  801 at Wed Apr  1 15:42:44 2020, MaxMem=  2147483648 cpu:               0.5 elap:               0.0
 (Enter /usr/local/g16/g16/l804.exe)
 Closed-shell transformation, MDV=  2147483648 ITran=4 ISComp=1.
 Semi-Direct transformation.
 ModeAB=           2 MOrb=             7 LenV=    2146849461
 LASXX=      8463147 LTotXX=     8463147 LenRXX=     8463147
 LTotAB=     8647912 MaxLAS=    12261760 LenRXY=    12261760
 NonZer=    16926294 LenScr=    26146816 LnRSAI=           0
 LnScr1=           0 LExtra=           0 Total=     46871723
 MaxDsk=          -1 SrtSym=           F ITran=            4
 DoSDTr:  NPSUse= 16
 JobTyp=0 Pass  1:  I=   1 to   7.
 (rs|ai) integrals will be sorted in core.
 Complete sort for first half transformation.
 First half transformation complete.
 Complete sort for second half transformation.
 Second half transformation complete.
 SymMOI:  orbitals are not symmetric.
 Spin components of T(2) and E(2):
     alpha-alpha T2 =       0.1589922800D-01 E2=     -0.6265854658D-01
     alpha-beta  T2 =       0.9284929260D-01 E2=     -0.3811858609D+00
     beta-beta   T2 =       0.1589922800D-01 E2=     -0.6265854658D-01
 ANorm=    0.1060494106D+01
 E2 =    -0.5065029541D+00 EUMP2 =    -0.15133919283823D+03
 Leave Link  804 at Wed Apr  1 15:42:46 2020, MaxMem=  2147483648 cpu:              26.9 elap:               1.7
 (Enter /usr/local/g16/g16/l913.exe)
 CIDS:  MDV=  2147483648.
 Frozen-core window:  NFC=   2 NFV=   0.
 IFCWin=0 IBDFC=1 NFBD=     0     0 NFCmp=     0     0 NFFFC=     0     0
 Using DD3R+UMP44R for 1st iteration.
 Using DD4RQ for 2nd and later iterations.
 Keep R2 and R3 ints in memory in canonical form, NReq=99863705.
 FoFCou: FMM=F IPFlag=           0 FMFlag=           0 FMFlg1=           0
         NFxFlg=           0 DoJE=F BraDBF=F KetDBF=F FulRan=T
         wScrn=  0.000000 ICntrl=       600 IOpCl=  0 I1Cent=           0 NGrid=           0
         NMat0=    1 NMatS0=   9591 NMatT0=    0 NMatD0=    1 NMtDS0=    0 NMtDT0=    0
 Symmetry not used in FoFCou.
 Two-electron integral symmetry not used.
 CIDS: In Core Option IDoMem=           1.
 MP4(SDTQ)
 =========
 Produce multiple copies of IABC intergrals
 DD1Dir will call FoFMem   1 times, MxPair=        56
 NAB=    28 NAA=     0 NBB=     0.
 MP4(D)= -0.11225270D-01
 MP4(S)= -0.51205655D-02
 MP4(R+Q)=  0.10688836D-01
 T4(AAA)= -0.65073058D-03
 T4(AAB)= -0.10176095D-01
 Time for triples=       94.10 seconds.
 MP4(T)=   -0.21653651D-01
 E3=       -0.23092971D-02        EUMP3=      -0.15134150214D+03
 E4(DQ)=   -0.53643396D-03        UMP4(DQ)=   -0.15134203857D+03
 E4(SDQ)=  -0.56569995D-02        UMP4(SDQ)=  -0.15134715913D+03
 E4(SDTQ)= -0.27310651D-01        UMP4(SDTQ)= -0.15136881279D+03
 VARIATIONAL ENERGIES WITH THE FIRST-ORDER WAVEFUNCTION:
 E(VAR1)=  -0.15128510910D+03     E(CISD,4)=  -0.15129471352D+03
 Largest amplitude= 3.35D-02
 Discarding MO integrals.
 Leave Link  913 at Wed Apr  1 15:42:53 2020, MaxMem=  2147483648 cpu:             118.6 elap:               7.4
 (Enter /usr/local/g16/g16/l122.exe)
 CPIOFr:  IOpCl= 0 IRwI=-1 IRwCP=  731 ICalc=  3 LCPTot=       59414 Len1MO=      159453 IndFrg=      697226
 Restoring MOs from calculation   5 to rwf and chk.
 CPIOFr:  IOpCl= 0 IRwI=-2 IRwCP=20731 ICalc=  4 LCPTot=       59414 Len1MO=      159453 IndFrg=      856679
 CPIOFr:  IOpCl= 0 IRwI= 4 IRwCP=20731 ICalc=  4 LCPTot=       59414 Len1MO=      159453 IndFrg=      856679
 Counterpoise: doing calculation for fragment   2 using the basis set of the fragment.
 Leave Link  122 at Wed Apr  1 15:42:53 2020, MaxMem=  2147483648 cpu:               0.0 elap:               0.0
 (Enter /usr/local/g16/g16/l301.exe)
 Basis read from rwf:  (5D, 7F)
 No pseudopotential information found on rwf file.
 There are    69 symmetry adapted cartesian basis functions of A   symmetry.
 There are    59 symmetry adapted basis functions of A   symmetry.
    59 basis functions,   217 primitive gaussians,    69 cartesian basis functions
    18 alpha electrons       18 beta electrons
       nuclear repulsion energy         0.0000000000 Hartrees.
 IExCor=    0 DFT=F Ex=HF Corr=None ExCW=0 ScaHFX=  1.000000
 ScaDFX=  1.000000  1.000000  1.000000  1.000000 ScalE2=  1.000000  1.000000
 IRadAn=      5 IRanWt=     -1 IRanGd=            0 ICorTp=0 IEmpDi=  4
 NAtoms=    5 NActive=    1 NUniq=    1 SFac= 1.00D+00 NAtFMM=   60 NAOKFM=F Big=F
 Integral buffers will be    131072 words long.
 Raffenetti 1 integral format.
 Two-electron integral symmetry is turned on.
 No density basis found on file   718.
 Leave Link  301 at Wed Apr  1 15:42:53 2020, MaxMem=  2147483648 cpu:               0.4 elap:               0.0
 (Enter /usr/local/g16/g16/l302.exe)
 NPDir=0 NMtPBC=     1 NCelOv=     1 NCel=       1 NClECP=     1 NCelD=      1
         NCelK=      1 NCelE2=     1 NClLst=     1 CellRange=     0.0.
 One-electron integrals computed using PRISM.
 One-electron integral symmetry used in STVInt
 NBasis=    59 RedAO= T EigKep=  1.06D-02  NBF=    59
 NBsUse=    59 1.00D-06 EigRej= -1.00D+00 NBFU=    59
 Leave Link  302 at Wed Apr  1 15:42:53 2020, MaxMem=  2147483648 cpu:               1.3 elap:               0.1
 (Enter /usr/local/g16/g16/l303.exe)
 DipDrv:  MaxL=1.
 Leave Link  303 at Wed Apr  1 15:42:53 2020, MaxMem=  2147483648 cpu:               0.4 elap:               0.0
 (Enter /usr/local/g16/g16/l401.exe)
 Initial guess from the checkpoint file:  "/mnt/driveB/scratch/matheus/Gau-12782.chk"
 B after Tr=     0.062995    0.000438   -0.000023
         Rot=    1.000000    0.000000    0.000000    0.000000 Ang=   0.00 deg.
 Guess basis will be translated and rotated to current coordinates.
 JPrj=2 DoOrth=T DoCkMO=T.
 Generating alternative initial guess.
 ExpMin= 4.00D-02 ExpMax= 1.17D+07 ExpMxC= 1.33D+04 IAcc=3 IRadAn=         5 AccDes= 0.00D+00
 Harris functional with IExCor=  205 and IRadAn=       5 diagonalized for initial guess.
 HarFok:  IExCor=  205 AccDes= 0.00D+00 IRadAn=         5 IDoV= 1 UseB2=F ITyADJ=14
 ICtDFT=  3500011 ScaDFX=  1.000000  1.000000  1.000000  1.000000
 FoFCou: FMM=F IPFlag=           0 FMFlag=      100000 FMFlg1=           0
         NFxFlg=           0 DoJE=T BraDBF=F KetDBF=T FulRan=T
         wScrn=  0.000000 ICntrl=       500 IOpCl=  0 I1Cent=   200000004 NGrid=           0
         NMat0=    1 NMatS0=      1 NMatT0=    0 NMatD0=    1 NMtDS0=    0 NMtDT0=    0
 Petite list used in FoFCou.
 Harris En= -2751.05937170533    
 Leave Link  401 at Wed Apr  1 15:42:54 2020, MaxMem=  2147483648 cpu:               2.1 elap:               0.1
 (Enter /usr/local/g16/g16/l502.exe)
 Keep R1 ints in memory in canonical form, NReq=14291944.
 FoFCou: FMM=F IPFlag=           0 FMFlag=           0 FMFlg1=           0
         NFxFlg=           0 DoJE=F BraDBF=F KetDBF=F FulRan=T
         wScrn=  0.000000 ICntrl=       600 IOpCl=  0 I1Cent=           0 NGrid=           0
         NMat0=    1 NMatS0=   1770 NMatT0=    0 NMatD0=    1 NMtDS0=    0 NMtDT0=    0
 Symmetry not used in FoFCou.
 Two-electron integral symmetry not used.
 Closed shell SCF:
 Using DIIS extrapolation, IDIIS=  1040.
 NGot=  2147483648 LenX=  2145904888 LenY=  2145899686
 Requested convergence on RMS density matrix=1.00D-08 within 128 cycles.
 Requested convergence on MAX density matrix=1.00D-06.
 Requested convergence on             energy=1.00D-06.
 No special actions if energy rises.

 Cycle   1  Pass 1  IDiag  1:
 E= -2752.05222307625    
 DIIS: error= 1.91D-13 at cycle   1 NSaved=   1.
 NSaved= 1 IEnMin= 1 EnMin= -2752.05222307625     IErMin= 1 ErrMin= 1.91D-13
 ErrMax= 1.91D-13  0.00D+00 EMaxC= 1.00D-01 BMatC= 8.06D-25 BMatP= 8.06D-25
 IDIUse=1 WtCom= 1.00D+00 WtEn= 0.00D+00
 Coeff-Com:  0.100D+01
 Coeff:      0.100D+01
 Gap=     0.719 Goal=   None    Shift=    0.000
 RMSDP=7.76D-15 MaxDP=1.09D-13              OVMax= 1.85D-13

 SCF Done:  E(RHF) =  -2752.05222308     A.U. after    1 cycles
            NFock=  1  Conv=0.78D-14     -V/T= 2.0000
 KE= 2.752048106937D+03 PE=-6.582565276257D+03 EE= 1.078464946243D+03
 Leave Link  502 at Wed Apr  1 15:42:54 2020, MaxMem=  2147483648 cpu:               9.2 elap:               0.6
 (Enter /usr/local/g16/g16/l801.exe)
 Windowed orbitals will be sorted by symmetry type.
 ExpMin= 4.00D-02 ExpMax= 1.17D+07 ExpMxC= 1.33D+04 IAcc=3 IRadAn=         5 AccDes= 0.00D+00
 HarFok:  IExCor=  205 AccDes= 0.00D+00 IRadAn=         5 IDoV=-2 UseB2=F ITyADJ=14
 ICtDFT= 12500011 ScaDFX=  1.000000  1.000000  1.000000  1.000000
 Largest valence mixing into a core orbital is  9.79D-05
 Largest core mixing into a valence orbital is  3.83D-05
 Range of M.O.s used for correlation:    10    59
 NBasis=    59 NAE=    18 NBE=    18 NFC=     9 NFV=     0
 NROrb=     50 NOA=     9 NOB=     9 NVA=    41 NVB=    41
 Leave Link  801 at Wed Apr  1 15:42:54 2020, MaxMem=  2147483648 cpu:               0.5 elap:               0.0
 (Enter /usr/local/g16/g16/l804.exe)
 Closed-shell transformation, MDV=  2147483648 ITran=4 ISComp=1.
 Semi-Direct transformation.
 ModeAB=           2 MOrb=             9 LenV=    2147140326
 LASXX=       482211 LTotXX=      482211 LenRXX=      482211
 LTotAB=      511245 MaxLAS=     1086750 LenRXY=     1086750
 NonZer=     1162350 LenScr=     2357760 LnRSAI=           0
 LnScr1=           0 LExtra=           0 Total=      3926721
 MaxDsk=          -1 SrtSym=           F ITran=            4
 DoSDTr:  NPSUse= 16
 JobTyp=0 Pass  1:  I=   1 to   9.
 (rs|ai) integrals will be sorted in core.
 Complete sort for first half transformation.
 First half transformation complete.
 Complete sort for second half transformation.
 Second half transformation complete.
 SymMOI:  orbitals are not symmetric.
 Spin components of T(2) and E(2):
     alpha-alpha T2 =       0.9484485167D-02 E2=     -0.3552398032D-01
     alpha-beta  T2 =       0.4799866946D-01 E2=     -0.1708433112D+00
     beta-beta   T2 =       0.9484485167D-02 E2=     -0.3552398032D-01
 ANorm=    0.1032941257D+01
 E2 =    -0.2418912719D+00 EUMP2 =    -0.27522941143481D+04
 Leave Link  804 at Wed Apr  1 15:42:55 2020, MaxMem=  2147483648 cpu:               5.1 elap:               0.3
 (Enter /usr/local/g16/g16/l913.exe)
 CIDS:  MDV=  2147483648.
 Frozen-core window:  NFC=   9 NFV=   0.
 IFCWin=0 IBDFC=1 NFBD=     0     0 NFCmp=     0     0 NFFFC=     0     0
 Using DD3R+UMP44R for 1st iteration.
 Using DD4RQ for 2nd and later iterations.
 Keep R2 and R3 ints in memory in canonical form, NReq=15862484.
 FoFCou: FMM=F IPFlag=           0 FMFlag=           0 FMFlg1=           0
         NFxFlg=           0 DoJE=F BraDBF=F KetDBF=F FulRan=T
         wScrn=  0.000000 ICntrl=       600 IOpCl=  0 I1Cent=           0 NGrid=           0
         NMat0=    1 NMatS0=   1770 NMatT0=    0 NMatD0=    1 NMtDS0=    0 NMtDT0=    0
 Symmetry not used in FoFCou.
 Two-electron integral symmetry not used.
 CIDS: In Core Option IDoMem=           1.
 MP4(SDTQ)
 =========
 Produce multiple copies of IABC intergrals
 DD1Dir will call FoFMem   1 times, MxPair=        90
 NAB=    45 NAA=     0 NBB=     0.
 MP4(D)= -0.36913093D-02
 MP4(S)= -0.10734540D-02
 MP4(R+Q)=  0.42077927D-02
 T4(AAA)= -0.32336090D-03
 T4(AAB)= -0.35259699D-02
 Time for triples=        3.42 seconds.
 MP4(T)=   -0.76986616D-02
 E3=       -0.99406389D-02        EUMP3=      -0.27523040550D+04
 E4(DQ)=    0.51648341D-03        UMP4(DQ)=   -0.27523035385D+04
 E4(SDQ)=  -0.55697064D-03        UMP4(SDQ)=  -0.27523046120D+04
 E4(SDTQ)= -0.82556322D-02        UMP4(SDTQ)= -0.27523123106D+04
 VARIATIONAL ENERGIES WITH THE FIRST-ORDER WAVEFUNCTION:
 E(VAR1)=  -0.27522882489D+04     E(CISD,4)=  -0.27522926209D+04
 Largest amplitude= 2.11D-02
 Discarding MO integrals.
 Leave Link  913 at Wed Apr  1 15:42:55 2020, MaxMem=  2147483648 cpu:              13.7 elap:               0.9
 (Enter /usr/local/g16/g16/l122.exe)
 CPIOFr:  IOpCl= 0 IRwI=-1 IRwCP=  731 ICalc=  4 LCPTot=       59414 Len1MO=      159453 IndFrg=      856679
 Restoring MOs from calculation   1 to rwf.
 CPIOFr:  IOpCl= 0 IRwI=-2 IRwCP=  731 ICalc=  0 LCPTot=       59414 Len1MO=      159453 IndFrg=      218867
 Counterpoise corrected energy =   -2903.681373417620
                   BSSE energy =       0.000222913433
              sum of fragments =   -2903.681123405363
           complexation energy =      -0.30 kcal/mole (raw)
           complexation energy =      -0.16 kcal/mole (corrected)
 Leave Link  122 at Wed Apr  1 15:42:55 2020, MaxMem=  2147483648 cpu:               0.0 elap:               0.0
 (Enter /usr/local/g16/g16/l108.exe)
 Scan completed.
 
 Summary of the potential surface scan, energies are +2752 a.u.:
   N      R1          SCF          MP2          MP3         MP4DQ       MP4SDQ       MP4SDTQ  
 ----  ---------  -----------  -----------  -----------  -----------  -----------  -----------
    1     3.0000     -0.05222     -0.29411     -0.30405     -0.30354     -0.30461     -0.31231
    2     3.1000     -0.05222     -0.29411     -0.30405     -0.30354     -0.30461     -0.31231
    3     3.2000     -0.05222     -0.29411     -0.30405     -0.30354     -0.30461     -0.31231
    4     3.3000     -0.05222     -0.29411     -0.30405     -0.30354     -0.30461     -0.31231
    5     3.4000     -0.05222     -0.29411     -0.30405     -0.30354     -0.30461     -0.31231
    6     3.5000     -0.05222     -0.29411     -0.30405     -0.30354     -0.30461     -0.31231
    7     3.6000     -0.05222     -0.29411     -0.30405     -0.30354     -0.30461     -0.31231
    8     3.7000     -0.05222     -0.29411     -0.30405     -0.30354     -0.30461     -0.31231
    9     3.8000     -0.05222     -0.29411     -0.30405     -0.30354     -0.30461     -0.31231
   10     3.9000     -0.05222     -0.29411     -0.30405     -0.30354     -0.30461     -0.31231
   11     4.0000     -0.05222     -0.29411     -0.30405     -0.30354     -0.30461     -0.31231
   12     4.1000     -0.05222     -0.29411     -0.30405     -0.30354     -0.30461     -0.31231
   13     4.2000     -0.05222     -0.29411     -0.30405     -0.30354     -0.30461     -0.31231
   14     4.3000     -0.05222     -0.29411     -0.30405     -0.30354     -0.30461     -0.31231
   15     4.4000     -0.05222     -0.29411     -0.30405     -0.30354     -0.30461     -0.31231
   16     4.5000     -0.05222     -0.29411     -0.30405     -0.30354     -0.30461     -0.31231
   17     4.6000     -0.05222     -0.29411     -0.30405     -0.30354     -0.30461     -0.31231
   18     4.7000     -0.05222     -0.29411     -0.30405     -0.30354     -0.30461     -0.31231
   19     4.8000     -0.05222     -0.29411     -0.30405     -0.30354     -0.30461     -0.31231
   20     4.9000     -0.05222     -0.29411     -0.30405     -0.30354     -0.30461     -0.31231
   21     5.0000     -0.05222     -0.29411     -0.30405     -0.30354     -0.30461     -0.31231
 ----  ---------  -----------  -----------  -----------  -----------  -----------  -----------
  
 Leave Link  108 at Wed Apr  1 15:42:55 2020, MaxMem=  2147483648 cpu:               0.1 elap:               0.0
 (Enter /usr/local/g16/g16/l9999.exe)
 1\1\GINC-ARTHUR-MS-7B09\Scan\RMP4SDTQ-FC\Aug-CC-pVTZ\H2Kr1O2\MATHEUS\0
 1-Apr-2020\1\\#p mp4/aug-cc-PVTz int=ultrafine counterpoise=2 Scan\\PT
 CC\\0,1\O,0,0.,0.,0.725\O,0,0.,0.,-0.725\H,0,-0.1595341571,-0.90476316
 46,1.0235104166\H,0,0.,0.9187205947,-1.0235104166\Kr,0,0.,R1,0.\\R1=3.
 ,s,20,0.1\\Version=ES64L-G16RevA.03\HF=-2752.0522231,-2752.0522231,-27
 52.0522231,-2752.0522231,-2752.0522231,-2752.0522231,-2752.0522231,-27
 52.0522231,-2752.0522231,-2752.0522231,-2752.0522231,-2752.0522231,-27
 52.0522231,-2752.0522231,-2752.0522231,-2752.0522231,-2752.0522231,-27
 52.0522231,-2752.0522231,-2752.0522231,-2752.0522231\MP2=-2752.2941143
 ,-2752.2941143,-2752.2941143,-2752.2941143,-2752.2941143,-2752.2941143
 ,-2752.2941143,-2752.2941143,-2752.2941143,-2752.2941143,-2752.2941143
 ,-2752.2941143,-2752.2941143,-2752.2941143,-2752.2941143,-2752.2941143
 ,-2752.2941143,-2752.2941143,-2752.2941143,-2752.2941143,-2752.2941143
 \MP3=-2752.304055,-2752.304055,-2752.304055,-2752.304055,-2752.304055,
 -2752.304055,-2752.304055,-2752.304055,-2752.304055,-2752.304055,-2752
 .304055,-2752.304055,-2752.304055,-2752.304055,-2752.304055,-2752.3040
 55,-2752.304055,-2752.304055,-2752.304055,-2752.304055,-2752.304055\MP
 4D=-2752.3077463,-2752.3077463,-2752.3077463,-2752.3077463,-2752.30774
 63,-2752.3077463,-2752.3077463,-2752.3077463,-2752.3077463,-2752.30774
 63,-2752.3077463,-2752.3077463,-2752.3077463,-2752.3077463,-2752.30774
 63,-2752.3077463,-2752.3077463,-2752.3077463,-2752.3077463,-2752.30774
 63,-2752.3077463\MP4DQ=-2752.3035385,-2752.3035385,-2752.3035385,-2752
 .3035385,-2752.3035385,-2752.3035385,-2752.3035385,-2752.3035385,-2752
 .3035385,-2752.3035385,-2752.3035385,-2752.3035385,-2752.3035385,-2752
 .3035385,-2752.3035385,-2752.3035385,-2752.3035385,-2752.3035385,-2752
 .3035385,-2752.3035385,-2752.3035385\MP4SDQ=-2752.304612,-2752.304612,
 -2752.304612,-2752.304612,-2752.304612,-2752.304612,-2752.304612,-2752
 .304612,-2752.304612,-2752.304612,-2752.304612,-2752.304612,-2752.3046
 12,-2752.304612,-2752.304612,-2752.304612,-2752.304612,-2752.304612,-2
 752.304612,-2752.304612,-2752.304612\MP4SDTQ=-2752.3123106,-2752.31231
 06,-2752.3123106,-2752.3123106,-2752.3123106,-2752.3123106,-2752.31231
 06,-2752.3123106,-2752.3123106,-2752.3123106,-2752.3123106,-2752.31231
 06,-2752.3123106,-2752.3123106,-2752.3123106,-2752.3123106,-2752.31231
 06,-2752.3123106,-2752.3123106,-2752.3123106,-2752.3123106\RMSD=9.887e
 -10,1.149e-10,2.884e-11,7.213e-12,1.873e-12,4.685e-13,1.324e-13,3.559e
 -14,1.898e-14,1.099e-14,8.280e-15,7.867e-15,7.720e-15,9.486e-15,8.756e
 -15,6.834e-15,4.296e-15,5.596e-15,7.957e-15,1.218e-14,7.761e-15\PG=C01
  [X(H2Kr1O2)]\\@


 REPARTEE - WHAT YOU THINK OF AFTER YOU BECOME A DEPARTEE.
 Job cpu time:       0 days 20 hours 46 minutes 52.4 seconds.
 Elapsed time:       0 days  1 hours 19 minutes  7.5 seconds.
 File lengths (MBytes):  RWF=   4073 Int=      0 D2E=      0 Chk=     12 Scr=      1
 Normal termination of Gaussian 16 at Wed Apr  1 15:42:56 2020.
