 Entering Gaussian System, Link 0=g16
 Input=Inputs/H2O2-Kr_12.com
 Output=Logs/H2O2-Kr_12.log
 Initial command:
 /usr/local/g16/g16/l1.exe "/mnt/driveB/scratch/matheus/Gau-11416.inp" -scrdir="/mnt/driveB/scratch/matheus/"
 Entering Link 1 = /usr/local/g16/g16/l1.exe PID=     11418.
  
 Copyright (c) 1988,1990,1992,1993,1995,1998,2003,2009,2016,
            Gaussian, Inc.  All Rights Reserved.
  
 This is part of the Gaussian(R) 16 program.  It is based on
 the Gaussian(R) 09 system (copyright 2009, Gaussian, Inc.),
 the Gaussian(R) 03 system (copyright 2003, Gaussian, Inc.),
 the Gaussian(R) 98 system (copyright 1998, Gaussian, Inc.),
 the Gaussian(R) 94 system (copyright 1995, Gaussian, Inc.),
 the Gaussian 92(TM) system (copyright 1992, Gaussian, Inc.),
 the Gaussian 90(TM) system (copyright 1990, Gaussian, Inc.),
 the Gaussian 88(TM) system (copyright 1988, Gaussian, Inc.),
 the Gaussian 86(TM) system (copyright 1986, Carnegie Mellon
 University), and the Gaussian 82(TM) system (copyright 1983,
 Carnegie Mellon University). Gaussian is a federally registered
 trademark of Gaussian, Inc.
  
 This software contains proprietary and confidential information,
 including trade secrets, belonging to Gaussian, Inc.
  
 This software is provided under written license and may be
 used, copied, transmitted, or stored only in accord with that
 written license.
  
 The following legend is applicable only to US Government
 contracts under FAR:
  
                    RESTRICTED RIGHTS LEGEND
  
 Use, reproduction and disclosure by the US Government is
 subject to restrictions as set forth in subparagraphs (a)
 and (c) of the Commercial Computer Software - Restricted
 Rights clause in FAR 52.227-19.
  
 Gaussian, Inc.
 340 Quinnipiac St., Bldg. 40, Wallingford CT 06492
  
  
 ---------------------------------------------------------------
 Warning -- This program may not be used in any manner that
 competes with the business of Gaussian, Inc. or will provide
 assistance to any competitor of Gaussian, Inc.  The licensee
 of this program is prohibited from giving any competitor of
 Gaussian, Inc. access to this program.  By using this program,
 the user acknowledges that Gaussian, Inc. is engaged in the
 business of creating and licensing software in the field of
 computational chemistry and represents and warrants to the
 licensee that it is not a competitor of Gaussian, Inc. and that
 it will not use this program in any manner prohibited above.
 ---------------------------------------------------------------
  

 Cite this work as:
 Gaussian 16, Revision A.03,
 M. J. Frisch, G. W. Trucks, H. B. Schlegel, G. E. Scuseria, 
 M. A. Robb, J. R. Cheeseman, G. Scalmani, V. Barone, 
 G. A. Petersson, H. Nakatsuji, X. Li, M. Caricato, A. V. Marenich, 
 J. Bloino, B. G. Janesko, R. Gomperts, B. Mennucci, H. P. Hratchian, 
 J. V. Ortiz, A. F. Izmaylov, J. L. Sonnenberg, D. Williams-Young, 
 F. Ding, F. Lipparini, F. Egidi, J. Goings, B. Peng, A. Petrone, 
 T. Henderson, D. Ranasinghe, V. G. Zakrzewski, J. Gao, N. Rega, 
 G. Zheng, W. Liang, M. Hada, M. Ehara, K. Toyota, R. Fukuda, 
 J. Hasegawa, M. Ishida, T. Nakajima, Y. Honda, O. Kitao, H. Nakai, 
 T. Vreven, K. Throssell, J. A. Montgomery, Jr., J. E. Peralta, 
 F. Ogliaro, M. J. Bearpark, J. J. Heyd, E. N. Brothers, K. N. Kudin, 
 V. N. Staroverov, T. A. Keith, R. Kobayashi, J. Normand, 
 K. Raghavachari, A. P. Rendell, J. C. Burant, S. S. Iyengar, 
 J. Tomasi, M. Cossi, J. M. Millam, M. Klene, C. Adamo, R. Cammi, 
 J. W. Ochterski, R. L. Martin, K. Morokuma, O. Farkas, 
 J. B. Foresman, and D. J. Fox, Gaussian, Inc., Wallingford CT, 2016.
 
 ******************************************
 Gaussian 16:  ES64L-G16RevA.03 25-Dec-2016
                31-Mar-2020 
 ******************************************
 %mem=16GB
 %nproc=16
 Will use up to   16 processors via shared memory.
 ----------------------------------------------------
 #p mp4/aug-cc-PVTz int=ultrafine counterpoise=2 Scan
 ----------------------------------------------------
 1/38=1,60=1,62=2,172=1/1,8;
 2/12=2,17=6,18=5,29=3,40=1/2;
 1/38=1,53=2,62=2,63=1/22;
 3/5=16,6=1,7=10,11=9,25=1,30=1,75=-5/1,2,3;
 4//1;
 5/5=2,38=5/2;
 8/6=4,9=120000,10=1/1,4;
 9/5=5/13;
 6/7=2,8=2,9=2,10=2,18=1/1;
 1/53=2,62=2,63=1/22;
 3/5=7,6=11,7=10,11=9,25=1,30=1,75=-5,82=7/1,2,3;
 4//1;
 5/5=2,38=5/2;
 8/6=4,9=120000,10=1/1,4;
 9/5=5/13;
 6/7=2,8=2,9=2,10=2,18=1/1;
 1/53=2,62=2,63=1/22(-6);
 1/60=1,62=2/8(1);
 99/9=1/99;
 2/29=3/2;
 1/53=3,62=2,63=1/22;
 3/5=7,6=11,7=10,11=9,25=1,30=1,75=-5,82=7/1,2,3;
 4/5=5,16=3,69=1/1;
 5/5=2,38=5/2;
 8/6=4,9=120000,10=1/1,4;
 9/5=5/13;
 1/53=3,62=2,63=1/22(-5);
 1/60=1,62=2/8(-8);
 99/9=1/99;
 Leave Link    1 at Tue Mar 31 14:33:44 2020, MaxMem=  2147483648 cpu:               0.3 elap:               0.0
 (Enter /usr/local/g16/g16/l101.exe)
 ----
 PTCC
 ----
 Symbolic Z-matrix:
 Charge =  0 Multiplicity = 1 in supermolecule
 Charge =  0 Multiplicity = 1 in fragment      1.
 Charge =  0 Multiplicity = 1 in fragment      2.
 O(Fragment=1)         0.        0.        0.725 
 O(Fragment=1)         0.        0.       -0.725 
 H(Fragment=1)         0.79564  -0.45936   1.02351 
 H(Fragment=1)         0.        0.91872  -1.02351 
 Kr(Fragment=2)        0.       R1        0. 
       Variables:
  R1                    3.     Scan 20    0.1    
 
 ITRead=  0  0  0  0  0
 MicOpt= -1 -1 -1 -1 -1
 NAtoms=      5 NQM=        5 NQMF=       0 NMMI=      0 NMMIF=      0
                NMic=       0 NMicF=      0.
                    Isotopes and Nuclear Properties:
 (Nuclear quadrupole moments (NQMom) in fm**2, nuclear magnetic moments (NMagM)
  in nuclear magnetons)

  Atom         1           2           3           4           5
 IAtWgt=          16          16           1           1          84
 AtmWgt=  15.9949146  15.9949146   1.0078250   1.0078250  83.9115064
 NucSpn=           0           0           1           1           0
 AtZEff=  -0.0000000  -0.0000000  -0.0000000  -0.0000000  -0.0000000
 NQMom=    0.0000000   0.0000000   0.0000000   0.0000000   0.0000000
 NMagM=    0.0000000   0.0000000   2.7928460   2.7928460   0.0000000
 AtZNuc=   8.0000000   8.0000000   1.0000000   1.0000000  36.0000000
 Leave Link  101 at Tue Mar 31 14:33:44 2020, MaxMem=  2147483648 cpu:               1.4 elap:               0.1
 (Enter /usr/local/g16/g16/l108.exe)
 Scan the potential surface.
 Variable   Value     No. Steps Step-Size
 -------- ----------- --------- ---------
     1       3.000000      20      0.1000
 A total of     21 points will be computed.
 Leave Link  108 at Tue Mar 31 14:33:44 2020, MaxMem=  2147483648 cpu:               0.0 elap:               0.0
 (Enter /usr/local/g16/g16/l202.exe)
 ---------------------------------------------------------------------------------------------------
                            Z-MATRIX (ANGSTROMS AND DEGREES)
   CD    Cent   Atom    N1       Length/X        N2       Alpha/Y        N3        Beta/Z          J
 ---------------------------------------------------------------------------------------------------
      1      1  O        0   0.000000          0.000000          0.725000
      2      2  O        0   0.000000          0.000000         -0.725000
      3      3  H        0   0.795635         -0.459360          1.023510
      4      4  H        0   0.000000          0.918721         -1.023510
      5      5  Kr       0   0.000000          3.000000          0.000000
 ---------------------------------------------------------------------------------------------------
                         Z-Matrix orientation:                         
 ---------------------------------------------------------------------
 Center     Atomic      Atomic             Coordinates (Angstroms)
 Number     Number       Type             X           Y           Z
 ---------------------------------------------------------------------
      1          8           0        0.000000    0.000000    0.725000
      2          8           0        0.000000    0.000000   -0.725000
      3          1           0        0.795635   -0.459360    1.023510
      4          1           0        0.000000    0.918721   -1.023510
      5         36           0        0.000000    3.000000    0.000000
 ---------------------------------------------------------------------
                    Distance matrix (angstroms):
                    1          2          3          4          5
     1  O    0.000000
     2  O    1.450000   0.000000
     3  H    0.966000   1.975180   0.000000
     4  H    1.975180   0.966000   2.592766   0.000000
     5  Kr   3.086361   3.086361   3.694291   2.319331   0.000000
 Stoichiometry    H2KrO2
 Framework group  C1[X(H2KrO2)]
 Deg. of freedom     9
 Full point group                 C1      NOp   1
 Largest Abelian subgroup         C1      NOp   1
 Largest concise Abelian subgroup C1      NOp   1
                         Standard orientation:                         
 ---------------------------------------------------------------------
 Center     Atomic      Atomic             Coordinates (Angstroms)
 Number     Number       Type             X           Y           Z
 ---------------------------------------------------------------------
      1          8           0        2.018349   -0.689087   -0.106614
      2          8           0        1.996994    0.756239    0.007743
      3          1           0        2.496711   -1.041750    0.654934
      4          1           0        1.074134    1.038958    0.047181
      5         36           0       -0.991489   -0.014845    0.002468
 ---------------------------------------------------------------------
 Rotational constants (GHZ):          25.8792576           2.3237795           2.1427448
 Leave Link  202 at Tue Mar 31 14:33:44 2020, MaxMem=  2147483648 cpu:               0.0 elap:               0.0
 (Enter /usr/local/g16/g16/l122.exe)
 Counterpoise: doing full-system calculation.
 Leave Link  122 at Tue Mar 31 14:33:44 2020, MaxMem=  2147483648 cpu:               0.0 elap:               0.0
 (Enter /usr/local/g16/g16/l301.exe)
 Standard basis: Aug-CC-pVTZ (5D, 7F)
 Ernie: Thresh=  0.10000D-02 Tol=  0.10000D-05 Strict=F.
 Ernie:  38 primitive shells out of 205 were deleted.
 There are   229 symmetry adapted cartesian basis functions of A   symmetry.
 There are   197 symmetry adapted basis functions of A   symmetry.
   197 basis functions,   415 primitive gaussians,   229 cartesian basis functions
    27 alpha electrons       27 beta electrons
       nuclear repulsion energy       148.7418295265 Hartrees.
 IExCor=    0 DFT=F Ex=HF Corr=None ExCW=0 ScaHFX=  1.000000
 ScaDFX=  1.000000  1.000000  1.000000  1.000000 ScalE2=  1.000000  1.000000
 IRadAn=      5 IRanWt=     -1 IRanGd=            0 ICorTp=0 IEmpDi=  4
 NAtoms=    5 NActive=    5 NUniq=    5 SFac= 1.00D+00 NAtFMM=   60 NAOKFM=F Big=F
 Integral buffers will be    131072 words long.
 Raffenetti 1 integral format.
 Two-electron integral symmetry is turned on.
 Leave Link  301 at Tue Mar 31 14:33:44 2020, MaxMem=  2147483648 cpu:               0.3 elap:               0.0
 (Enter /usr/local/g16/g16/l302.exe)
 NPDir=0 NMtPBC=     1 NCelOv=     1 NCel=       1 NClECP=     1 NCelD=      1
         NCelK=      1 NCelE2=     1 NClLst=     1 CellRange=     0.0.
 One-electron integrals computed using PRISM.
 One-electron integral symmetry used in STVInt
 NBasis=   197 RedAO= T EigKep=  2.09D-04  NBF=   197
 NBsUse=   197 1.00D-06 EigRej= -1.00D+00 NBFU=   197
 Leave Link  302 at Tue Mar 31 14:33:44 2020, MaxMem=  2147483648 cpu:               1.6 elap:               0.1
 (Enter /usr/local/g16/g16/l303.exe)
 DipDrv:  MaxL=1.
 Leave Link  303 at Tue Mar 31 14:33:44 2020, MaxMem=  2147483648 cpu:               0.4 elap:               0.0
 (Enter /usr/local/g16/g16/l401.exe)
 ExpMin= 2.53D-02 ExpMax= 1.17D+07 ExpMxC= 1.33D+04 IAcc=3 IRadAn=         5 AccDes= 0.00D+00
 Harris functional with IExCor=  205 and IRadAn=       5 diagonalized for initial guess.
 HarFok:  IExCor=  205 AccDes= 0.00D+00 IRadAn=         5 IDoV= 1 UseB2=F ITyADJ=14
 ICtDFT=  3500011 ScaDFX=  1.000000  1.000000  1.000000  1.000000
 FoFCou: FMM=F IPFlag=           0 FMFlag=      100000 FMFlg1=           0
         NFxFlg=           0 DoJE=T BraDBF=F KetDBF=T FulRan=T
         wScrn=  0.000000 ICntrl=       500 IOpCl=  0 I1Cent=   200000004 NGrid=           0
         NMat0=    1 NMatS0=      1 NMatT0=    0 NMatD0=    1 NMtDS0=    0 NMtDT0=    0
 Petite list used in FoFCou.
 Harris En= -2901.99321950639    
 JPrj=0 DoOrth=F DoCkMO=F.
 Leave Link  401 at Tue Mar 31 14:33:44 2020, MaxMem=  2147483648 cpu:               3.2 elap:               0.2
 (Enter /usr/local/g16/g16/l502.exe)
 Keep R1 ints in memory in canonical form, NReq=203133600.
 FoFCou: FMM=F IPFlag=           0 FMFlag=           0 FMFlg1=           0
         NFxFlg=           0 DoJE=F BraDBF=F KetDBF=F FulRan=T
         wScrn=  0.000000 ICntrl=       600 IOpCl=  0 I1Cent=           0 NGrid=           0
         NMat0=    1 NMatS0=  19503 NMatT0=    0 NMatD0=    1 NMtDS0=    0 NMtDT0=    0
 Symmetry not used in FoFCou.
 Two-electron integral symmetry not used.
 Closed shell SCF:
 Using DIIS extrapolation, IDIIS=  1040.
 NGot=  2147483648 LenX=  1957179903 LenY=  1957127021
 Requested convergence on RMS density matrix=1.00D-08 within 128 cycles.
 Requested convergence on MAX density matrix=1.00D-06.
 Requested convergence on             energy=1.00D-06.
 No special actions if energy rises.

 Cycle   1  Pass 1  IDiag  1:
 E= -2902.76903588401    
 DIIS: error= 3.07D-02 at cycle   1 NSaved=   1.
 NSaved= 1 IEnMin= 1 EnMin= -2902.76903588401     IErMin= 1 ErrMin= 3.07D-02
 ErrMax= 3.07D-02  0.00D+00 EMaxC= 1.00D-01 BMatC= 6.56D-01 BMatP= 6.56D-01
 IDIUse=3 WtCom= 6.93D-01 WtEn= 3.07D-01
 Coeff-Com:  0.100D+01
 Coeff-En:   0.100D+01
 Coeff:      0.100D+01
 Gap=     0.701 Goal=   None    Shift=    0.000
 GapD=    0.701 DampG=2.000 DampE=0.500 DampFc=1.0000 IDamp=-1.
 RMSDP=2.00D-03 MaxDP=1.30D-01              OVMax= 5.61D-02

 Cycle   2  Pass 1  IDiag  1:
 E= -2902.86519385683     Delta-E=       -0.096157972813 Rises=F Damp=F
 DIIS: error= 6.84D-03 at cycle   2 NSaved=   2.
 NSaved= 2 IEnMin= 2 EnMin= -2902.86519385683     IErMin= 2 ErrMin= 6.84D-03
 ErrMax= 6.84D-03  0.00D+00 EMaxC= 1.00D-01 BMatC= 3.52D-02 BMatP= 6.56D-01
 IDIUse=3 WtCom= 9.32D-01 WtEn= 6.84D-02
 Coeff-Com:  0.136D+00 0.864D+00
 Coeff-En:   0.000D+00 0.100D+01
 Coeff:      0.127D+00 0.873D+00
 Gap=     0.535 Goal=   None    Shift=    0.000
 RMSDP=7.43D-04 MaxDP=3.64D-02 DE=-9.62D-02 OVMax= 2.60D-02

 Cycle   3  Pass 1  IDiag  1:
 E= -2902.87810505123     Delta-E=       -0.012911194406 Rises=F Damp=F
 DIIS: error= 2.40D-03 at cycle   3 NSaved=   3.
 NSaved= 3 IEnMin= 3 EnMin= -2902.87810505123     IErMin= 3 ErrMin= 2.40D-03
 ErrMax= 2.40D-03  0.00D+00 EMaxC= 1.00D-01 BMatC= 2.61D-03 BMatP= 3.52D-02
 IDIUse=3 WtCom= 9.76D-01 WtEn= 2.40D-02
 Coeff-Com: -0.650D-02 0.192D+00 0.815D+00
 Coeff-En:   0.000D+00 0.000D+00 0.100D+01
 Coeff:     -0.635D-02 0.187D+00 0.819D+00
 Gap=     0.512 Goal=   None    Shift=    0.000
 RMSDP=1.31D-04 MaxDP=4.87D-03 DE=-1.29D-02 OVMax= 8.11D-03

 Cycle   4  Pass 1  IDiag  1:
 E= -2902.87942027213     Delta-E=       -0.001315220896 Rises=F Damp=F
 DIIS: error= 3.39D-04 at cycle   4 NSaved=   4.
 NSaved= 4 IEnMin= 4 EnMin= -2902.87942027213     IErMin= 4 ErrMin= 3.39D-04
 ErrMax= 3.39D-04  0.00D+00 EMaxC= 1.00D-01 BMatC= 4.40D-05 BMatP= 2.61D-03
 IDIUse=3 WtCom= 9.97D-01 WtEn= 3.39D-03
 Coeff-Com: -0.396D-02 0.123D-01 0.136D+00 0.855D+00
 Coeff-En:   0.000D+00 0.000D+00 0.000D+00 0.100D+01
 Coeff:     -0.395D-02 0.123D-01 0.136D+00 0.856D+00
 Gap=     0.513 Goal=   None    Shift=    0.000
 RMSDP=2.11D-05 MaxDP=6.42D-04 DE=-1.32D-03 OVMax= 1.67D-03

 Cycle   5  Pass 1  IDiag  1:
 E= -2902.87945848126     Delta-E=       -0.000038209131 Rises=F Damp=F
 DIIS: error= 1.12D-04 at cycle   5 NSaved=   5.
 NSaved= 5 IEnMin= 5 EnMin= -2902.87945848126     IErMin= 5 ErrMin= 1.12D-04
 ErrMax= 1.12D-04  0.00D+00 EMaxC= 1.00D-01 BMatC= 3.51D-06 BMatP= 4.40D-05
 IDIUse=3 WtCom= 9.99D-01 WtEn= 1.12D-03
 Coeff-Com:  0.844D-03-0.163D-01-0.690D-01 0.584D-02 0.108D+01
 Coeff-En:   0.000D+00 0.000D+00 0.000D+00 0.000D+00 0.100D+01
 Coeff:      0.843D-03-0.162D-01-0.689D-01 0.583D-02 0.108D+01
 Gap=     0.512 Goal=   None    Shift=    0.000
 RMSDP=1.06D-05 MaxDP=3.06D-04 DE=-3.82D-05 OVMax= 7.92D-04

 Cycle   6  Pass 1  IDiag  1:
 E= -2902.87946396681     Delta-E=       -0.000005485550 Rises=F Damp=F
 DIIS: error= 2.79D-05 at cycle   6 NSaved=   6.
 NSaved= 6 IEnMin= 6 EnMin= -2902.87946396681     IErMin= 6 ErrMin= 2.79D-05
 ErrMax= 2.79D-05  0.00D+00 EMaxC= 1.00D-01 BMatC= 2.72D-07 BMatP= 3.51D-06
 IDIUse=1 WtCom= 1.00D+00 WtEn= 0.00D+00
 Coeff-Com:  0.204D-03-0.344D-03-0.803D-02-0.600D-01 0.349D-02 0.106D+01
 Coeff:      0.204D-03-0.344D-03-0.803D-02-0.600D-01 0.349D-02 0.106D+01
 Gap=     0.513 Goal=   None    Shift=    0.000
 RMSDP=3.50D-06 MaxDP=1.10D-04 DE=-5.49D-06 OVMax= 3.53D-04

 Cycle   7  Pass 1  IDiag  1:
 E= -2902.87946455200     Delta-E=       -0.000000585190 Rises=F Damp=F
 DIIS: error= 1.72D-05 at cycle   7 NSaved=   7.
 NSaved= 7 IEnMin= 7 EnMin= -2902.87946455200     IErMin= 7 ErrMin= 1.72D-05
 ErrMax= 1.72D-05  0.00D+00 EMaxC= 1.00D-01 BMatC= 4.88D-08 BMatP= 2.72D-07
 IDIUse=1 WtCom= 1.00D+00 WtEn= 0.00D+00
 Coeff-Com: -0.390D-04 0.151D-02 0.518D-02-0.120D-01-0.103D+00 0.170D+00
 Coeff-Com:  0.938D+00
 Coeff:     -0.390D-04 0.151D-02 0.518D-02-0.120D-01-0.103D+00 0.170D+00
 Coeff:      0.938D+00
 Gap=     0.513 Goal=   None    Shift=    0.000
 RMSDP=1.43D-06 MaxDP=4.85D-05 DE=-5.85D-07 OVMax= 1.76D-04

 Cycle   8  Pass 1  IDiag  1:
 E= -2902.87946465696     Delta-E=       -0.000000104956 Rises=F Damp=F
 DIIS: error= 6.20D-06 at cycle   8 NSaved=   8.
 NSaved= 8 IEnMin= 8 EnMin= -2902.87946465696     IErMin= 8 ErrMin= 6.20D-06
 ErrMax= 6.20D-06  0.00D+00 EMaxC= 1.00D-01 BMatC= 1.27D-08 BMatP= 4.88D-08
 IDIUse=1 WtCom= 1.00D+00 WtEn= 0.00D+00
 Coeff-Com: -0.380D-04 0.319D-03 0.237D-02 0.854D-02-0.222D-01-0.166D+00
 Coeff-Com:  0.231D+00 0.946D+00
 Coeff:     -0.380D-04 0.319D-03 0.237D-02 0.854D-02-0.222D-01-0.166D+00
 Coeff:      0.231D+00 0.946D+00
 Gap=     0.513 Goal=   None    Shift=    0.000
 RMSDP=8.46D-07 MaxDP=2.08D-05 DE=-1.05D-07 OVMax= 1.16D-04

 Cycle   9  Pass 1  IDiag  1:
 E= -2902.87946468884     Delta-E=       -0.000000031879 Rises=F Damp=F
 DIIS: error= 3.24D-06 at cycle   9 NSaved=   9.
 NSaved= 9 IEnMin= 9 EnMin= -2902.87946468884     IErMin= 9 ErrMin= 3.24D-06
 ErrMax= 3.24D-06  0.00D+00 EMaxC= 1.00D-01 BMatC= 2.16D-09 BMatP= 1.27D-08
 IDIUse=1 WtCom= 1.00D+00 WtEn= 0.00D+00
 Coeff-Com:  0.172D-04-0.390D-03-0.175D-02-0.771D-03 0.263D-01 0.340D-01
 Coeff-Com: -0.268D+00-0.400D+00 0.161D+01
 Coeff:      0.172D-04-0.390D-03-0.175D-02-0.771D-03 0.263D-01 0.340D-01
 Coeff:     -0.268D+00-0.400D+00 0.161D+01
 Gap=     0.513 Goal=   None    Shift=    0.000
 RMSDP=6.29D-07 MaxDP=1.51D-05 DE=-3.19D-08 OVMax= 1.01D-04

 Cycle  10  Pass 1  IDiag  1:
 E= -2902.87946470008     Delta-E=       -0.000000011247 Rises=F Damp=F
 DIIS: error= 1.00D-06 at cycle  10 NSaved=  10.
 NSaved=10 IEnMin=10 EnMin= -2902.87946470008     IErMin=10 ErrMin= 1.00D-06
 ErrMax= 1.00D-06  0.00D+00 EMaxC= 1.00D-01 BMatC= 2.45D-10 BMatP= 2.16D-09
 IDIUse=1 WtCom= 1.00D+00 WtEn= 0.00D+00
 Coeff-Com:  0.911D-06 0.103D-03 0.241D-03-0.140D-02-0.575D-02 0.149D-01
 Coeff-Com:  0.686D-01 0.159D-02-0.652D+00 0.157D+01
 Coeff:      0.911D-06 0.103D-03 0.241D-03-0.140D-02-0.575D-02 0.149D-01
 Coeff:      0.686D-01 0.159D-02-0.652D+00 0.157D+01
 Gap=     0.513 Goal=   None    Shift=    0.000
 RMSDP=2.53D-07 MaxDP=6.09D-06 DE=-1.12D-08 OVMax= 4.10D-05

 Cycle  11  Pass 1  IDiag  1:
 E= -2902.87946470138     Delta-E=       -0.000000001296 Rises=F Damp=F
 DIIS: error= 1.82D-07 at cycle  11 NSaved=  11.
 NSaved=11 IEnMin=11 EnMin= -2902.87946470138     IErMin=11 ErrMin= 1.82D-07
 ErrMax= 1.82D-07  0.00D+00 EMaxC= 1.00D-01 BMatC= 1.09D-11 BMatP= 2.45D-10
 IDIUse=1 WtCom= 1.00D+00 WtEn= 0.00D+00
 Coeff-Com: -0.168D-05-0.143D-04 0.384D-04 0.803D-03-0.855D-04-0.101D-01
 Coeff-Com: -0.783D-03 0.400D-01 0.805D-01-0.488D+00 0.138D+01
 Coeff:     -0.168D-05-0.143D-04 0.384D-04 0.803D-03-0.855D-04-0.101D-01
 Coeff:     -0.783D-03 0.400D-01 0.805D-01-0.488D+00 0.138D+01
 Gap=     0.513 Goal=   None    Shift=    0.000
 RMSDP=3.79D-08 MaxDP=7.62D-07 DE=-1.30D-09 OVMax= 5.09D-06

 Cycle  12  Pass 1  IDiag  1:
 E= -2902.87946470141     Delta-E=       -0.000000000030 Rises=F Damp=F
 DIIS: error= 4.05D-08 at cycle  12 NSaved=  12.
 NSaved=12 IEnMin=12 EnMin= -2902.87946470141     IErMin=12 ErrMin= 4.05D-08
 ErrMax= 4.05D-08  0.00D+00 EMaxC= 1.00D-01 BMatC= 4.87D-13 BMatP= 1.09D-11
 IDIUse=1 WtCom= 1.00D+00 WtEn= 0.00D+00
 Coeff-Com:  0.333D-07-0.601D-05-0.195D-04 0.768D-04 0.391D-03-0.972D-03
 Coeff-Com: -0.364D-02 0.126D-02 0.276D-01-0.628D-01-0.774D-01 0.112D+01
 Coeff:      0.333D-07-0.601D-05-0.195D-04 0.768D-04 0.391D-03-0.972D-03
 Coeff:     -0.364D-02 0.126D-02 0.276D-01-0.628D-01-0.774D-01 0.112D+01
 Gap=     0.513 Goal=   None    Shift=    0.000
 RMSDP=6.03D-09 MaxDP=1.22D-07 DE=-3.00D-11 OVMax= 6.55D-07

 SCF Done:  E(RHF) =  -2902.87946470     A.U. after   12 cycles
            NFock= 12  Conv=0.60D-08     -V/T= 2.0001
 KE= 2.902628254629D+03 PE=-7.238003439311D+03 EE= 1.283753890454D+03
 Leave Link  502 at Tue Mar 31 14:33:48 2020, MaxMem=  2147483648 cpu:              27.7 elap:               3.5
 (Enter /usr/local/g16/g16/l801.exe)
 Windowed orbitals will be sorted by symmetry type.
 ExpMin= 2.53D-02 ExpMax= 1.17D+07 ExpMxC= 1.33D+04 IAcc=3 IRadAn=         5 AccDes= 0.00D+00
 HarFok:  IExCor=  205 AccDes= 0.00D+00 IRadAn=         5 IDoV=-2 UseB2=F ITyADJ=14
 ICtDFT= 12500011 ScaDFX=  1.000000  1.000000  1.000000  1.000000
 Largest valence mixing into a core orbital is  1.16D-04
 Largest core mixing into a valence orbital is  3.82D-05
 Range of M.O.s used for correlation:    12   197
 NBasis=   197 NAE=    27 NBE=    27 NFC=    11 NFV=     0
 NROrb=    186 NOA=    16 NOB=    16 NVA=   170 NVB=   170

 **** Warning!!: The largest alpha MO coefficient is  0.13159079D+02

 Leave Link  801 at Tue Mar 31 14:33:48 2020, MaxMem=  2147483648 cpu:               0.6 elap:               0.0
 (Enter /usr/local/g16/g16/l804.exe)
 Closed-shell transformation, MDV=  2147483648 ITran=4 ISComp=1.
 Unit  1 TFree=       1248993 TCopy=        808885.
 Semi-Direct transformation.
 ModeAB=           2 MOrb=            16 LenV=    2146362042
 LASXX=     48528660 LTotXX=    48528660 LenRXX=    48528660
 LTotAB=    49298776 MaxLAS=    78372960 LenRXY=    78372960
 NonZer=    97057320 LenScr=   146313216 LnRSAI=           0
 LnScr1=           0 LExtra=           0 Total=    273214836
 MaxDsk=          -1 SrtSym=           F ITran=            4
 DoSDTr:  NPSUse= 16
 JobTyp=0 Pass  1:  I=   1 to  16.
 (rs|ai) integrals will be sorted in core.
 Complete sort for first half transformation.
 First half transformation complete.
 Begin second half transformation for I=  10.
 Begin second half transformation for I=  10.
 Complete sort for second half transformation.
 Second half transformation complete.
 SymMOI:  orbitals are not symmetric.
 Spin components of T(2) and E(2):
     alpha-alpha T2 =       0.2598563802D-01 E2=     -0.9999947514D-01
     alpha-beta  T2 =       0.1420053648D+00 E2=     -0.5567656362D+00
     beta-beta   T2 =       0.2598563802D-01 E2=     -0.9999947514D-01
 ANorm=    0.1092692382D+01
 E2 =    -0.7567645865D+00 EUMP2 =    -0.29036362292879D+04
 Leave Link  804 at Tue Mar 31 14:33:59 2020, MaxMem=  2147483648 cpu:             178.4 elap:              11.2
 (Enter /usr/local/g16/g16/l913.exe)
 CIDS:  MDV=  2147483648.
 Frozen-core window:  NFC=  11 NFV=   0.
 IFCWin=0 IBDFC=1 NFBD=     0     0 NFCmp=     0     0 NFFFC=     0     0
 Using DD3R+UMP44R for 1st iteration.
 Using DD4RQ for 2nd and later iterations.
 Keep R2 and R3 ints in memory in canonical form, NReq=393335085.
 FoFCou: FMM=F IPFlag=           0 FMFlag=           0 FMFlg1=           0
         NFxFlg=           0 DoJE=F BraDBF=F KetDBF=F FulRan=T
         wScrn=  0.000000 ICntrl=       600 IOpCl=  0 I1Cent=           0 NGrid=           0
         NMat0=    1 NMatS0=  19503 NMatT0=    0 NMatD0=    1 NMtDS0=    0 NMtDT0=    0
 Symmetry not used in FoFCou.
 Two-electron integral symmetry not used.
 CIDS: In Core Option IDoMem=           1.
 MP4(SDTQ)
 =========
 Produce multiple copies of IABC intergrals
 DD1Dir will call FoFMem   1 times, MxPair=       272
 NAB=   136 NAA=     0 NBB=     0.
 MP4(D)= -0.14977759D-01
 MP4(S)= -0.64747344D-02
 MP4(R+Q)=  0.15413080D-01
 T4(AAA)= -0.10451413D-02
 T4(AAB)= -0.14194402D-01
 Time for triples=     1773.49 seconds.
 MP4(T)=   -0.30479086D-01
 E3=       -0.11224034D-01        EUMP3=      -0.29036474533D+04
 E4(DQ)=    0.43532072D-03        UMP4(DQ)=   -0.29036470180D+04
 E4(SDQ)=  -0.60394137D-02        UMP4(SDQ)=  -0.29036534927D+04
 E4(SDTQ)= -0.36518500D-01        UMP4(SDTQ)= -0.29036839718D+04
 VARIATIONAL ENERGIES WITH THE FIRST-ORDER WAVEFUNCTION:
 E(VAR1)=  -0.29035226838D+04     E(CISD,4)=  -0.29035221112D+04
 Largest amplitude= 2.26D-02
 Discarding MO integrals.
 Leave Link  913 at Tue Mar 31 14:35:58 2020, MaxMem=  2147483648 cpu:            1896.1 elap:             118.7
 (Enter /usr/local/g16/g16/l601.exe)
 Copying SCF densities to generalized density rwf, IOpCl= 0 IROHF=0.

 **********************************************************************

            Population analysis using the SCF density.

 **********************************************************************

 Orbital symmetries:
       Occupied  (A) (A) (A) (A) (A) (A) (A) (A) (A) (A) (A) (A)
                 (A) (A) (A) (A) (A) (A) (A) (A) (A) (A) (A) (A)
                 (A) (A) (A)
       Virtual   (A) (A) (A) (A) (A) (A) (A) (A) (A) (A) (A) (A)
                 (A) (A) (A) (A) (A) (A) (A) (A) (A) (A) (A) (A)
                 (A) (A) (A) (A) (A) (A) (A) (A) (A) (A) (A) (A)
                 (A) (A) (A) (A) (A) (A) (A) (A) (A) (A) (A) (A)
                 (A) (A) (A) (A) (A) (A) (A) (A) (A) (A) (A) (A)
                 (A) (A) (A) (A) (A) (A) (A) (A) (A) (A) (A) (A)
                 (A) (A) (A) (A) (A) (A) (A) (A) (A) (A) (A) (A)
                 (A) (A) (A) (A) (A) (A) (A) (A) (A) (A) (A) (A)
                 (A) (A) (A) (A) (A) (A) (A) (A) (A) (A) (A) (A)
                 (A) (A) (A) (A) (A) (A) (A) (A) (A) (A) (A) (A)
                 (A) (A) (A) (A) (A) (A) (A) (A) (A) (A) (A) (A)
                 (A) (A) (A) (A) (A) (A) (A) (A) (A) (A) (A) (A)
                 (A) (A) (A) (A) (A) (A) (A) (A) (A) (A) (A) (A)
                 (A) (A) (A) (A) (A) (A) (A) (A) (A) (A) (A) (A)
                 (A) (A)
 The electronic state is 1-A.
 Alpha  occ. eigenvalues -- -520.17488 -69.91243 -63.01901 -63.01899 -63.01896
 Alpha  occ. eigenvalues --  -20.62932 -20.62623 -10.85908  -8.34131  -8.34107
 Alpha  occ. eigenvalues --   -8.34089  -3.83512  -3.83507  -3.83484  -3.83458
 Alpha  occ. eigenvalues --   -3.83454  -1.46628  -1.21761  -1.16500  -0.72373
 Alpha  occ. eigenvalues --   -0.70381  -0.60992  -0.54166  -0.53431  -0.52932
 Alpha  occ. eigenvalues --   -0.50805  -0.47768
 Alpha virt. eigenvalues --    0.03502   0.04513   0.08909   0.10163   0.11582
 Alpha virt. eigenvalues --    0.12501   0.14860   0.15741   0.17473   0.18713
 Alpha virt. eigenvalues --    0.19137   0.21331   0.23398   0.25813   0.26682
 Alpha virt. eigenvalues --    0.28097   0.28453   0.31190   0.34168   0.36023
 Alpha virt. eigenvalues --    0.36435   0.37106   0.38201   0.41957   0.42408
 Alpha virt. eigenvalues --    0.44459   0.46353   0.51697   0.56877   0.59880
 Alpha virt. eigenvalues --    0.60804   0.63960   0.67153   0.71197   0.72926
 Alpha virt. eigenvalues --    0.76003   0.77644   0.78009   0.80501   0.81565
 Alpha virt. eigenvalues --    0.83007   0.83917   0.85355   0.87307   0.88662
 Alpha virt. eigenvalues --    0.91041   0.91143   0.93202   0.95054   0.97350
 Alpha virt. eigenvalues --    0.99608   1.00666   1.01187   1.02883   1.06307
 Alpha virt. eigenvalues --    1.07688   1.09293   1.13297   1.14314   1.17128
 Alpha virt. eigenvalues --    1.17579   1.22103   1.23766   1.25645   1.31095
 Alpha virt. eigenvalues --    1.31725   1.38513   1.42565   1.47535   1.50887
 Alpha virt. eigenvalues --    1.53872   1.58725   1.61427   1.62870   1.69264
 Alpha virt. eigenvalues --    1.76678   1.86313   1.96141   2.01694   2.08215
 Alpha virt. eigenvalues --    2.13387   2.16948   2.25429   2.27570   2.31292
 Alpha virt. eigenvalues --    2.33316   2.36968   2.37623   2.40713   2.42058
 Alpha virt. eigenvalues --    2.44047   2.46940   2.52653   2.53276   2.54679
 Alpha virt. eigenvalues --    2.54777   2.57191   2.61813   2.63211   2.66836
 Alpha virt. eigenvalues --    2.69501   2.69882   2.72173   2.74885   2.75806
 Alpha virt. eigenvalues --    2.78238   2.80185   2.80901   2.85379   2.89548
 Alpha virt. eigenvalues --    2.92432   2.96303   2.98381   3.04111   3.07501
 Alpha virt. eigenvalues --    3.08308   3.24713   3.30546   3.33678   3.82618
 Alpha virt. eigenvalues --    3.89007   4.10888   4.19753   4.25859   4.27673
 Alpha virt. eigenvalues --    4.35417   4.39271   4.43708   4.48603   4.50739
 Alpha virt. eigenvalues --    4.63726   4.72909   4.80265   4.84511   4.97741
 Alpha virt. eigenvalues --    5.13639   5.22187   5.31161   5.37911   5.40008
 Alpha virt. eigenvalues --    5.49898   5.80538   6.16977   6.40221   6.43887
 Alpha virt. eigenvalues --    6.46348   6.64797   6.68835   6.77330   6.89702
 Alpha virt. eigenvalues --    6.94641   7.15049   7.17080   7.19943   7.22100
 Alpha virt. eigenvalues --    7.24807   7.26197   7.27493   7.34120   7.39681
 Alpha virt. eigenvalues --    7.45462   7.56703   7.63197   7.81429   8.12492
 Alpha virt. eigenvalues --    8.20719   8.48411   8.52666  14.59392  15.31839
          Condensed to atoms (all electrons):
               1          2          3          4          5
     1  O    8.116800  -0.074587   0.254594  -0.012791  -0.026132
     2  O   -0.074587   8.143025  -0.000639   0.250736  -0.011387
     3  H    0.254594  -0.000639   0.477482   0.002604   0.001147
     4  H   -0.012791   0.250736   0.002604   0.475172  -0.004008
     5  Kr  -0.026132  -0.011387   0.001147  -0.004008  36.028444
 Mulliken charges:
               1
     1  O   -0.257885
     2  O   -0.307149
     3  H    0.264811
     4  H    0.288286
     5  Kr   0.011936
 Sum of Mulliken charges =   0.00000
 Mulliken charges with hydrogens summed into heavy atoms:
               1
     1  O    0.006927
     2  O   -0.018863
     5  Kr   0.011936
         Mulliken charges condensed to fragments:
      1     -0.011936
      2      0.011936
 Electronic spatial extent (au):  <R**2>=            488.2897
 Charge=             -0.0000 electrons
 Dipole moment (field-independent basis, Debye):
    X=             -0.9442    Y=             -0.3748    Z=              1.3998  Tot=              1.7296
 Quadrupole moment (field-independent basis, Debye-Ang):
   XX=            -31.0614   YY=            -27.9995   ZZ=            -29.2935
   XY=             -3.3404   XZ=              3.7662   YZ=             -1.6078
 Traceless Quadrupole moment (field-independent basis, Debye-Ang):
   XX=             -1.6099   YY=              1.4519   ZZ=              0.1580
   XY=             -3.3404   XZ=              3.7662   YZ=             -1.6078
 Octapole moment (field-independent basis, Debye-Ang**2):
  XXX=            -19.0168  YYY=             -0.9693  ZZZ=              1.0432  XYY=             -4.0935
  XXY=            -12.3242  XXZ=              9.6162  XZZ=             -5.2195  YZZ=             -1.4640
  YYZ=              1.9797  XYZ=             -4.2372
 Hexadecapole moment (field-independent basis, Debye-Ang**3):
 XXXX=           -409.1804 YYYY=            -62.5452 ZZZZ=            -29.0630 XXXY=            -33.3371
 XXXZ=             25.7139 YYYX=             -5.5776 YYYZ=             -2.2330 ZZZX=              3.0401
 ZZZY=             -1.5037 XXYY=            -76.6825 XXZZ=            -71.3843 YYZZ=            -16.0100
 XXYZ=            -11.0954 YYXZ=              4.9609 ZZXY=             -3.2899
 N-N= 1.487418295265D+02 E-N=-7.238003441971D+03  KE= 2.902628254629D+03
 Leave Link  601 at Tue Mar 31 14:35:58 2020, MaxMem=  2147483648 cpu:               0.7 elap:               0.1
 (Enter /usr/local/g16/g16/l122.exe)
 CPIOFr:  IOpCl= 0 IRwI=-1 IRwCP=  731 ICalc= -1 LCPTot=       59414 Len1MO=      159453 IndFrg=       59414
 CPIOFr:  IOpCl= 0 IRwI=-1 IRwCP=  731 ICalc=  0 LCPTot=       59414 Len1MO=      159453 IndFrg=      218867
 Counterpoise: doing calculation for fragment   1 using the basis set of the full-system, NewBq=T
 Leave Link  122 at Tue Mar 31 14:35:58 2020, MaxMem=  2147483648 cpu:               0.0 elap:               0.0
 (Enter /usr/local/g16/g16/l301.exe)
 Basis read from rwf:  (5D, 7F)
 No pseudopotential information found on rwf file.
 There are   229 symmetry adapted cartesian basis functions of A   symmetry.
 There are   197 symmetry adapted basis functions of A   symmetry.
   197 basis functions,   415 primitive gaussians,   229 cartesian basis functions
     9 alpha electrons        9 beta electrons
       nuclear repulsion energy        36.6123391889 Hartrees.
 IExCor=    0 DFT=F Ex=HF Corr=None ExCW=0 ScaHFX=  1.000000
 ScaDFX=  1.000000  1.000000  1.000000  1.000000 ScalE2=  1.000000  1.000000
 IRadAn=      5 IRanWt=     -1 IRanGd=            0 ICorTp=0 IEmpDi=  4
 NAtoms=    5 NActive=    5 NUniq=    5 SFac= 1.00D+00 NAtFMM=   60 NAOKFM=F Big=F
 Integral buffers will be    131072 words long.
 Raffenetti 1 integral format.
 Two-electron integral symmetry is turned on.
 No density basis found on file   718.
 Leave Link  301 at Tue Mar 31 14:35:58 2020, MaxMem=  2147483648 cpu:               0.4 elap:               0.0
 (Enter /usr/local/g16/g16/l302.exe)
 NPDir=0 NMtPBC=     1 NCelOv=     1 NCel=       1 NClECP=     1 NCelD=      1
         NCelK=      1 NCelE2=     1 NClLst=     1 CellRange=     0.0.
 One-electron integrals computed using PRISM.
 One-electron integral symmetry used in STVInt
 NBasis=   197 RedAO= T EigKep=  2.09D-04  NBF=   197
 NBsUse=   197 1.00D-06 EigRej= -1.00D+00 NBFU=   197
 Leave Link  302 at Tue Mar 31 14:35:58 2020, MaxMem=  2147483648 cpu:               1.7 elap:               0.1
 (Enter /usr/local/g16/g16/l303.exe)
 DipDrv:  MaxL=1.
 Leave Link  303 at Tue Mar 31 14:35:58 2020, MaxMem=  2147483648 cpu:               0.4 elap:               0.0
 (Enter /usr/local/g16/g16/l401.exe)
 ExpMin= 2.53D-02 ExpMax= 1.17D+07 ExpMxC= 1.33D+04 IAcc=3 IRadAn=         5 AccDes= 0.00D+00
 Harris functional with IExCor=  205 and IRadAn=       5 diagonalized for initial guess.
 HarFok:  IExCor=  205 AccDes= 0.00D+00 IRadAn=         5 IDoV= 1 UseB2=F ITyADJ=14
 ICtDFT=  3500011 ScaDFX=  1.000000  1.000000  1.000000  1.000000
 FoFCou: FMM=F IPFlag=           0 FMFlag=      100000 FMFlg1=           0
         NFxFlg=           0 DoJE=T BraDBF=F KetDBF=T FulRan=T
         wScrn=  0.000000 ICntrl=       500 IOpCl=  0 I1Cent=   200000004 NGrid=           0
         NMat0=    1 NMatS0=      1 NMatT0=    0 NMatD0=    1 NMtDS0=    0 NMtDT0=    0
 Petite list used in FoFCou.
 Harris En= -150.935623779815    
 JPrj=0 DoOrth=F DoCkMO=F.
 Leave Link  401 at Tue Mar 31 14:35:59 2020, MaxMem=  2147483648 cpu:               3.0 elap:               0.2
 (Enter /usr/local/g16/g16/l502.exe)
 Keep R1 ints in memory in canonical form, NReq=203133600.
 FoFCou: FMM=F IPFlag=           0 FMFlag=           0 FMFlg1=           0
         NFxFlg=           0 DoJE=F BraDBF=F KetDBF=F FulRan=T
         wScrn=  0.000000 ICntrl=       600 IOpCl=  0 I1Cent=           0 NGrid=           0
         NMat0=    1 NMatS0=  19503 NMatT0=    0 NMatD0=    1 NMtDS0=    0 NMtDT0=    0
 Symmetry not used in FoFCou.
 Two-electron integral symmetry not used.
 Closed shell SCF:
 Using DIIS extrapolation, IDIIS=  1040.
 NGot=  2147483648 LenX=  1957179903 LenY=  1957127021
 Requested convergence on RMS density matrix=1.00D-08 within 128 cycles.
 Requested convergence on MAX density matrix=1.00D-06.
 Requested convergence on             energy=1.00D-06.
 No special actions if energy rises.

 Cycle   1  Pass 1  IDiag  1:
 E= -150.774063630724    
 DIIS: error= 2.42D-02 at cycle   1 NSaved=   1.
 NSaved= 1 IEnMin= 1 EnMin= -150.774063630724     IErMin= 1 ErrMin= 2.42D-02
 ErrMax= 2.42D-02  0.00D+00 EMaxC= 1.00D-01 BMatC= 2.27D-01 BMatP= 2.27D-01
 IDIUse=3 WtCom= 7.58D-01 WtEn= 2.42D-01
 Coeff-Com:  0.100D+01
 Coeff-En:   0.100D+01
 Coeff:      0.100D+01
 Gap=     0.704 Goal=   None    Shift=    0.000
 GapD=    0.704 DampG=2.000 DampE=0.500 DampFc=1.0000 IDamp=-1.
 RMSDP=9.33D-04 MaxDP=2.91D-02              OVMax= 6.41D-02

 Cycle   2  Pass 1  IDiag  1:
 E= -150.826408703606     Delta-E=       -0.052345072881 Rises=F Damp=F
 DIIS: error= 7.52D-03 at cycle   2 NSaved=   2.
 NSaved= 2 IEnMin= 2 EnMin= -150.826408703606     IErMin= 2 ErrMin= 7.52D-03
 ErrMax= 7.52D-03  0.00D+00 EMaxC= 1.00D-01 BMatC= 1.55D-02 BMatP= 2.27D-01
 IDIUse=3 WtCom= 9.25D-01 WtEn= 7.52D-02
 Coeff-Com:  0.102D+00 0.898D+00
 Coeff-En:   0.000D+00 0.100D+01
 Coeff:      0.943D-01 0.906D+00
 Gap=     0.537 Goal=   None    Shift=    0.000
 RMSDP=4.76D-04 MaxDP=2.51D-02 DE=-5.23D-02 OVMax= 2.80D-02

 Cycle   3  Pass 1  IDiag  1:
 E= -150.834122309684     Delta-E=       -0.007713606078 Rises=F Damp=F
 DIIS: error= 2.73D-03 at cycle   3 NSaved=   3.
 NSaved= 3 IEnMin= 3 EnMin= -150.834122309684     IErMin= 3 ErrMin= 2.73D-03
 ErrMax= 2.73D-03  0.00D+00 EMaxC= 1.00D-01 BMatC= 2.22D-03 BMatP= 1.55D-02
 IDIUse=3 WtCom= 9.73D-01 WtEn= 2.73D-02
 Coeff-Com: -0.207D-01 0.254D+00 0.767D+00
 Coeff-En:   0.000D+00 0.000D+00 0.100D+01
 Coeff:     -0.202D-01 0.247D+00 0.773D+00
 Gap=     0.509 Goal=   None    Shift=    0.000
 RMSDP=1.06D-04 MaxDP=3.80D-03 DE=-7.71D-03 OVMax= 8.90D-03

 Cycle   4  Pass 1  IDiag  1:
 E= -150.835501397213     Delta-E=       -0.001379087529 Rises=F Damp=F
 DIIS: error= 2.08D-04 at cycle   4 NSaved=   4.
 NSaved= 4 IEnMin= 4 EnMin= -150.835501397213     IErMin= 4 ErrMin= 2.08D-04
 ErrMax= 2.08D-04  0.00D+00 EMaxC= 1.00D-01 BMatC= 1.45D-05 BMatP= 2.22D-03
 IDIUse=3 WtCom= 9.98D-01 WtEn= 2.08D-03
 Coeff-Com: -0.172D-02-0.107D-01 0.836D-02 0.100D+01
 Coeff-En:   0.000D+00 0.000D+00 0.000D+00 0.100D+01
 Coeff:     -0.171D-02-0.107D-01 0.834D-02 0.100D+01
 Gap=     0.510 Goal=   None    Shift=    0.000
 RMSDP=1.57D-05 MaxDP=3.84D-04 DE=-1.38D-03 OVMax= 1.27D-03

 Cycle   5  Pass 1  IDiag  1:
 E= -150.835522327363     Delta-E=       -0.000020930150 Rises=F Damp=F
 DIIS: error= 8.36D-05 at cycle   5 NSaved=   5.
 NSaved= 5 IEnMin= 5 EnMin= -150.835522327363     IErMin= 5 ErrMin= 8.36D-05
 ErrMax= 8.36D-05  0.00D+00 EMaxC= 1.00D-01 BMatC= 1.47D-06 BMatP= 1.45D-05
 IDIUse=1 WtCom= 1.00D+00 WtEn= 0.00D+00
 Coeff-Com:  0.166D-02-0.165D-01-0.573D-01-0.170D+00 0.124D+01
 Coeff:      0.166D-02-0.165D-01-0.573D-01-0.170D+00 0.124D+01
 Gap=     0.510 Goal=   None    Shift=    0.000
 RMSDP=8.88D-06 MaxDP=2.41D-04 DE=-2.09D-05 OVMax= 7.91D-04

 Cycle   6  Pass 1  IDiag  1:
 E= -150.835526037657     Delta-E=       -0.000003710294 Rises=F Damp=F
 DIIS: error= 1.80D-05 at cycle   6 NSaved=   6.
 NSaved= 6 IEnMin= 6 EnMin= -150.835526037657     IErMin= 6 ErrMin= 1.80D-05
 ErrMax= 1.80D-05  0.00D+00 EMaxC= 1.00D-01 BMatC= 8.97D-08 BMatP= 1.47D-06
 IDIUse=1 WtCom= 1.00D+00 WtEn= 0.00D+00
 Coeff-Com: -0.477D-03 0.594D-02 0.209D-01 0.284D-01-0.490D+00 0.144D+01
 Coeff:     -0.477D-03 0.594D-02 0.209D-01 0.284D-01-0.490D+00 0.144D+01
 Gap=     0.511 Goal=   None    Shift=    0.000
 RMSDP=3.07D-06 MaxDP=7.94D-05 DE=-3.71D-06 OVMax= 3.83D-04

 Cycle   7  Pass 1  IDiag  1:
 E= -150.835526364109     Delta-E=       -0.000000326452 Rises=F Damp=F
 DIIS: error= 6.40D-06 at cycle   7 NSaved=   7.
 NSaved= 7 IEnMin= 7 EnMin= -150.835526364109     IErMin= 7 ErrMin= 6.40D-06
 ErrMax= 6.40D-06  0.00D+00 EMaxC= 1.00D-01 BMatC= 9.43D-09 BMatP= 8.97D-08
 IDIUse=1 WtCom= 1.00D+00 WtEn= 0.00D+00
 Coeff-Com:  0.123D-03-0.178D-02-0.690D-02-0.471D-02 0.163D+00-0.675D+00
 Coeff-Com:  0.153D+01
 Coeff:      0.123D-03-0.178D-02-0.690D-02-0.471D-02 0.163D+00-0.675D+00
 Coeff:      0.153D+01
 Gap=     0.510 Goal=   None    Shift=    0.000
 RMSDP=1.14D-06 MaxDP=2.63D-05 DE=-3.26D-07 OVMax= 1.74D-04

 Cycle   8  Pass 1  IDiag  1:
 E= -150.835526408424     Delta-E=       -0.000000044316 Rises=F Damp=F
 DIIS: error= 2.92D-06 at cycle   8 NSaved=   8.
 NSaved= 8 IEnMin= 8 EnMin= -150.835526408424     IErMin= 8 ErrMin= 2.92D-06
 ErrMax= 2.92D-06  0.00D+00 EMaxC= 1.00D-01 BMatC= 1.70D-09 BMatP= 9.43D-09
 IDIUse=1 WtCom= 1.00D+00 WtEn= 0.00D+00
 Coeff-Com:  0.306D-05 0.154D-03 0.107D-02-0.349D-02-0.184D-01 0.203D+00
 Coeff-Com: -0.104D+01 0.186D+01
 Coeff:      0.306D-05 0.154D-03 0.107D-02-0.349D-02-0.184D-01 0.203D+00
 Coeff:     -0.104D+01 0.186D+01
 Gap=     0.510 Goal=   None    Shift=    0.000
 RMSDP=6.68D-07 MaxDP=1.70D-05 DE=-4.43D-08 OVMax= 1.10D-04

 Cycle   9  Pass 1  IDiag  1:
 E= -150.835526418022     Delta-E=       -0.000000009597 Rises=F Damp=F
 DIIS: error= 5.78D-07 at cycle   9 NSaved=   9.
 NSaved= 9 IEnMin= 9 EnMin= -150.835526418022     IErMin= 9 ErrMin= 5.78D-07
 ErrMax= 5.78D-07  0.00D+00 EMaxC= 1.00D-01 BMatC= 9.68D-11 BMatP= 1.70D-09
 IDIUse=1 WtCom= 1.00D+00 WtEn= 0.00D+00
 Coeff-Com: -0.124D-04 0.143D-03 0.496D-03 0.177D-02-0.157D-01 0.372D-01
 Coeff-Com:  0.205D-01-0.271D+00 0.123D+01
 Coeff:     -0.124D-04 0.143D-03 0.496D-03 0.177D-02-0.157D-01 0.372D-01
 Coeff:      0.205D-01-0.271D+00 0.123D+01
 Gap=     0.510 Goal=   None    Shift=    0.000
 RMSDP=1.13D-07 MaxDP=2.51D-06 DE=-9.60D-09 OVMax= 1.73D-05

 Cycle  10  Pass 1  IDiag  1:
 E= -150.835526418348     Delta-E=       -0.000000000326 Rises=F Damp=F
 DIIS: error= 2.56D-07 at cycle  10 NSaved=  10.
 NSaved=10 IEnMin=10 EnMin= -150.835526418348     IErMin=10 ErrMin= 2.56D-07
 ErrMax= 2.56D-07  0.00D+00 EMaxC= 1.00D-01 BMatC= 2.18D-11 BMatP= 9.68D-11
 IDIUse=1 WtCom= 1.00D+00 WtEn= 0.00D+00
 Coeff-Com: -0.495D-05 0.292D-04 0.308D-04 0.133D-02-0.383D-02-0.127D-01
 Coeff-Com:  0.147D+00-0.345D+00 0.409D+00 0.804D+00
 Coeff:     -0.495D-05 0.292D-04 0.308D-04 0.133D-02-0.383D-02-0.127D-01
 Coeff:      0.147D+00-0.345D+00 0.409D+00 0.804D+00
 Gap=     0.510 Goal=   None    Shift=    0.000
 RMSDP=2.77D-08 MaxDP=8.55D-07 DE=-3.26D-10 OVMax= 3.72D-06

 Cycle  11  Pass 1  IDiag  1:
 E= -150.835526418376     Delta-E=       -0.000000000029 Rises=F Damp=F
 DIIS: error= 7.13D-08 at cycle  11 NSaved=  11.
 NSaved=11 IEnMin=11 EnMin= -150.835526418376     IErMin=11 ErrMin= 7.13D-08
 ErrMax= 7.13D-08  0.00D+00 EMaxC= 1.00D-01 BMatC= 1.22D-12 BMatP= 2.18D-11
 IDIUse=1 WtCom= 1.00D+00 WtEn= 0.00D+00
 Coeff-Com:  0.137D-05-0.182D-04-0.641D-04-0.618D-04 0.155D-02-0.444D-02
 Coeff-Com:  0.703D-03 0.244D-01-0.140D+00 0.666D-01 0.105D+01
 Coeff:      0.137D-05-0.182D-04-0.641D-04-0.618D-04 0.155D-02-0.444D-02
 Coeff:      0.703D-03 0.244D-01-0.140D+00 0.666D-01 0.105D+01
 Gap=     0.510 Goal=   None    Shift=    0.000
 RMSDP=7.15D-09 MaxDP=1.49D-07 DE=-2.85D-11 OVMax= 7.54D-07

 SCF Done:  E(RHF) =  -150.835526418     A.U. after   11 cycles
            NFock= 11  Conv=0.72D-08     -V/T= 2.0021
 KE= 1.505175278819D+02 PE=-4.314501690503D+02 EE= 9.348477556120D+01
 Leave Link  502 at Tue Mar 31 14:36:02 2020, MaxMem=  2147483648 cpu:              26.4 elap:               3.4
 (Enter /usr/local/g16/g16/l801.exe)
 Windowed orbitals will be sorted by symmetry type.
 ExpMin= 2.53D-02 ExpMax= 1.17D+07 ExpMxC= 1.33D+04 IAcc=3 IRadAn=         5 AccDes= 0.00D+00
 HarFok:  IExCor=  205 AccDes= 0.00D+00 IRadAn=         5 IDoV=-2 UseB2=F ITyADJ=14
 ICtDFT= 12500011 ScaDFX=  1.000000  1.000000  1.000000  1.000000
 Largest valence mixing into a core orbital is  1.19D-04
 Largest core mixing into a valence orbital is  2.03D-05
 Range of M.O.s used for correlation:     3   197
 NBasis=   197 NAE=     9 NBE=     9 NFC=     2 NFV=     0
 NROrb=    195 NOA=     7 NOB=     7 NVA=   188 NVB=   188

 **** Warning!!: The largest alpha MO coefficient is  0.15211731D+02

 Leave Link  801 at Tue Mar 31 14:36:02 2020, MaxMem=  2147483648 cpu:               0.6 elap:               0.0
 (Enter /usr/local/g16/g16/l804.exe)
 Closed-shell transformation, MDV=  2147483648 ITran=4 ISComp=1.
 Semi-Direct transformation.
 ModeAB=           2 MOrb=             7 LenV=    2146282059
 LASXX=     25261509 LTotXX=    25261509 LenRXX=    25261509
 LTotAB=    25646992 MaxLAS=    35947275 LenRXY=    35947275
 NonZer=    50523018 LenScr=    76544000 LnRSAI=           0
 LnScr1=           0 LExtra=           0 Total=    137752784
 MaxDsk=          -1 SrtSym=           F ITran=            4
 DoSDTr:  NPSUse= 16
 JobTyp=0 Pass  1:  I=   1 to   7.
 (rs|ai) integrals will be sorted in core.
 Complete sort for first half transformation.
 First half transformation complete.
 Complete sort for second half transformation.
 Second half transformation complete.
 SymMOI:  orbitals are not symmetric.
 Spin components of T(2) and E(2):
     alpha-alpha T2 =       0.1597722980D-01 E2=     -0.6278720068D-01
     alpha-beta  T2 =       0.9314784434D-01 E2=     -0.3819037466D+00
     beta-beta   T2 =       0.1597722980D-01 E2=     -0.6278720068D-01
 ANorm=    0.1060708397D+01
 E2 =    -0.5074781480D+00 EUMP2 =    -0.15134300456634D+03
 Leave Link  804 at Tue Mar 31 14:36:10 2020, MaxMem=  2147483648 cpu:             121.9 elap:               7.6
 (Enter /usr/local/g16/g16/l913.exe)
 CIDS:  MDV=  2147483648.
 Frozen-core window:  NFC=   2 NFV=   0.
 IFCWin=0 IBDFC=1 NFBD=     0     0 NFCmp=     0     0 NFFFC=     0     0
 Using DD3R+UMP44R for 1st iteration.
 Using DD4RQ for 2nd and later iterations.
 Keep R2 and R3 ints in memory in canonical form, NReq=393332277.
 FoFCou: FMM=F IPFlag=           0 FMFlag=           0 FMFlg1=           0
         NFxFlg=           0 DoJE=F BraDBF=F KetDBF=F FulRan=T
         wScrn=  0.000000 ICntrl=       600 IOpCl=  0 I1Cent=           0 NGrid=           0
         NMat0=    1 NMatS0=  19503 NMatT0=    0 NMatD0=    1 NMtDS0=    0 NMtDT0=    0
 Symmetry not used in FoFCou.
 Two-electron integral symmetry not used.
 CIDS: In Core Option IDoMem=           1.
 MP4(SDTQ)
 =========
 Produce multiple copies of IABC intergrals
 DD1Dir will call FoFMem   1 times, MxPair=        56
 NAB=    28 NAA=     0 NBB=     0.
 MP4(D)= -0.11272698D-01
 MP4(S)= -0.51901789D-02
 MP4(R+Q)=  0.10745389D-01
 T4(AAA)= -0.65711440D-03
 T4(AAB)= -0.10244474D-01
 Time for triples=      384.36 seconds.
 MP4(T)=   -0.21803176D-01
 E3=       -0.21381000D-02        EUMP3=      -0.15134514267D+03
 E4(DQ)=   -0.52730835D-03        UMP4(DQ)=   -0.15134566997D+03
 E4(SDQ)=  -0.57174873D-02        UMP4(SDQ)=  -0.15135086015D+03
 E4(SDTQ)= -0.27520663D-01        UMP4(SDTQ)= -0.15137266333D+03
 VARIATIONAL ENERGIES WITH THE FIRST-ORDER WAVEFUNCTION:
 E(VAR1)=  -0.15128847745D+03     E(CISD,4)=  -0.15129811886D+03
 Largest amplitude= 2.12D-02
 Discarding MO integrals.
 Leave Link  913 at Tue Mar 31 14:36:37 2020, MaxMem=  2147483648 cpu:             441.3 elap:              27.7
 (Enter /usr/local/g16/g16/l601.exe)
 Copying SCF densities to generalized density rwf, IOpCl= 0 IROHF=0.

 **********************************************************************

            Population analysis using the SCF density.

 **********************************************************************

 Orbital symmetries:
       Occupied  (A) (A) (A) (A) (A) (A) (A) (A) (A)
       Virtual   (A) (A) (A) (A) (A) (A) (A) (A) (A) (A) (A) (A)
                 (A) (A) (A) (A) (A) (A) (A) (A) (A) (A) (A) (A)
                 (A) (A) (A) (A) (A) (A) (A) (A) (A) (A) (A) (A)
                 (A) (A) (A) (A) (A) (A) (A) (A) (A) (A) (A) (A)
                 (A) (A) (A) (A) (A) (A) (A) (A) (A) (A) (A) (A)
                 (A) (A) (A) (A) (A) (A) (A) (A) (A) (A) (A) (A)
                 (A) (A) (A) (A) (A) (A) (A) (A) (A) (A) (A) (A)
                 (A) (A) (A) (A) (A) (A) (A) (A) (A) (A) (A) (A)
                 (A) (A) (A) (A) (A) (A) (A) (A) (A) (A) (A) (A)
                 (A) (A) (A) (A) (A) (A) (A) (A) (A) (A) (A) (A)
                 (A) (A) (A) (A) (A) (A) (A) (A) (A) (A) (A) (A)
                 (A) (A) (A) (A) (A) (A) (A) (A) (A) (A) (A) (A)
                 (A) (A) (A) (A) (A) (A) (A) (A) (A) (A) (A) (A)
                 (A) (A) (A) (A) (A) (A) (A) (A) (A) (A) (A) (A)
                 (A) (A) (A) (A) (A) (A) (A) (A) (A) (A) (A) (A)
                 (A) (A) (A) (A) (A) (A) (A) (A)
 The electronic state is 1-A.
 Alpha  occ. eigenvalues --  -20.63191 -20.63162  -1.46806  -1.21920  -0.72377
 Alpha  occ. eigenvalues --   -0.70080  -0.61100  -0.51413  -0.48104
 Alpha virt. eigenvalues --    0.02946   0.03966   0.07405   0.08716   0.10345
 Alpha virt. eigenvalues --    0.11408   0.13228   0.14848   0.17444   0.17658
 Alpha virt. eigenvalues --    0.19329   0.21133   0.23741   0.26368   0.27109
 Alpha virt. eigenvalues --    0.27987   0.31661   0.32569   0.33472   0.34225
 Alpha virt. eigenvalues --    0.35127   0.38202   0.38632   0.41946   0.43000
 Alpha virt. eigenvalues --    0.43487   0.45065   0.48971   0.49636   0.51205
 Alpha virt. eigenvalues --    0.56508   0.58784   0.63839   0.66943   0.72042
 Alpha virt. eigenvalues --    0.76010   0.77694   0.79095   0.81657   0.82377
 Alpha virt. eigenvalues --    0.84369   0.85872   0.91841   0.93246   0.94351
 Alpha virt. eigenvalues --    0.95483   0.96692   0.99853   1.01848   1.02375
 Alpha virt. eigenvalues --    1.03533   1.06499   1.09333   1.12144   1.14880
 Alpha virt. eigenvalues --    1.16018   1.17533   1.19972   1.26908   1.28884
 Alpha virt. eigenvalues --    1.29734   1.31183   1.33239   1.34079   1.34287
 Alpha virt. eigenvalues --    1.35074   1.37615   1.39508   1.41006   1.43216
 Alpha virt. eigenvalues --    1.48101   1.53870   1.57141   1.59648   1.61991
 Alpha virt. eigenvalues --    1.65165   1.69695   1.71225   1.76871   1.87826
 Alpha virt. eigenvalues --    1.90846   1.97504   2.02423   2.09424   2.15457
 Alpha virt. eigenvalues --    2.21473   2.26409   2.29511   2.32116   2.36166
 Alpha virt. eigenvalues --    2.41794   2.45132   2.46937   2.51089   2.58464
 Alpha virt. eigenvalues --    2.59183   2.65762   2.68716   2.77089   2.80638
 Alpha virt. eigenvalues --    2.80794   2.88811   3.01754   3.03800   3.06671
 Alpha virt. eigenvalues --    3.24011   3.25940   3.26192   3.29220   3.33917
 Alpha virt. eigenvalues --    3.44904   3.57459   3.78407   3.78877   3.80409
 Alpha virt. eigenvalues --    3.81994   3.82468   3.83188   3.83644   3.87387
 Alpha virt. eigenvalues --    3.90139   3.93502   3.96817   4.00796   4.02614
 Alpha virt. eigenvalues --    4.12019   4.17003   4.24117   4.26633   4.35646
 Alpha virt. eigenvalues --    4.37837   4.43229   4.45794   4.48884   4.52849
 Alpha virt. eigenvalues --    4.65111   4.73877   4.83733   4.97484   5.13946
 Alpha virt. eigenvalues --    5.21964   5.30996   5.37973   5.39948   5.50007
 Alpha virt. eigenvalues --    5.80168   6.16682   6.40015   6.43670   6.45930
 Alpha virt. eigenvalues --    6.64696   6.68713   6.77162   6.89545   6.94444
 Alpha virt. eigenvalues --    7.14776   7.16814   7.19755   7.21556   7.24617
 Alpha virt. eigenvalues --    7.25848   7.27150   7.33816   7.39483   7.45230
 Alpha virt. eigenvalues --    7.56472   7.62552   7.81239   8.12249   8.20472
 Alpha virt. eigenvalues --    8.48205   8.51777  10.90245  14.58877  14.83436
 Alpha virt. eigenvalues --   14.87644  15.07526  15.33932  29.03223  29.03604
 Alpha virt. eigenvalues --   29.08152  29.13805  29.23248  49.10917 148.31512
 Alpha virt. eigenvalues --  148.38347 148.70701 752.51578
          Condensed to atoms (all electrons):
               1          2          3          4          5
     1  O    8.095654  -0.071403   0.252535  -0.013223  -0.000035
     2  O   -0.071403   8.125239  -0.001660   0.244935  -0.001329
     3  H    0.252535  -0.001660   0.479683   0.003482  -0.000760
     4  H   -0.013223   0.244935   0.003482   0.479962  -0.003530
     5  Kr  -0.000035  -0.001329  -0.000760  -0.003530   0.001435
 Mulliken charges:
               1
     1  O   -0.263529
     2  O   -0.295782
     3  H    0.266720
     4  H    0.288373
     5  Kr   0.004218
 Sum of Mulliken charges =  -0.00000
 Mulliken charges with hydrogens summed into heavy atoms:
               1
     1  O    0.003191
     2  O   -0.007409
     5  Kr   0.004218
         Mulliken charges condensed to fragments:
      1     -0.004218
      2      0.004218
 Electronic spatial extent (au):  <R**2>=            322.3361
 Charge=             -0.0000 electrons
 Dipole moment (field-independent basis, Debye):
    X=             -0.8114    Y=             -0.1274    Z=              1.4606  Tot=              1.6757
 Quadrupole moment (field-independent basis, Debye-Ang):
   XX=            -13.1895   YY=            -10.3187   ZZ=            -11.6564
   XY=             -3.5191   XZ=              3.7164   YZ=             -1.6117
 Traceless Quadrupole moment (field-independent basis, Debye-Ang):
   XX=             -1.4680   YY=              1.4029   ZZ=              0.0651
   XY=             -3.5191   XZ=              3.7164   YZ=             -1.6117
 Octapole moment (field-independent basis, Debye-Ang**2):
  XXX=            -70.6200  YYY=             -1.4369  ZZZ=              1.2814  XYY=            -21.5185
  XXY=            -12.2832  XXZ=              9.7339  XZZ=            -22.7040  YZZ=             -1.6172
  YYZ=              2.0567  XYZ=             -4.2391
 Hexadecapole moment (field-independent basis, Debye-Ang**3):
 XXXX=           -284.4130 YYYY=            -44.2283 ZZZZ=            -10.7975 XXXY=            -32.8761
 XXXZ=             25.4668 YYYX=             -5.1729 YYYZ=             -2.2426 ZZZX=              2.8228
 ZZZY=             -1.5133 XXYY=            -52.9228 XXZZ=            -47.8136 YYZZ=             -9.9062
 XXYZ=            -11.1074 YYXZ=              4.8804 ZZXY=             -3.1185
 N-N= 3.661233918890D+01 E-N=-4.314501671881D+02  KE= 1.505175278819D+02
 Leave Link  601 at Tue Mar 31 14:36:38 2020, MaxMem=  2147483648 cpu:               0.5 elap:               0.0
 (Enter /usr/local/g16/g16/l122.exe)
 CPIOFr:  IOpCl= 0 IRwI=-1 IRwCP=  731 ICalc=  1 LCPTot=       59414 Len1MO=      159453 IndFrg=      378320
 Counterpoise: doing calculation for fragment   2 using the basis set of the full-system, NewBq=T
 Leave Link  122 at Tue Mar 31 14:36:38 2020, MaxMem=  2147483648 cpu:               0.0 elap:               0.0
 (Enter /usr/local/g16/g16/l301.exe)
 Basis read from rwf:  (5D, 7F)
 No pseudopotential information found on rwf file.
 There are   229 symmetry adapted cartesian basis functions of A   symmetry.
 There are   197 symmetry adapted basis functions of A   symmetry.
   197 basis functions,   415 primitive gaussians,   229 cartesian basis functions
    18 alpha electrons       18 beta electrons
       nuclear repulsion energy         0.0000000000 Hartrees.
 IExCor=    0 DFT=F Ex=HF Corr=None ExCW=0 ScaHFX=  1.000000
 ScaDFX=  1.000000  1.000000  1.000000  1.000000 ScalE2=  1.000000  1.000000
 IRadAn=      5 IRanWt=     -1 IRanGd=            0 ICorTp=0 IEmpDi=  4
 NAtoms=    5 NActive=    5 NUniq=    5 SFac= 1.00D+00 NAtFMM=   60 NAOKFM=F Big=F
 Integral buffers will be    131072 words long.
 Raffenetti 1 integral format.
 Two-electron integral symmetry is turned on.
 No density basis found on file   718.
 Leave Link  301 at Tue Mar 31 14:36:38 2020, MaxMem=  2147483648 cpu:               0.4 elap:               0.0
 (Enter /usr/local/g16/g16/l302.exe)
 NPDir=0 NMtPBC=     1 NCelOv=     1 NCel=       1 NClECP=     1 NCelD=      1
         NCelK=      1 NCelE2=     1 NClLst=     1 CellRange=     0.0.
 One-electron integrals computed using PRISM.
 One-electron integral symmetry used in STVInt
 NBasis=   197 RedAO= T EigKep=  2.09D-04  NBF=   197
 NBsUse=   197 1.00D-06 EigRej= -1.00D+00 NBFU=   197
 Leave Link  302 at Tue Mar 31 14:36:38 2020, MaxMem=  2147483648 cpu:               1.8 elap:               0.1
 (Enter /usr/local/g16/g16/l303.exe)
 DipDrv:  MaxL=1.
 Leave Link  303 at Tue Mar 31 14:36:38 2020, MaxMem=  2147483648 cpu:               0.4 elap:               0.0
 (Enter /usr/local/g16/g16/l401.exe)
 ExpMin= 2.53D-02 ExpMax= 1.17D+07 ExpMxC= 1.33D+04 IAcc=3 IRadAn=         5 AccDes= 0.00D+00
 Harris functional with IExCor=  205 and IRadAn=       5 diagonalized for initial guess.
 HarFok:  IExCor=  205 AccDes= 0.00D+00 IRadAn=         5 IDoV= 1 UseB2=F ITyADJ=14
 ICtDFT=  3500011 ScaDFX=  1.000000  1.000000  1.000000  1.000000
 FoFCou: FMM=F IPFlag=           0 FMFlag=      100000 FMFlg1=           0
         NFxFlg=           0 DoJE=T BraDBF=F KetDBF=T FulRan=T
         wScrn=  0.000000 ICntrl=       500 IOpCl=  0 I1Cent=   200000004 NGrid=           0
         NMat0=    1 NMatS0=      1 NMatT0=    0 NMatD0=    1 NMtDS0=    0 NMtDT0=    0
 Petite list used in FoFCou.
 Harris En= -2751.06002477701    
 JPrj=0 DoOrth=F DoCkMO=F.
 Leave Link  401 at Tue Mar 31 14:36:38 2020, MaxMem=  2147483648 cpu:               3.2 elap:               0.2
 (Enter /usr/local/g16/g16/l502.exe)
 Keep R1 ints in memory in canonical form, NReq=203133600.
 FoFCou: FMM=F IPFlag=           0 FMFlag=           0 FMFlg1=           0
         NFxFlg=           0 DoJE=F BraDBF=F KetDBF=F FulRan=T
         wScrn=  0.000000 ICntrl=       600 IOpCl=  0 I1Cent=           0 NGrid=           0
         NMat0=    1 NMatS0=  19503 NMatT0=    0 NMatD0=    1 NMtDS0=    0 NMtDT0=    0
 Symmetry not used in FoFCou.
 Two-electron integral symmetry not used.
 Closed shell SCF:
 Using DIIS extrapolation, IDIIS=  1040.
 NGot=  2147483648 LenX=  1957179903 LenY=  1957127021
 Requested convergence on RMS density matrix=1.00D-08 within 128 cycles.
 Requested convergence on MAX density matrix=1.00D-06.
 Requested convergence on             energy=1.00D-06.
 No special actions if energy rises.

 Cycle   1  Pass 1  IDiag  1:
 E= -2752.00363648177    
 DIIS: error= 3.03D-02 at cycle   1 NSaved=   1.
 NSaved= 1 IEnMin= 1 EnMin= -2752.00363648177     IErMin= 1 ErrMin= 3.03D-02
 ErrMax= 3.03D-02  0.00D+00 EMaxC= 1.00D-01 BMatC= 4.28D-01 BMatP= 4.28D-01
 IDIUse=3 WtCom= 6.97D-01 WtEn= 3.03D-01
 Coeff-Com:  0.100D+01
 Coeff-En:   0.100D+01
 Coeff:      0.100D+01
 Gap=     0.631 Goal=   None    Shift=    0.000
 GapD=    0.631 DampG=2.000 DampE=0.500 DampFc=1.0000 IDamp=-1.
 RMSDP=1.75D-03 MaxDP=1.29D-01              OVMax= 2.38D-02

 Cycle   2  Pass 1  IDiag  1:
 E= -2752.04698482408     Delta-E=       -0.043348342312 Rises=F Damp=F
 DIIS: error= 6.27D-03 at cycle   2 NSaved=   2.
 NSaved= 2 IEnMin= 2 EnMin= -2752.04698482408     IErMin= 2 ErrMin= 6.27D-03
 ErrMax= 6.27D-03  0.00D+00 EMaxC= 1.00D-01 BMatC= 1.97D-02 BMatP= 4.28D-01
 IDIUse=3 WtCom= 9.37D-01 WtEn= 6.27D-02
 Coeff-Com:  0.152D+00 0.848D+00
 Coeff-En:   0.000D+00 0.100D+01
 Coeff:      0.142D+00 0.858D+00
 Gap=     0.544 Goal=   None    Shift=    0.000
 RMSDP=5.69D-04 MaxDP=3.48D-02 DE=-4.33D-02 OVMax= 1.31D-02

 Cycle   3  Pass 1  IDiag  1:
 E= -2752.05205791282     Delta-E=       -0.005073088742 Rises=F Damp=F
 DIIS: error= 1.19D-03 at cycle   3 NSaved=   3.
 NSaved= 3 IEnMin= 3 EnMin= -2752.05205791282     IErMin= 3 ErrMin= 1.19D-03
 ErrMax= 1.19D-03  0.00D+00 EMaxC= 1.00D-01 BMatC= 6.96D-04 BMatP= 1.97D-02
 IDIUse=3 WtCom= 9.88D-01 WtEn= 1.19D-02
 Coeff-Com: -0.128D-02 0.154D+00 0.848D+00
 Coeff-En:   0.000D+00 0.000D+00 0.100D+01
 Coeff:     -0.126D-02 0.152D+00 0.849D+00
 Gap=     0.555 Goal=   None    Shift=    0.000
 RMSDP=7.39D-05 MaxDP=4.31D-03 DE=-5.07D-03 OVMax= 2.86D-03

 Cycle   4  Pass 1  IDiag  1:
 E= -2752.05226511914     Delta-E=       -0.000207206318 Rises=F Damp=F
 DIIS: error= 3.61D-05 at cycle   4 NSaved=   4.
 NSaved= 4 IEnMin= 4 EnMin= -2752.05226511914     IErMin= 4 ErrMin= 3.61D-05
 ErrMax= 3.61D-05  0.00D+00 EMaxC= 1.00D-01 BMatC= 6.99D-07 BMatP= 6.96D-04
 IDIUse=1 WtCom= 1.00D+00 WtEn= 0.00D+00
 Coeff-Com: -0.365D-03-0.175D-01-0.596D-01 0.108D+01
 Coeff:     -0.365D-03-0.175D-01-0.596D-01 0.108D+01
 Gap=     0.554 Goal=   None    Shift=    0.000
 RMSDP=6.02D-06 MaxDP=2.86D-04 DE=-2.07D-04 OVMax= 2.69D-04

 Cycle   5  Pass 1  IDiag  1:
 E= -2752.05226554674     Delta-E=       -0.000000427601 Rises=F Damp=F
 DIIS: error= 2.95D-06 at cycle   5 NSaved=   5.
 NSaved= 5 IEnMin= 5 EnMin= -2752.05226554674     IErMin= 5 ErrMin= 2.95D-06
 ErrMax= 2.95D-06  0.00D+00 EMaxC= 1.00D-01 BMatC= 6.02D-09 BMatP= 6.99D-07
 IDIUse=1 WtCom= 1.00D+00 WtEn= 0.00D+00
 Coeff-Com:  0.614D-04 0.197D-04-0.514D-02-0.848D-01 0.109D+01
 Coeff:      0.614D-04 0.197D-04-0.514D-02-0.848D-01 0.109D+01
 Gap=     0.554 Goal=   None    Shift=    0.000
 RMSDP=6.66D-07 MaxDP=2.88D-05 DE=-4.28D-07 OVMax= 2.77D-05

 Cycle   6  Pass 1  IDiag  1:
 E= -2752.05226555258     Delta-E=       -0.000000005839 Rises=F Damp=F
 DIIS: error= 2.70D-07 at cycle   6 NSaved=   6.
 NSaved= 6 IEnMin= 6 EnMin= -2752.05226555258     IErMin= 6 ErrMin= 2.70D-07
 ErrMax= 2.70D-07  0.00D+00 EMaxC= 1.00D-01 BMatC= 4.07D-11 BMatP= 6.02D-09
 IDIUse=1 WtCom= 1.00D+00 WtEn= 0.00D+00
 Coeff-Com: -0.301D-05 0.967D-04 0.867D-03-0.185D-02-0.932D-01 0.109D+01
 Coeff:     -0.301D-05 0.967D-04 0.867D-03-0.185D-02-0.932D-01 0.109D+01
 Gap=     0.554 Goal=   None    Shift=    0.000
 RMSDP=6.65D-08 MaxDP=3.79D-06 DE=-5.84D-09 OVMax= 3.31D-06

 Cycle   7  Pass 1  IDiag  1:
 E= -2752.05226555262     Delta-E=       -0.000000000039 Rises=F Damp=F
 DIIS: error= 1.81D-08 at cycle   7 NSaved=   7.
 NSaved= 7 IEnMin= 7 EnMin= -2752.05226555262     IErMin= 7 ErrMin= 1.81D-08
 ErrMax= 1.81D-08  0.00D+00 EMaxC= 1.00D-01 BMatC= 1.38D-13 BMatP= 4.07D-11
 IDIUse=1 WtCom= 1.00D+00 WtEn= 0.00D+00
 Coeff-Com:  0.699D-07-0.412D-05-0.371D-04 0.237D-03 0.332D-02-0.688D-01
 Coeff-Com:  0.107D+01
 Coeff:      0.699D-07-0.412D-05-0.371D-04 0.237D-03 0.332D-02-0.688D-01
 Coeff:      0.107D+01
 Gap=     0.554 Goal=   None    Shift=    0.000
 RMSDP=5.77D-09 MaxDP=2.03D-07 DE=-3.91D-11 OVMax= 2.29D-07

 SCF Done:  E(RHF) =  -2752.05226555     A.U. after    7 cycles
            NFock=  7  Conv=0.58D-08     -V/T= 2.0000
 KE= 2.752039779418D+03 PE=-6.582554750010D+03 EE= 1.078462705039D+03
 Leave Link  502 at Tue Mar 31 14:36:41 2020, MaxMem=  2147483648 cpu:              25.4 elap:               2.7
 (Enter /usr/local/g16/g16/l801.exe)
 Windowed orbitals will be sorted by symmetry type.
 ExpMin= 2.53D-02 ExpMax= 1.17D+07 ExpMxC= 1.33D+04 IAcc=3 IRadAn=         5 AccDes= 0.00D+00
 HarFok:  IExCor=  205 AccDes= 0.00D+00 IRadAn=         5 IDoV=-2 UseB2=F ITyADJ=14
 ICtDFT= 12500011 ScaDFX=  1.000000  1.000000  1.000000  1.000000
 Largest valence mixing into a core orbital is  9.81D-05
 Largest core mixing into a valence orbital is  3.83D-05
 Range of M.O.s used for correlation:    10   197
 NBasis=   197 NAE=    18 NBE=    18 NFC=     9 NFV=     0
 NROrb=    188 NOA=     9 NOB=     9 NVA=   179 NVB=   179

 **** Warning!!: The largest alpha MO coefficient is  0.14814601D+02

 Leave Link  801 at Tue Mar 31 14:36:41 2020, MaxMem=  2147483648 cpu:               0.6 elap:               0.0
 (Enter /usr/local/g16/g16/l804.exe)
 Closed-shell transformation, MDV=  2147483648 ITran=4 ISComp=1.
 Semi-Direct transformation.
 ModeAB=           2 MOrb=             9 LenV=    2146336550
 LASXX=     28892340 LTotXX=    28892340 LenRXX=    28892340
 LTotAB=    29348001 MaxLAS=    44558820 LenRXY=    44558820
 NonZer=    57784680 LenScr=    87449600 LnRSAI=           0
 LnScr1=           0 LExtra=           0 Total=    160900760
 MaxDsk=          -1 SrtSym=           F ITran=            4
 DoSDTr:  NPSUse= 16
 JobTyp=0 Pass  1:  I=   1 to   9.
 (rs|ai) integrals will be sorted in core.
 Complete sort for first half transformation.
 First half transformation complete.
 Complete sort for second half transformation.
 Second half transformation complete.
 SymMOI:  orbitals are not symmetric.
 Spin components of T(2) and E(2):
     alpha-alpha T2 =       0.9502290668D-02 E2=     -0.3580048991D-01
     alpha-beta  T2 =       0.4817497588D-01 E2=     -0.1723005812D+00
     beta-beta   T2 =       0.9502290668D-02 E2=     -0.3580048991D-01
 ANorm=    0.1033043831D+01
 E2 =    -0.2439015610D+00 EUMP2 =    -0.27522961671136D+04
 Leave Link  804 at Tue Mar 31 14:36:49 2020, MaxMem=  2147483648 cpu:             131.9 elap:               8.2
 (Enter /usr/local/g16/g16/l913.exe)
 CIDS:  MDV=  2147483648.
 Frozen-core window:  NFC=   9 NFV=   0.
 IFCWin=0 IBDFC=1 NFBD=     0     0 NFCmp=     0     0 NFFFC=     0     0
 Using DD3R+UMP44R for 1st iteration.
 Using DD4RQ for 2nd and later iterations.
 Keep R2 and R3 ints in memory in canonical form, NReq=393332867.
 FoFCou: FMM=F IPFlag=           0 FMFlag=           0 FMFlg1=           0
         NFxFlg=           0 DoJE=F BraDBF=F KetDBF=F FulRan=T
         wScrn=  0.000000 ICntrl=       600 IOpCl=  0 I1Cent=           0 NGrid=           0
         NMat0=    1 NMatS0=  19503 NMatT0=    0 NMatD0=    1 NMtDS0=    0 NMtDT0=    0
 Symmetry not used in FoFCou.
 Two-electron integral symmetry not used.
 CIDS: In Core Option IDoMem=           1.
 MP4(SDTQ)
 =========
 Produce multiple copies of IABC intergrals
 DD1Dir will call FoFMem   1 times, MxPair=        90
 NAB=    45 NAA=     0 NBB=     0.
 MP4(D)= -0.37204033D-02
 MP4(S)= -0.10891120D-02
 MP4(R+Q)=  0.42463322D-02
 T4(AAA)= -0.32558997D-03
 T4(AAB)= -0.35624641D-02
 Time for triples=      482.53 seconds.
 MP4(T)=   -0.77761081D-02
 E3=       -0.98649086D-02        EUMP3=      -0.27523060320D+04
 E4(DQ)=    0.52592888D-03        UMP4(DQ)=   -0.27523055061D+04
 E4(SDQ)=  -0.56318312D-03        UMP4(SDQ)=  -0.27523065952D+04
 E4(SDTQ)= -0.83392912D-02        UMP4(SDTQ)= -0.27523143713D+04
 VARIATIONAL ENERGIES WITH THE FIRST-ORDER WAVEFUNCTION:
 E(VAR1)=  -0.27522900573D+04     E(CISD,4)=  -0.27522944563D+04
 Largest amplitude= 1.47D-02
 Discarding MO integrals.
 Leave Link  913 at Tue Mar 31 14:37:24 2020, MaxMem=  2147483648 cpu:             550.2 elap:              34.4
 (Enter /usr/local/g16/g16/l601.exe)
 Copying SCF densities to generalized density rwf, IOpCl= 0 IROHF=0.

 **********************************************************************

            Population analysis using the SCF density.

 **********************************************************************

 Orbital symmetries:
       Occupied  (A) (A) (A) (A) (A) (A) (A) (A) (A) (A) (A) (A)
                 (A) (A) (A) (A) (A) (A)
       Virtual   (A) (A) (A) (A) (A) (A) (A) (A) (A) (A) (A) (A)
                 (A) (A) (A) (A) (A) (A) (A) (A) (A) (A) (A) (A)
                 (A) (A) (A) (A) (A) (A) (A) (A) (A) (A) (A) (A)
                 (A) (A) (A) (A) (A) (A) (A) (A) (A) (A) (A) (A)
                 (A) (A) (A) (A) (A) (A) (A) (A) (A) (A) (A) (A)
                 (A) (A) (A) (A) (A) (A) (A) (A) (A) (A) (A) (A)
                 (A) (A) (A) (A) (A) (A) (A) (A) (A) (A) (A) (A)
                 (A) (A) (A) (A) (A) (A) (A) (A) (A) (A) (A) (A)
                 (A) (A) (A) (A) (A) (A) (A) (A) (A) (A) (A) (A)
                 (A) (A) (A) (A) (A) (A) (A) (A) (A) (A) (A) (A)
                 (A) (A) (A) (A) (A) (A) (A) (A) (A) (A) (A) (A)
                 (A) (A) (A) (A) (A) (A) (A) (A) (A) (A) (A) (A)
                 (A) (A) (A) (A) (A) (A) (A) (A) (A) (A) (A) (A)
                 (A) (A) (A) (A) (A) (A) (A) (A) (A) (A) (A) (A)
                 (A) (A) (A) (A) (A) (A) (A) (A) (A) (A) (A)
 The electronic state is 1-A.
 Alpha  occ. eigenvalues -- -520.16580 -69.90314 -63.00972 -63.00972 -63.00971
 Alpha  occ. eigenvalues --  -10.84954  -8.33154  -8.33154  -8.33153  -3.82531
 Alpha  occ. eigenvalues --   -3.82531  -3.82531  -3.82531  -3.82530  -1.15311
 Alpha  occ. eigenvalues --   -0.52431  -0.52429  -0.52429
 Alpha virt. eigenvalues --    0.02982   0.04935   0.08648   0.09441   0.11613
 Alpha virt. eigenvalues --    0.12339   0.13371   0.14058   0.16640   0.17195
 Alpha virt. eigenvalues --    0.17829   0.20026   0.21446   0.26747   0.28301
 Alpha virt. eigenvalues --    0.29386   0.29510   0.32068   0.34773   0.35653
 Alpha virt. eigenvalues --    0.37783   0.38180   0.39387   0.40400   0.42460
 Alpha virt. eigenvalues --    0.43056   0.44662   0.56039   0.57292   0.59452
 Alpha virt. eigenvalues --    0.61866   0.66781   0.68142   0.71104   0.73972
 Alpha virt. eigenvalues --    0.76483   0.78462   0.79599   0.81243   0.82439
 Alpha virt. eigenvalues --    0.84622   0.84778   0.86282   0.87939   0.88417
 Alpha virt. eigenvalues --    0.90365   0.91107   0.92030   0.93584   0.98081
 Alpha virt. eigenvalues --    0.98396   1.00924   1.01893   1.05045   1.05800
 Alpha virt. eigenvalues --    1.07426   1.11602   1.12206   1.15666   1.16969
 Alpha virt. eigenvalues --    1.19652   1.24411   1.26466   1.27636   1.29750
 Alpha virt. eigenvalues --    1.36696   1.38389   1.41886   1.48801   1.51237
 Alpha virt. eigenvalues --    1.55959   1.59997   1.65228   1.74433   1.79336
 Alpha virt. eigenvalues --    1.79656   1.84293   1.89874   1.96987   2.26028
 Alpha virt. eigenvalues --    2.31211   2.34563   2.37809   2.39546   2.41153
 Alpha virt. eigenvalues --    2.44691   2.45572   2.47109   2.48556   2.51060
 Alpha virt. eigenvalues --    2.54211   2.54879   2.56634   2.58264   2.59155
 Alpha virt. eigenvalues --    2.59932   2.63436   2.65451   2.66550   2.70334
 Alpha virt. eigenvalues --    2.71123   2.71536   2.74879   2.79154   2.81056
 Alpha virt. eigenvalues --    2.83479   2.86837   2.89686   2.91464   2.95424
 Alpha virt. eigenvalues --    2.98487   3.04229   3.07039   3.14189   3.21746
 Alpha virt. eigenvalues --    3.23657   3.27027   3.32524   3.35993   3.50890
 Alpha virt. eigenvalues --    3.61675   3.66435   3.82715   3.87522   4.04031
 Alpha virt. eigenvalues --    4.45130   4.48054   4.53605   4.60619   4.72410
 Alpha virt. eigenvalues --    4.76016   4.87481   4.90069   4.94761   5.04657
 Alpha virt. eigenvalues --    5.18661   5.18989   5.59082   5.65670   5.75698
 Alpha virt. eigenvalues --    5.93392   6.01987   6.18933   6.74414   6.90160
 Alpha virt. eigenvalues --    7.36872   7.40789   7.61563   7.64762   7.72382
 Alpha virt. eigenvalues --    7.88559   7.92052   8.11040   8.17483   8.21664
 Alpha virt. eigenvalues --    8.39683   8.44269   8.60597   8.87427   9.63993
 Alpha virt. eigenvalues --    9.73381   9.83180   9.89029   9.93953  10.01167
 Alpha virt. eigenvalues --   10.15190  10.30254  10.41075  10.96469  11.51560
 Alpha virt. eigenvalues --   11.65107  11.71558  12.04617  12.10135  13.26908
 Alpha virt. eigenvalues --   13.61007  14.53525  62.70439  64.64360
          Condensed to atoms (all electrons):
               1          2          3          4          5
     1  O    0.001735  -0.000955  -0.001233   0.000513  -0.005456
     2  O   -0.000955   0.002124   0.000340  -0.001246  -0.001853
     3  H   -0.001233   0.000340   0.001023  -0.000196   0.002715
     4  H    0.000513  -0.001246  -0.000196   0.001039  -0.008003
     5  Kr  -0.005456  -0.001853   0.002715  -0.008003  36.024826
 Mulliken charges:
               1
     1  O    0.005396
     2  O    0.001590
     3  H   -0.002649
     4  H    0.007893
     5  Kr  -0.012229
 Sum of Mulliken charges =  -0.00000
 Mulliken charges with hydrogens summed into heavy atoms:
               1
     1  O    0.002746
     2  O    0.009483
     5  Kr  -0.012229
         Mulliken charges condensed to fragments:
      1      0.012229
      2     -0.012229
 Electronic spatial extent (au):  <R**2>=            165.9585
 Charge=             -0.0000 electrons
 Dipole moment (field-independent basis, Debye):
    X=              0.0008    Y=              0.0005    Z=              0.0001  Tot=              0.0010
 Quadrupole moment (field-independent basis, Debye-Ang):
   XX=            -17.7278   YY=            -17.7323   ZZ=            -17.7363
   XY=              0.0024   XZ=             -0.0000   YZ=              0.0002
 Traceless Quadrupole moment (field-independent basis, Debye-Ang):
   XX=              0.0044   YY=             -0.0002   ZZ=             -0.0042
   XY=              0.0024   XZ=             -0.0000   YZ=              0.0002
 Octapole moment (field-independent basis, Debye-Ang**2):
  XXX=             52.7306  YYY=              0.7915  ZZZ=             -0.1305  XYY=             17.5829
  XXY=              0.2579  XXZ=             -0.0439  XZZ=             17.5858  YZZ=              0.2645
  YYZ=             -0.0432  XYZ=             -0.0002
 Hexadecapole moment (field-independent basis, Debye-Ang**3):
 XXXX=           -123.0923 YYYY=            -18.5590 ZZZZ=            -18.5528 XXXY=             -0.7711
 XXXZ=              0.1299 YYYX=             -0.7757 YYYZ=              0.0018 ZZZX=              0.1299
 ZZZY=              0.0029 XXYY=            -23.6147 XXZZ=            -23.6150 YYZZ=             -6.1848
 XXYZ=              0.0012 YYXZ=              0.0432 ZZXY=             -0.2577
 N-N= 0.000000000000D+00 E-N=-6.582554751557D+03  KE= 2.752039779418D+03
 Leave Link  601 at Tue Mar 31 14:37:24 2020, MaxMem=  2147483648 cpu:               0.7 elap:               0.1
 (Enter /usr/local/g16/g16/l122.exe)
 CPIOFr:  IOpCl= 0 IRwI=-1 IRwCP=  731 ICalc=  2 LCPTot=       59414 Len1MO=      159453 IndFrg=      537773
 Counterpoise: doing calculation for fragment   1 using the basis set of the fragment.
 Leave Link  122 at Tue Mar 31 14:37:24 2020, MaxMem=  2147483648 cpu:               0.0 elap:               0.0
 (Enter /usr/local/g16/g16/l301.exe)
 Basis read from rwf:  (5D, 7F)
 No pseudopotential information found on rwf file.
 There are   160 symmetry adapted cartesian basis functions of A   symmetry.
 There are   138 symmetry adapted basis functions of A   symmetry.
   138 basis functions,   198 primitive gaussians,   160 cartesian basis functions
     9 alpha electrons        9 beta electrons
       nuclear repulsion energy        36.6123391889 Hartrees.
 IExCor=    0 DFT=F Ex=HF Corr=None ExCW=0 ScaHFX=  1.000000
 ScaDFX=  1.000000  1.000000  1.000000  1.000000 ScalE2=  1.000000  1.000000
 IRadAn=      5 IRanWt=     -1 IRanGd=            0 ICorTp=0 IEmpDi=  4
 NAtoms=    5 NActive=    4 NUniq=    4 SFac= 1.00D+00 NAtFMM=   60 NAOKFM=F Big=F
 Integral buffers will be    131072 words long.
 Raffenetti 1 integral format.
 Two-electron integral symmetry is turned on.
 No density basis found on file   718.
 Leave Link  301 at Tue Mar 31 14:37:24 2020, MaxMem=  2147483648 cpu:               0.4 elap:               0.0
 (Enter /usr/local/g16/g16/l302.exe)
 NPDir=0 NMtPBC=     1 NCelOv=     1 NCel=       1 NClECP=     1 NCelD=      1
         NCelK=      1 NCelE2=     1 NClLst=     1 CellRange=     0.0.
 One-electron integrals computed using PRISM.
 One-electron integral symmetry used in STVInt
 NBasis=   138 RedAO= T EigKep=  2.50D-04  NBF=   138
 NBsUse=   138 1.00D-06 EigRej= -1.00D+00 NBFU=   138
 Leave Link  302 at Tue Mar 31 14:37:24 2020, MaxMem=  2147483648 cpu:               1.4 elap:               0.1
 (Enter /usr/local/g16/g16/l303.exe)
 DipDrv:  MaxL=1.
 Leave Link  303 at Tue Mar 31 14:37:24 2020, MaxMem=  2147483648 cpu:               0.4 elap:               0.0
 (Enter /usr/local/g16/g16/l401.exe)
 ExpMin= 2.53D-02 ExpMax= 1.53D+04 ExpMxC= 5.22D+02 IAcc=3 IRadAn=         5 AccDes= 0.00D+00
 Harris functional with IExCor=  205 and IRadAn=       5 diagonalized for initial guess.
 HarFok:  IExCor=  205 AccDes= 0.00D+00 IRadAn=         5 IDoV= 1 UseB2=F ITyADJ=14
 ICtDFT=  3500011 ScaDFX=  1.000000  1.000000  1.000000  1.000000
 FoFCou: FMM=F IPFlag=           0 FMFlag=      100000 FMFlg1=           0
         NFxFlg=           0 DoJE=T BraDBF=F KetDBF=T FulRan=T
         wScrn=  0.000000 ICntrl=       500 IOpCl=  0 I1Cent=   200000004 NGrid=           0
         NMat0=    1 NMatS0=      1 NMatT0=    0 NMatD0=    1 NMtDS0=    0 NMtDT0=    0
 Petite list used in FoFCou.
 Harris En= -150.935522326750    
 JPrj=0 DoOrth=F DoCkMO=F.
 Leave Link  401 at Tue Mar 31 14:37:24 2020, MaxMem=  2147483648 cpu:               2.4 elap:               0.2
 (Enter /usr/local/g16/g16/l502.exe)
 Keep R1 ints in memory in canonical form, NReq=53860811.
 FoFCou: FMM=F IPFlag=           0 FMFlag=           0 FMFlg1=           0
         NFxFlg=           0 DoJE=F BraDBF=F KetDBF=F FulRan=T
         wScrn=  0.000000 ICntrl=       600 IOpCl=  0 I1Cent=           0 NGrid=           0
         NMat0=    1 NMatS0=   9591 NMatT0=    0 NMatD0=    1 NMtDS0=    0 NMtDT0=    0
 Symmetry not used in FoFCou.
 Two-electron integral symmetry not used.
 Closed shell SCF:
 Using DIIS extrapolation, IDIIS=  1040.
 NGot=  2147483648 LenX=  2101430001 LenY=  2101403960
 Requested convergence on RMS density matrix=1.00D-08 within 128 cycles.
 Requested convergence on MAX density matrix=1.00D-06.
 Requested convergence on             energy=1.00D-06.
 No special actions if energy rises.

 Cycle   1  Pass 1  IDiag  1:
 E= -150.774005067134    
 DIIS: error= 3.28D-02 at cycle   1 NSaved=   1.
 NSaved= 1 IEnMin= 1 EnMin= -150.774005067134     IErMin= 1 ErrMin= 3.28D-02
 ErrMax= 3.28D-02  0.00D+00 EMaxC= 1.00D-01 BMatC= 2.27D-01 BMatP= 2.27D-01
 IDIUse=3 WtCom= 6.72D-01 WtEn= 3.28D-01
 Coeff-Com:  0.100D+01
 Coeff-En:   0.100D+01
 Coeff:      0.100D+01
 Gap=     0.704 Goal=   None    Shift=    0.000
 GapD=    0.704 DampG=2.000 DampE=0.500 DampFc=1.0000 IDamp=-1.
 RMSDP=1.32D-03 MaxDP=2.88D-02              OVMax= 6.40D-02

 Cycle   2  Pass 1  IDiag  1:
 E= -150.826331749628     Delta-E=       -0.052326682495 Rises=F Damp=F
 DIIS: error= 9.08D-03 at cycle   2 NSaved=   2.
 NSaved= 2 IEnMin= 2 EnMin= -150.826331749628     IErMin= 2 ErrMin= 9.08D-03
 ErrMax= 9.08D-03  0.00D+00 EMaxC= 1.00D-01 BMatC= 1.55D-02 BMatP= 2.27D-01
 IDIUse=3 WtCom= 9.09D-01 WtEn= 9.08D-02
 Coeff-Com:  0.102D+00 0.898D+00
 Coeff-En:   0.000D+00 0.100D+01
 Coeff:      0.929D-01 0.907D+00
 Gap=     0.541 Goal=   None    Shift=    0.000
 RMSDP=6.75D-04 MaxDP=2.47D-02 DE=-5.23D-02 OVMax= 2.80D-02

 Cycle   3  Pass 1  IDiag  1:
 E= -150.834028753990     Delta-E=       -0.007697004361 Rises=F Damp=F
 DIIS: error= 4.47D-03 at cycle   3 NSaved=   3.
 NSaved= 3 IEnMin= 3 EnMin= -150.834028753990     IErMin= 3 ErrMin= 4.47D-03
 ErrMax= 4.47D-03  0.00D+00 EMaxC= 1.00D-01 BMatC= 2.24D-03 BMatP= 1.55D-02
 IDIUse=3 WtCom= 9.55D-01 WtEn= 4.47D-02
 Coeff-Com: -0.208D-01 0.255D+00 0.766D+00
 Coeff-En:   0.000D+00 0.000D+00 0.100D+01
 Coeff:     -0.198D-01 0.243D+00 0.776D+00
 Gap=     0.512 Goal=   None    Shift=    0.000
 RMSDP=1.53D-04 MaxDP=3.76D-03 DE=-7.70D-03 OVMax= 9.00D-03

 Cycle   4  Pass 1  IDiag  1:
 E= -150.835420086777     Delta-E=       -0.001391332787 Rises=F Damp=F
 DIIS: error= 3.68D-04 at cycle   4 NSaved=   4.
 NSaved= 4 IEnMin= 4 EnMin= -150.835420086777     IErMin= 4 ErrMin= 3.68D-04
 ErrMax= 3.68D-04  0.00D+00 EMaxC= 1.00D-01 BMatC= 1.58D-05 BMatP= 2.24D-03
 IDIUse=3 WtCom= 9.96D-01 WtEn= 3.68D-03
 Coeff-Com: -0.172D-02-0.117D-01 0.148D-01 0.999D+00
 Coeff-En:   0.000D+00 0.000D+00 0.000D+00 0.100D+01
 Coeff:     -0.172D-02-0.117D-01 0.147D-01 0.999D+00
 Gap=     0.514 Goal=   None    Shift=    0.000
 RMSDP=2.19D-05 MaxDP=4.03D-04 DE=-1.39D-03 OVMax= 1.30D-03

 Cycle   5  Pass 1  IDiag  1:
 E= -150.835441743776     Delta-E=       -0.000021657000 Rises=F Damp=F
 DIIS: error= 1.36D-04 at cycle   5 NSaved=   5.
 NSaved= 5 IEnMin= 5 EnMin= -150.835441743776     IErMin= 5 ErrMin= 1.36D-04
 ErrMax= 1.36D-04  0.00D+00 EMaxC= 1.00D-01 BMatC= 1.47D-06 BMatP= 1.58D-05
 IDIUse=3 WtCom= 9.99D-01 WtEn= 1.36D-03
 Coeff-Com:  0.166D-02-0.164D-01-0.583D-01-0.169D+00 0.124D+01
 Coeff-En:   0.000D+00 0.000D+00 0.000D+00 0.000D+00 0.100D+01
 Coeff:      0.166D-02-0.164D-01-0.582D-01-0.169D+00 0.124D+01
 Gap=     0.514 Goal=   None    Shift=    0.000
 RMSDP=1.25D-05 MaxDP=2.22D-04 DE=-2.17D-05 OVMax= 7.91D-04

 Cycle   6  Pass 1  IDiag  1:
[...]
 Requested convergence on RMS density matrix=1.00D-08 within 128 cycles.
 Requested convergence on MAX density matrix=1.00D-06.
 Requested convergence on             energy=1.00D-06.
 No special actions if energy rises.

 Cycle   1  Pass 1  IDiag  1:
 E= -150.835445828533    
 DIIS: error= 6.51D-11 at cycle   1 NSaved=   1.
 NSaved= 1 IEnMin= 1 EnMin= -150.835445828533     IErMin= 1 ErrMin= 6.51D-11
 ErrMax= 6.51D-11  0.00D+00 EMaxC= 1.00D-01 BMatC= 7.52D-19 BMatP= 7.52D-19
 IDIUse=1 WtCom= 1.00D+00 WtEn= 0.00D+00
 Coeff-Com:  0.100D+01
 Coeff:      0.100D+01
 Gap=     0.898 Goal=   None    Shift=    0.000
 RMSDP=5.04D-12 MaxDP=1.53D-10              OVMax= 2.76D-10

 SCF Done:  E(RHF) =  -150.835445829     A.U. after    1 cycles
            NFock=  1  Conv=0.50D-11     -V/T= 2.0021
 KE= 1.505178448210D+02 PE=-4.314491912038D+02 EE= 9.348356136539D+01
 Leave Link  502 at Tue Mar 31 15:53:33 2020, MaxMem=  2147483648 cpu:               7.1 elap:               0.5
 (Enter /usr/local/g16/g16/l801.exe)
 Windowed orbitals will be sorted by symmetry type.
 ExpMin= 2.53D-02 ExpMax= 1.53D+04 ExpMxC= 5.22D+02 IAcc=3 IRadAn=         5 AccDes= 0.00D+00
 HarFok:  IExCor=  205 AccDes= 0.00D+00 IRadAn=         5 IDoV=-2 UseB2=F ITyADJ=14
 ICtDFT= 12500011 ScaDFX=  1.000000  1.000000  1.000000  1.000000
 DSYEVD-2 returned Info=          93 IAlg= 4 N=    46 NDim=    46 NE2=    46682995 trying  DSYEV.
 Largest valence mixing into a core orbital is  1.19D-04
 Largest core mixing into a valence orbital is  2.04D-05
 Range of M.O.s used for correlation:     3   138
 NBasis=   138 NAE=     9 NBE=     9 NFC=     2 NFV=     0
 NROrb=    136 NOA=     7 NOB=     7 NVA=   129 NVB=   129

 **** Warning!!: The largest alpha MO coefficient is  0.13347653D+02

 Leave Link  801 at Tue Mar 31 15:53:33 2020, MaxMem=  2147483648 cpu:               0.6 elap:               0.0
 (Enter /usr/local/g16/g16/l804.exe)
 Closed-shell transformation, MDV=  2147483648 ITran=4 ISComp=1.
 Semi-Direct transformation.
 ModeAB=           2 MOrb=             7 LenV=    2146849433
 LASXX=      8463147 LTotXX=     8463147 LenRXX=     8463147
 LTotAB=     8647912 MaxLAS=    12261760 LenRXY=    12261760
 NonZer=    16926294 LenScr=    26146816 LnRSAI=           0
 LnScr1=           0 LExtra=           0 Total=     46871723
 MaxDsk=          -1 SrtSym=           F ITran=            4
 DoSDTr:  NPSUse= 16
 JobTyp=0 Pass  1:  I=   1 to   7.
 (rs|ai) integrals will be sorted in core.
 Complete sort for first half transformation.
 First half transformation complete.
 Complete sort for second half transformation.
 Second half transformation complete.
 SymMOI:  orbitals are not symmetric.
 Spin components of T(2) and E(2):
     alpha-alpha T2 =       0.1597681466D-01 E2=     -0.6278029305D-01
     alpha-beta  T2 =       0.9314237179D-01 E2=     -0.3817282576D+00
     beta-beta   T2 =       0.1597681466D-01 E2=     -0.6278029305D-01
 ANorm=    0.1060705426D+01
 E2 =    -0.5072888437D+00 EUMP2 =    -0.15134273467225D+03
 Leave Link  804 at Tue Mar 31 15:53:35 2020, MaxMem=  2147483648 cpu:              27.4 elap:               1.7
 (Enter /usr/local/g16/g16/l913.exe)
 CIDS:  MDV=  2147483648.
 Frozen-core window:  NFC=   2 NFV=   0.
 IFCWin=0 IBDFC=1 NFBD=     0     0 NFCmp=     0     0 NFFFC=     0     0
 Using DD3R+UMP44R for 1st iteration.
 Using DD4RQ for 2nd and later iterations.
 Keep R2 and R3 ints in memory in canonical form, NReq=99863705.
 FoFCou: FMM=F IPFlag=           0 FMFlag=           0 FMFlg1=           0
         NFxFlg=           0 DoJE=F BraDBF=F KetDBF=F FulRan=T
         wScrn=  0.000000 ICntrl=       600 IOpCl=  0 I1Cent=           0 NGrid=           0
         NMat0=    1 NMatS0=   9591 NMatT0=    0 NMatD0=    1 NMtDS0=    0 NMtDT0=    0
 Symmetry not used in FoFCou.
 Two-electron integral symmetry not used.
 CIDS: In Core Option IDoMem=           1.
 MP4(SDTQ)
 =========
 Produce multiple copies of IABC intergrals
 DD1Dir will call FoFMem   1 times, MxPair=        56
 NAB=    28 NAA=     0 NBB=     0.
 MP4(D)= -0.11270218D-01
 MP4(S)= -0.51886871D-02
 MP4(R+Q)=  0.10736558D-01
 T4(AAA)= -0.65646771D-03
 T4(AAB)= -0.10235069D-01
 Time for triples=       93.66 seconds.
 MP4(T)=   -0.21783073D-01
 E3=       -0.21338768D-02        EUMP3=      -0.15134486855D+03
 E4(DQ)=   -0.53365965D-03        UMP4(DQ)=   -0.15134540221D+03
 E4(SDQ)=  -0.57223467D-02        UMP4(SDQ)=  -0.15135059090D+03
 E4(SDTQ)= -0.27505420D-01        UMP4(SDTQ)= -0.15137237397D+03
 VARIATIONAL ENERGIES WITH THE FIRST-ORDER WAVEFUNCTION:
 E(VAR1)=  -0.15128822739D+03     E(CISD,4)=  -0.15129786765D+03
 Largest amplitude= 2.84D-02
 Discarding MO integrals.
 Leave Link  913 at Tue Mar 31 15:53:42 2020, MaxMem=  2147483648 cpu:             116.7 elap:               7.3
 (Enter /usr/local/g16/g16/l122.exe)
 CPIOFr:  IOpCl= 0 IRwI=-1 IRwCP=  731 ICalc=  3 LCPTot=       59414 Len1MO=      159453 IndFrg=      697226
 Restoring MOs from calculation   5 to rwf and chk.
 CPIOFr:  IOpCl= 0 IRwI=-2 IRwCP=20731 ICalc=  4 LCPTot=       59414 Len1MO=      159453 IndFrg=      856679
 CPIOFr:  IOpCl= 0 IRwI= 4 IRwCP=20731 ICalc=  4 LCPTot=       59414 Len1MO=      159453 IndFrg=      856679
 Counterpoise: doing calculation for fragment   2 using the basis set of the fragment.
 Leave Link  122 at Tue Mar 31 15:53:42 2020, MaxMem=  2147483648 cpu:               0.1 elap:               0.0
 (Enter /usr/local/g16/g16/l301.exe)
 Basis read from rwf:  (5D, 7F)
 No pseudopotential information found on rwf file.
 There are    69 symmetry adapted cartesian basis functions of A   symmetry.
 There are    59 symmetry adapted basis functions of A   symmetry.
    59 basis functions,   217 primitive gaussians,    69 cartesian basis functions
    18 alpha electrons       18 beta electrons
       nuclear repulsion energy         0.0000000000 Hartrees.
 IExCor=    0 DFT=F Ex=HF Corr=None ExCW=0 ScaHFX=  1.000000
 ScaDFX=  1.000000  1.000000  1.000000  1.000000 ScalE2=  1.000000  1.000000
 IRadAn=      5 IRanWt=     -1 IRanGd=            0 ICorTp=0 IEmpDi=  4
 NAtoms=    5 NActive=    1 NUniq=    1 SFac= 1.00D+00 NAtFMM=   60 NAOKFM=F Big=F
 Integral buffers will be    131072 words long.
 Raffenetti 1 integral format.
 Two-electron integral symmetry is turned on.
 No density basis found on file   718.
 Leave Link  301 at Tue Mar 31 15:53:42 2020, MaxMem=  2147483648 cpu:               0.5 elap:               0.0
 (Enter /usr/local/g16/g16/l302.exe)
 NPDir=0 NMtPBC=     1 NCelOv=     1 NCel=       1 NClECP=     1 NCelD=      1
         NCelK=      1 NCelE2=     1 NClLst=     1 CellRange=     0.0.
 One-electron integrals computed using PRISM.
 One-electron integral symmetry used in STVInt
 NBasis=    59 RedAO= T EigKep=  1.06D-02  NBF=    59
 NBsUse=    59 1.00D-06 EigRej= -1.00D+00 NBFU=    59
 Leave Link  302 at Tue Mar 31 15:53:42 2020, MaxMem=  2147483648 cpu:               1.3 elap:               0.1
 (Enter /usr/local/g16/g16/l303.exe)
 DipDrv:  MaxL=1.
 Leave Link  303 at Tue Mar 31 15:53:42 2020, MaxMem=  2147483648 cpu:               0.3 elap:               0.0
 (Enter /usr/local/g16/g16/l401.exe)
 Initial guess from the checkpoint file:  "/mnt/driveB/scratch/matheus/Gau-11418.chk"
 B after Tr=    -0.062991    0.000346   -0.000057
         Rot=    1.000000    0.000000    0.000000    0.000000 Ang=   0.00 deg.
 Guess basis will be translated and rotated to current coordinates.
 JPrj=2 DoOrth=T DoCkMO=T.
 Generating alternative initial guess.
 ExpMin= 4.00D-02 ExpMax= 1.17D+07 ExpMxC= 1.33D+04 IAcc=3 IRadAn=         5 AccDes= 0.00D+00
 Harris functional with IExCor=  205 and IRadAn=       5 diagonalized for initial guess.
 HarFok:  IExCor=  205 AccDes= 0.00D+00 IRadAn=         5 IDoV= 1 UseB2=F ITyADJ=14
 ICtDFT=  3500011 ScaDFX=  1.000000  1.000000  1.000000  1.000000
 FoFCou: FMM=F IPFlag=           0 FMFlag=      100000 FMFlg1=           0
         NFxFlg=           0 DoJE=T BraDBF=F KetDBF=T FulRan=T
         wScrn=  0.000000 ICntrl=       500 IOpCl=  0 I1Cent=   200000004 NGrid=           0
         NMat0=    1 NMatS0=      1 NMatT0=    0 NMatD0=    1 NMtDS0=    0 NMtDT0=    0
 Petite list used in FoFCou.
 Harris En= -2751.05937170533    
 Leave Link  401 at Tue Mar 31 15:53:43 2020, MaxMem=  2147483648 cpu:               2.3 elap:               0.1
 (Enter /usr/local/g16/g16/l502.exe)
 Keep R1 ints in memory in canonical form, NReq=14291944.
 FoFCou: FMM=F IPFlag=           0 FMFlag=           0 FMFlg1=           0
         NFxFlg=           0 DoJE=F BraDBF=F KetDBF=F FulRan=T
         wScrn=  0.000000 ICntrl=       600 IOpCl=  0 I1Cent=           0 NGrid=           0
         NMat0=    1 NMatS0=   1770 NMatT0=    0 NMatD0=    1 NMtDS0=    0 NMtDT0=    0
 Symmetry not used in FoFCou.
 Two-electron integral symmetry not used.
 Closed shell SCF:
 Using DIIS extrapolation, IDIIS=  1040.
 NGot=  2147483648 LenX=  2145904888 LenY=  2145899686
 Requested convergence on RMS density matrix=1.00D-08 within 128 cycles.
 Requested convergence on MAX density matrix=1.00D-06.
 Requested convergence on             energy=1.00D-06.
 No special actions if energy rises.

 Cycle   1  Pass 1  IDiag  1:
 E= -2752.05222307625    
 DIIS: error= 2.44D-13 at cycle   1 NSaved=   1.
 NSaved= 1 IEnMin= 1 EnMin= -2752.05222307625     IErMin= 1 ErrMin= 2.44D-13
 ErrMax= 2.44D-13  0.00D+00 EMaxC= 1.00D-01 BMatC= 1.25D-24 BMatP= 1.25D-24
 IDIUse=1 WtCom= 1.00D+00 WtEn= 0.00D+00
 Coeff-Com:  0.100D+01
 Coeff:      0.100D+01
 Gap=     0.719 Goal=   None    Shift=    0.000
 RMSDP=6.61D-15 MaxDP=1.01D-13              OVMax= 6.68D-14

 SCF Done:  E(RHF) =  -2752.05222308     A.U. after    1 cycles
            NFock=  1  Conv=0.66D-14     -V/T= 2.0000
 KE= 2.752048106937D+03 PE=-6.582565276257D+03 EE= 1.078464946243D+03
 Leave Link  502 at Tue Mar 31 15:53:43 2020, MaxMem=  2147483648 cpu:               9.3 elap:               0.6
 (Enter /usr/local/g16/g16/l801.exe)
 Windowed orbitals will be sorted by symmetry type.
 ExpMin= 4.00D-02 ExpMax= 1.17D+07 ExpMxC= 1.33D+04 IAcc=3 IRadAn=         5 AccDes= 0.00D+00
 HarFok:  IExCor=  205 AccDes= 0.00D+00 IRadAn=         5 IDoV=-2 UseB2=F ITyADJ=14
 ICtDFT= 12500011 ScaDFX=  1.000000  1.000000  1.000000  1.000000
 Largest valence mixing into a core orbital is  9.79D-05
 Largest core mixing into a valence orbital is  3.83D-05
 Range of M.O.s used for correlation:    10    59
 NBasis=    59 NAE=    18 NBE=    18 NFC=     9 NFV=     0
 NROrb=     50 NOA=     9 NOB=     9 NVA=    41 NVB=    41
 Leave Link  801 at Tue Mar 31 15:53:43 2020, MaxMem=  2147483648 cpu:               0.5 elap:               0.0
 (Enter /usr/local/g16/g16/l804.exe)
 Closed-shell transformation, MDV=  2147483648 ITran=4 ISComp=1.
 Semi-Direct transformation.
 ModeAB=           2 MOrb=             9 LenV=    2147140326
 LASXX=       482211 LTotXX=      482211 LenRXX=      482211
 LTotAB=      511245 MaxLAS=     1086750 LenRXY=     1086750
 NonZer=     1162350 LenScr=     2357760 LnRSAI=           0
 LnScr1=           0 LExtra=           0 Total=      3926721
 MaxDsk=          -1 SrtSym=           F ITran=            4
 DoSDTr:  NPSUse= 16
 JobTyp=0 Pass  1:  I=   1 to   9.
 (rs|ai) integrals will be sorted in core.
 Complete sort for first half transformation.
 First half transformation complete.
 Complete sort for second half transformation.
 Second half transformation complete.
 SymMOI:  orbitals are not symmetric.
 Spin components of T(2) and E(2):
     alpha-alpha T2 =       0.9484485167D-02 E2=     -0.3552398032D-01
     alpha-beta  T2 =       0.4799866946D-01 E2=     -0.1708433112D+00
     beta-beta   T2 =       0.9484485167D-02 E2=     -0.3552398032D-01
 ANorm=    0.1032941257D+01
 E2 =    -0.2418912719D+00 EUMP2 =    -0.27522941143481D+04
 Leave Link  804 at Tue Mar 31 15:53:44 2020, MaxMem=  2147483648 cpu:               5.2 elap:               0.3
 (Enter /usr/local/g16/g16/l913.exe)
 CIDS:  MDV=  2147483648.
 Frozen-core window:  NFC=   9 NFV=   0.
 IFCWin=0 IBDFC=1 NFBD=     0     0 NFCmp=     0     0 NFFFC=     0     0
 Using DD3R+UMP44R for 1st iteration.
 Using DD4RQ for 2nd and later iterations.
 Keep R2 and R3 ints in memory in canonical form, NReq=15862484.
 FoFCou: FMM=F IPFlag=           0 FMFlag=           0 FMFlg1=           0
         NFxFlg=           0 DoJE=F BraDBF=F KetDBF=F FulRan=T
         wScrn=  0.000000 ICntrl=       600 IOpCl=  0 I1Cent=           0 NGrid=           0
         NMat0=    1 NMatS0=   1770 NMatT0=    0 NMatD0=    1 NMtDS0=    0 NMtDT0=    0
 Symmetry not used in FoFCou.
 Two-electron integral symmetry not used.
 CIDS: In Core Option IDoMem=           1.
 MP4(SDTQ)
 =========
 Produce multiple copies of IABC intergrals
 DD1Dir will call FoFMem   1 times, MxPair=        90
 NAB=    45 NAA=     0 NBB=     0.
 MP4(D)= -0.36913093D-02
 MP4(S)= -0.10734540D-02
 MP4(R+Q)=  0.42077927D-02
 T4(AAA)= -0.32336090D-03
 T4(AAB)= -0.35259699D-02
 Time for triples=        3.38 seconds.
 MP4(T)=   -0.76986616D-02
 E3=       -0.99406389D-02        EUMP3=      -0.27523040550D+04
 E4(DQ)=    0.51648341D-03        UMP4(DQ)=   -0.27523035385D+04
 E4(SDQ)=  -0.55697064D-03        UMP4(SDQ)=  -0.27523046120D+04
 E4(SDTQ)= -0.82556322D-02        UMP4(SDTQ)= -0.27523123106D+04
 VARIATIONAL ENERGIES WITH THE FIRST-ORDER WAVEFUNCTION:
 E(VAR1)=  -0.27522882489D+04     E(CISD,4)=  -0.27522926209D+04
 Largest amplitude= 2.35D-02
 Discarding MO integrals.
 Leave Link  913 at Tue Mar 31 15:53:45 2020, MaxMem=  2147483648 cpu:              14.4 elap:               0.9
 (Enter /usr/local/g16/g16/l122.exe)
 CPIOFr:  IOpCl= 0 IRwI=-1 IRwCP=  731 ICalc=  4 LCPTot=       59414 Len1MO=      159453 IndFrg=      856679
 Restoring MOs from calculation   1 to rwf.
 CPIOFr:  IOpCl= 0 IRwI=-2 IRwCP=  731 ICalc=  0 LCPTot=       59414 Len1MO=      159453 IndFrg=      218867
 Counterpoise corrected energy =   -2903.684940498411
                   BSSE energy =       0.000220013352
              sum of fragments =   -2903.684684587919
           complexation energy =      -0.30 kcal/mole (raw)
           complexation energy =      -0.16 kcal/mole (corrected)
 Leave Link  122 at Tue Mar 31 15:53:45 2020, MaxMem=  2147483648 cpu:               0.0 elap:               0.0
 (Enter /usr/local/g16/g16/l108.exe)
 Scan completed.
 
 Summary of the potential surface scan, energies are +2752 a.u.:
   N      R1          SCF          MP2          MP3         MP4DQ       MP4SDQ       MP4SDTQ  
 ----  ---------  -----------  -----------  -----------  -----------  -----------  -----------
    1     3.0000     -0.05222     -0.29411     -0.30405     -0.30354     -0.30461     -0.31231
    2     3.1000     -0.05222     -0.29411     -0.30405     -0.30354     -0.30461     -0.31231
    3     3.2000     -0.05222     -0.29411     -0.30405     -0.30354     -0.30461     -0.31231
    4     3.3000     -0.05222     -0.29411     -0.30405     -0.30354     -0.30461     -0.31231
    5     3.4000     -0.05222     -0.29411     -0.30405     -0.30354     -0.30461     -0.31231
    6     3.5000     -0.05222     -0.29411     -0.30405     -0.30354     -0.30461     -0.31231
    7     3.6000     -0.05222     -0.29411     -0.30405     -0.30354     -0.30461     -0.31231
    8     3.7000     -0.05222     -0.29411     -0.30405     -0.30354     -0.30461     -0.31231
    9     3.8000     -0.05222     -0.29411     -0.30405     -0.30354     -0.30461     -0.31231
   10     3.9000     -0.05222     -0.29411     -0.30405     -0.30354     -0.30461     -0.31231
   11     4.0000     -0.05222     -0.29411     -0.30405     -0.30354     -0.30461     -0.31231
   12     4.1000     -0.05222     -0.29411     -0.30405     -0.30354     -0.30461     -0.31231
   13     4.2000     -0.05222     -0.29411     -0.30405     -0.30354     -0.30461     -0.31231
   14     4.3000     -0.05222     -0.29411     -0.30405     -0.30354     -0.30461     -0.31231
   15     4.4000     -0.05222     -0.29411     -0.30405     -0.30354     -0.30461     -0.31231
   16     4.5000     -0.05222     -0.29411     -0.30405     -0.30354     -0.30461     -0.31231
   17     4.6000     -0.05222     -0.29411     -0.30405     -0.30354     -0.30461     -0.31231
   18     4.7000     -0.05222     -0.29411     -0.30405     -0.30354     -0.30461     -0.31231
   19     4.8000     -0.05222     -0.29411     -0.30405     -0.30354     -0.30461     -0.31231
   20     4.9000     -0.05222     -0.29411     -0.30405     -0.30354     -0.30461     -0.31231
   21     5.0000     -0.05222     -0.29411     -0.30405     -0.30354     -0.30461     -0.31231
 ----  ---------  -----------  -----------  -----------  -----------  -----------  -----------
  
 Leave Link  108 at Tue Mar 31 15:53:45 2020, MaxMem=  2147483648 cpu:               0.1 elap:               0.0
 (Enter /usr/local/g16/g16/l9999.exe)
 1\1\GINC-ARTHUR-MS-7B09\Scan\RMP4SDTQ-FC\Aug-CC-pVTZ\H2Kr1O2\MATHEUS\3
 1-Mar-2020\1\\#p mp4/aug-cc-PVTz int=ultrafine counterpoise=2 Scan\\PT
 CC\\0,1\O,0,0.,0.,0.725\O,0,0.,0.,-0.725\H,0,0.795635374,-0.4593602974
 ,1.0235104166\H,0,0.,0.9187205947,-1.0235104166\Kr,0,0.,R1,0.\\R1=3.,s
 ,20,0.1\\Version=ES64L-G16RevA.03\HF=-2752.0522231,-2752.0522231,-2752
 .0522231,-2752.0522231,-2752.0522231,-2752.0522231,-2752.0522231,-2752
 .0522231,-2752.0522231,-2752.0522231,-2752.0522231,-2752.0522231,-2752
 .0522231,-2752.0522231,-2752.0522231,-2752.0522231,-2752.0522231,-2752
 .0522231,-2752.0522231,-2752.0522231,-2752.0522231\MP2=-2752.2941143,-
 2752.2941143,-2752.2941143,-2752.2941143,-2752.2941143,-2752.2941143,-
 2752.2941143,-2752.2941143,-2752.2941143,-2752.2941143,-2752.2941143,-
 2752.2941143,-2752.2941143,-2752.2941143,-2752.2941143,-2752.2941143,-
 2752.2941143,-2752.2941143,-2752.2941143,-2752.2941143,-2752.2941143\M
 P3=-2752.304055,-2752.304055,-2752.304055,-2752.304055,-2752.304055,-2
 752.304055,-2752.304055,-2752.304055,-2752.304055,-2752.304055,-2752.3
 04055,-2752.304055,-2752.304055,-2752.304055,-2752.304055,-2752.304055
 ,-2752.304055,-2752.304055,-2752.304055,-2752.304055,-2752.304055\MP4D
 =-2752.3077463,-2752.3077463,-2752.3077463,-2752.3077463,-2752.3077463
 ,-2752.3077463,-2752.3077463,-2752.3077463,-2752.3077463,-2752.3077463
 ,-2752.3077463,-2752.3077463,-2752.3077463,-2752.3077463,-2752.3077463
 ,-2752.3077463,-2752.3077463,-2752.3077463,-2752.3077463,-2752.3077463
 ,-2752.3077463\MP4DQ=-2752.3035385,-2752.3035385,-2752.3035385,-2752.3
 035385,-2752.3035385,-2752.3035385,-2752.3035385,-2752.3035385,-2752.3
 035385,-2752.3035385,-2752.3035385,-2752.3035385,-2752.3035385,-2752.3
 035385,-2752.3035385,-2752.3035385,-2752.3035385,-2752.3035385,-2752.3
 035385,-2752.3035385,-2752.3035385\MP4SDQ=-2752.304612,-2752.304612,-2
 752.304612,-2752.304612,-2752.304612,-2752.304612,-2752.304612,-2752.3
 04612,-2752.304612,-2752.304612,-2752.304612,-2752.304612,-2752.304612
 ,-2752.304612,-2752.304612,-2752.304612,-2752.304612,-2752.304612,-275
 2.304612,-2752.304612,-2752.304612\MP4SDTQ=-2752.3123106,-2752.3123106
 ,-2752.3123106,-2752.3123106,-2752.3123106,-2752.3123106,-2752.3123106
 ,-2752.3123106,-2752.3123106,-2752.3123106,-2752.3123106,-2752.3123106
 ,-2752.3123106,-2752.3123106,-2752.3123106,-2752.3123106,-2752.3123106
 ,-2752.3123106,-2752.3123106,-2752.3123106,-2752.3123106\RMSD=9.887e-1
 0,1.149e-10,2.884e-11,7.211e-12,1.870e-12,4.720e-13,1.330e-13,3.671e-1
 4,1.749e-14,1.420e-14,1.506e-14,1.673e-14,8.454e-15,1.027e-14,9.223e-1
 5,1.350e-14,1.104e-14,4.659e-15,1.515e-14,1.166e-14,6.612e-15\PG=C01 [
 X(H2Kr1O2)]\\@


 WE ARE PERHAPS NOT FAR REMOVED FROM THE TIME WHEN WE SHALL BE ABLE TO SUBMIT
 THE BULK OF CHEMICAL PHENOMENA TO CALCULATION.

            -- JOSEPH LOUIS GAY-LUSSAC
               MEMOIRES DE LA SOCIETE D'ARCUEIL, 2, 207 (1808)
 Job cpu time:       0 days 20 hours 50 minutes  4.8 seconds.
 Elapsed time:       0 days  1 hours 19 minutes 22.1 seconds.
 File lengths (MBytes):  RWF=   4073 Int=      0 D2E=      0 Chk=     12 Scr=      1
 Normal termination of Gaussian 16 at Tue Mar 31 15:53:45 2020.
