 Entering Gaussian System, Link 0=g16
 Input=Inputs/H2O2-Kr_15.com
 Output=Logs/H2O2-Kr_15.log
 Initial command:
 /usr/local/g16/g16/l1.exe "/mnt/driveB/scratch/matheus/Gau-37128.inp" -scrdir="/mnt/driveB/scratch/matheus/"
 Entering Link 1 = /usr/local/g16/g16/l1.exe PID=     37130.
  
 Copyright (c) 1988,1990,1992,1993,1995,1998,2003,2009,2016,
            Gaussian, Inc.  All Rights Reserved.
  
 This is part of the Gaussian(R) 16 program.  It is based on
 the Gaussian(R) 09 system (copyright 2009, Gaussian, Inc.),
 the Gaussian(R) 03 system (copyright 2003, Gaussian, Inc.),
 the Gaussian(R) 98 system (copyright 1998, Gaussian, Inc.),
 the Gaussian(R) 94 system (copyright 1995, Gaussian, Inc.),
 the Gaussian 92(TM) system (copyright 1992, Gaussian, Inc.),
 the Gaussian 90(TM) system (copyright 1990, Gaussian, Inc.),
 the Gaussian 88(TM) system (copyright 1988, Gaussian, Inc.),
 the Gaussian 86(TM) system (copyright 1986, Carnegie Mellon
 University), and the Gaussian 82(TM) system (copyright 1983,
 Carnegie Mellon University). Gaussian is a federally registered
 trademark of Gaussian, Inc.
  
 This software contains proprietary and confidential information,
 including trade secrets, belonging to Gaussian, Inc.
  
 This software is provided under written license and may be
 used, copied, transmitted, or stored only in accord with that
 written license.
  
 The following legend is applicable only to US Government
 contracts under FAR:
  
                    RESTRICTED RIGHTS LEGEND
  
 Use, reproduction and disclosure by the US Government is
 subject to restrictions as set forth in subparagraphs (a)
 and (c) of the Commercial Computer Software - Restricted
 Rights clause in FAR 52.227-19.
  
 Gaussian, Inc.
 340 Quinnipiac St., Bldg. 40, Wallingford CT 06492
  
  
 ---------------------------------------------------------------
 Warning -- This program may not be used in any manner that
 competes with the business of Gaussian, Inc. or will provide
 assistance to any competitor of Gaussian, Inc.  The licensee
 of this program is prohibited from giving any competitor of
 Gaussian, Inc. access to this program.  By using this program,
 the user acknowledges that Gaussian, Inc. is engaged in the
 business of creating and licensing software in the field of
 computational chemistry and represents and warrants to the
 licensee that it is not a competitor of Gaussian, Inc. and that
 it will not use this program in any manner prohibited above.
 ---------------------------------------------------------------
  

 Cite this work as:
 Gaussian 16, Revision A.03,
 M. J. Frisch, G. W. Trucks, H. B. Schlegel, G. E. Scuseria, 
 M. A. Robb, J. R. Cheeseman, G. Scalmani, V. Barone, 
 G. A. Petersson, H. Nakatsuji, X. Li, M. Caricato, A. V. Marenich, 
 J. Bloino, B. G. Janesko, R. Gomperts, B. Mennucci, H. P. Hratchian, 
 J. V. Ortiz, A. F. Izmaylov, J. L. Sonnenberg, D. Williams-Young, 
 F. Ding, F. Lipparini, F. Egidi, J. Goings, B. Peng, A. Petrone, 
 T. Henderson, D. Ranasinghe, V. G. Zakrzewski, J. Gao, N. Rega, 
 G. Zheng, W. Liang, M. Hada, M. Ehara, K. Toyota, R. Fukuda, 
 J. Hasegawa, M. Ishida, T. Nakajima, Y. Honda, O. Kitao, H. Nakai, 
 T. Vreven, K. Throssell, J. A. Montgomery, Jr., J. E. Peralta, 
 F. Ogliaro, M. J. Bearpark, J. J. Heyd, E. N. Brothers, K. N. Kudin, 
 V. N. Staroverov, T. A. Keith, R. Kobayashi, J. Normand, 
 K. Raghavachari, A. P. Rendell, J. C. Burant, S. S. Iyengar, 
 J. Tomasi, M. Cossi, J. M. Millam, M. Klene, C. Adamo, R. Cammi, 
 J. W. Ochterski, R. L. Martin, K. Morokuma, O. Farkas, 
 J. B. Foresman, and D. J. Fox, Gaussian, Inc., Wallingford CT, 2016.
 
 ******************************************
 Gaussian 16:  ES64L-G16RevA.03 25-Dec-2016
                31-Mar-2020 
 ******************************************
 %mem=16GB
 %nproc=16
 Will use up to   16 processors via shared memory.
 ----------------------------------------------------
 #p mp4/aug-cc-PVTz int=ultrafine counterpoise=2 Scan
 ----------------------------------------------------
 1/38=1,60=1,62=2,172=1/1,8;
 2/12=2,17=6,18=5,29=3,40=1/2;
 1/38=1,53=2,62=2,63=1/22;
 3/5=16,6=1,7=10,11=9,25=1,30=1,75=-5/1,2,3;
 4//1;
 5/5=2,38=5/2;
 8/6=4,9=120000,10=1/1,4;
 9/5=5/13;
 6/7=2,8=2,9=2,10=2,18=1/1;
 1/53=2,62=2,63=1/22;
 3/5=7,6=11,7=10,11=9,25=1,30=1,75=-5,82=7/1,2,3;
 4//1;
 5/5=2,38=5/2;
 8/6=4,9=120000,10=1/1,4;
 9/5=5/13;
 6/7=2,8=2,9=2,10=2,18=1/1;
 1/53=2,62=2,63=1/22(-6);
 1/60=1,62=2/8(1);
 99/9=1/99;
 2/29=3/2;
 1/53=3,62=2,63=1/22;
 3/5=7,6=11,7=10,11=9,25=1,30=1,75=-5,82=7/1,2,3;
 4/5=5,16=3,69=1/1;
 5/5=2,38=5/2;
 8/6=4,9=120000,10=1/1,4;
 9/5=5/13;
 1/53=3,62=2,63=1/22(-5);
 1/60=1,62=2/8(-8);
 99/9=1/99;
 Leave Link    1 at Tue Mar 31 20:46:13 2020, MaxMem=  2147483648 cpu:               0.3 elap:               0.0
 (Enter /usr/local/g16/g16/l101.exe)
 ----
 PTCC
 ----
 Symbolic Z-matrix:
 Charge =  0 Multiplicity = 1 in supermolecule
 Charge =  0 Multiplicity = 1 in fragment      1.
 Charge =  0 Multiplicity = 1 in fragment      2.
 O(Fragment=1)         0.        0.        0.725 
 O(Fragment=1)         0.        0.       -0.725 
 H(Fragment=1)         0.45936  -0.79564   1.02351 
 H(Fragment=1)         0.        0.91872  -1.02351 
 Kr(Fragment=2)        0.       R1        0. 
       Variables:
  R1                    3.     Scan 20    0.1    
 
 ITRead=  0  0  0  0  0
 MicOpt= -1 -1 -1 -1 -1
 NAtoms=      5 NQM=        5 NQMF=       0 NMMI=      0 NMMIF=      0
                NMic=       0 NMicF=      0.
                    Isotopes and Nuclear Properties:
 (Nuclear quadrupole moments (NQMom) in fm**2, nuclear magnetic moments (NMagM)
  in nuclear magnetons)

  Atom         1           2           3           4           5
 IAtWgt=          16          16           1           1          84
 AtmWgt=  15.9949146  15.9949146   1.0078250   1.0078250  83.9115064
 NucSpn=           0           0           1           1           0
 AtZEff=  -0.0000000  -0.0000000  -0.0000000  -0.0000000  -0.0000000
 NQMom=    0.0000000   0.0000000   0.0000000   0.0000000   0.0000000
 NMagM=    0.0000000   0.0000000   2.7928460   2.7928460   0.0000000
 AtZNuc=   8.0000000   8.0000000   1.0000000   1.0000000  36.0000000
 Leave Link  101 at Tue Mar 31 20:46:13 2020, MaxMem=  2147483648 cpu:               1.3 elap:               0.1
 (Enter /usr/local/g16/g16/l108.exe)
 Scan the potential surface.
 Variable   Value     No. Steps Step-Size
 -------- ----------- --------- ---------
     1       3.000000      20      0.1000
 A total of     21 points will be computed.
 Leave Link  108 at Tue Mar 31 20:46:14 2020, MaxMem=  2147483648 cpu:               0.0 elap:               0.0
 (Enter /usr/local/g16/g16/l202.exe)
 ---------------------------------------------------------------------------------------------------
                            Z-MATRIX (ANGSTROMS AND DEGREES)
   CD    Cent   Atom    N1       Length/X        N2       Alpha/Y        N3        Beta/Z          J
 ---------------------------------------------------------------------------------------------------
      1      1  O        0   0.000000          0.000000          0.725000
      2      2  O        0   0.000000          0.000000         -0.725000
      3      3  H        0   0.459360         -0.795635          1.023510
      4      4  H        0   0.000000          0.918721         -1.023510
      5      5  Kr       0   0.000000          3.000000          0.000000
 ---------------------------------------------------------------------------------------------------
                         Z-Matrix orientation:                         
 ---------------------------------------------------------------------
 Center     Atomic      Atomic             Coordinates (Angstroms)
 Number     Number       Type             X           Y           Z
 ---------------------------------------------------------------------
      1          8           0        0.000000    0.000000    0.725000
      2          8           0        0.000000    0.000000   -0.725000
      3          1           0        0.459360   -0.795635    1.023510
      4          1           0        0.000000    0.918721   -1.023510
      5         36           0        0.000000    3.000000    0.000000
 ---------------------------------------------------------------------
                    Distance matrix (angstroms):
                    1          2          3          4          5
     1  O    0.000000
     2  O    1.450000   0.000000
     3  H    0.966000   1.975180   0.000000
     4  H    1.975180   0.966000   2.709303   0.000000
     5  Kr   3.086361   3.086361   3.957958   2.319331   0.000000
 Stoichiometry    H2KrO2
 Framework group  C1[X(H2KrO2)]
 Deg. of freedom     9
 Full point group                 C1      NOp   1
 Largest Abelian subgroup         C1      NOp   1
 Largest concise Abelian subgroup C1      NOp   1
                         Standard orientation:                         
 ---------------------------------------------------------------------
 Center     Atomic      Atomic             Coordinates (Angstroms)
 Number     Number       Type             X           Y           Z
 ---------------------------------------------------------------------
      1          8           0        2.014667   -0.687062   -0.062307
      2          8           0        1.988768    0.761329    0.000872
      3          1           0        2.820911   -0.990551    0.374753
      4          1           0        1.064927    1.042640    0.024073
      5         36           0       -0.997592   -0.017951    0.002574
 ---------------------------------------------------------------------
 Rotational constants (GHZ):          26.4417567           2.3080538           2.1261727
 Leave Link  202 at Tue Mar 31 20:46:14 2020, MaxMem=  2147483648 cpu:               0.0 elap:               0.0
 (Enter /usr/local/g16/g16/l122.exe)
 Counterpoise: doing full-system calculation.
 Leave Link  122 at Tue Mar 31 20:46:14 2020, MaxMem=  2147483648 cpu:               0.0 elap:               0.0
 (Enter /usr/local/g16/g16/l301.exe)
 Standard basis: Aug-CC-pVTZ (5D, 7F)
 Ernie: Thresh=  0.10000D-02 Tol=  0.10000D-05 Strict=F.
 Ernie:  38 primitive shells out of 205 were deleted.
 There are   229 symmetry adapted cartesian basis functions of A   symmetry.
 There are   197 symmetry adapted basis functions of A   symmetry.
   197 basis functions,   415 primitive gaussians,   229 cartesian basis functions
    27 alpha electrons       27 beta electrons
       nuclear repulsion energy       148.3895256686 Hartrees.
 IExCor=    0 DFT=F Ex=HF Corr=None ExCW=0 ScaHFX=  1.000000
 ScaDFX=  1.000000  1.000000  1.000000  1.000000 ScalE2=  1.000000  1.000000
 IRadAn=      5 IRanWt=     -1 IRanGd=            0 ICorTp=0 IEmpDi=  4
 NAtoms=    5 NActive=    5 NUniq=    5 SFac= 1.00D+00 NAtFMM=   60 NAOKFM=F Big=F
 Integral buffers will be    131072 words long.
 Raffenetti 1 integral format.
 Two-electron integral symmetry is turned on.
 Leave Link  301 at Tue Mar 31 20:46:14 2020, MaxMem=  2147483648 cpu:               0.3 elap:               0.0
 (Enter /usr/local/g16/g16/l302.exe)
 NPDir=0 NMtPBC=     1 NCelOv=     1 NCel=       1 NClECP=     1 NCelD=      1
         NCelK=      1 NCelE2=     1 NClLst=     1 CellRange=     0.0.
 One-electron integrals computed using PRISM.
 One-electron integral symmetry used in STVInt
 NBasis=   197 RedAO= T EigKep=  2.03D-04  NBF=   197
 NBsUse=   197 1.00D-06 EigRej= -1.00D+00 NBFU=   197
 Leave Link  302 at Tue Mar 31 20:46:14 2020, MaxMem=  2147483648 cpu:               1.7 elap:               0.1
 (Enter /usr/local/g16/g16/l303.exe)
 DipDrv:  MaxL=1.
 Leave Link  303 at Tue Mar 31 20:46:14 2020, MaxMem=  2147483648 cpu:               0.4 elap:               0.0
 (Enter /usr/local/g16/g16/l401.exe)
 ExpMin= 2.53D-02 ExpMax= 1.17D+07 ExpMxC= 1.33D+04 IAcc=3 IRadAn=         5 AccDes= 0.00D+00
 Harris functional with IExCor=  205 and IRadAn=       5 diagonalized for initial guess.
 HarFok:  IExCor=  205 AccDes= 0.00D+00 IRadAn=         5 IDoV= 1 UseB2=F ITyADJ=14
 ICtDFT=  3500011 ScaDFX=  1.000000  1.000000  1.000000  1.000000
 FoFCou: FMM=F IPFlag=           0 FMFlag=      100000 FMFlg1=           0
         NFxFlg=           0 DoJE=T BraDBF=F KetDBF=T FulRan=T
         wScrn=  0.000000 ICntrl=       500 IOpCl=  0 I1Cent=   200000004 NGrid=           0
         NMat0=    1 NMatS0=      1 NMatT0=    0 NMatD0=    1 NMtDS0=    0 NMtDT0=    0
 Petite list used in FoFCou.
 Harris En= -2901.99140285186    
 JPrj=0 DoOrth=F DoCkMO=F.
 Leave Link  401 at Tue Mar 31 20:46:14 2020, MaxMem=  2147483648 cpu:               3.2 elap:               0.2
 (Enter /usr/local/g16/g16/l502.exe)
 Keep R1 ints in memory in canonical form, NReq=203133016.
 FoFCou: FMM=F IPFlag=           0 FMFlag=           0 FMFlg1=           0
         NFxFlg=           0 DoJE=F BraDBF=F KetDBF=F FulRan=T
         wScrn=  0.000000 ICntrl=       600 IOpCl=  0 I1Cent=           0 NGrid=           0
         NMat0=    1 NMatS0=  19503 NMatT0=    0 NMatD0=    1 NMtDS0=    0 NMtDT0=    0
 Symmetry not used in FoFCou.
 Two-electron integral symmetry not used.
 Closed shell SCF:
 Using DIIS extrapolation, IDIIS=  1040.
 NGot=  2147483648 LenX=  1957179903 LenY=  1957127021
 Requested convergence on RMS density matrix=1.00D-08 within 128 cycles.
 Requested convergence on MAX density matrix=1.00D-06.
 Requested convergence on             energy=1.00D-06.
 No special actions if energy rises.

 Cycle   1  Pass 1  IDiag  1:
 E= -2902.76735957072    
 DIIS: error= 3.30D-02 at cycle   1 NSaved=   1.
 NSaved= 1 IEnMin= 1 EnMin= -2902.76735957072     IErMin= 1 ErrMin= 3.30D-02
 ErrMax= 3.30D-02  0.00D+00 EMaxC= 1.00D-01 BMatC= 6.56D-01 BMatP= 6.56D-01
 IDIUse=3 WtCom= 6.70D-01 WtEn= 3.30D-01
 Coeff-Com:  0.100D+01
 Coeff-En:   0.100D+01
 Coeff:      0.100D+01
 Gap=     0.683 Goal=   None    Shift=    0.000
 GapD=    0.683 DampG=2.000 DampE=0.500 DampFc=1.0000 IDamp=-1.
 RMSDP=2.00D-03 MaxDP=1.29D-01              OVMax= 6.17D-02

 Cycle   2  Pass 1  IDiag  1:
 E= -2902.86363381055     Delta-E=       -0.096274239826 Rises=F Damp=F
 DIIS: error= 6.66D-03 at cycle   2 NSaved=   2.
 NSaved= 2 IEnMin= 2 EnMin= -2902.86363381055     IErMin= 2 ErrMin= 6.66D-03
 ErrMax= 6.66D-03  0.00D+00 EMaxC= 1.00D-01 BMatC= 3.52D-02 BMatP= 6.56D-01
 IDIUse=3 WtCom= 9.33D-01 WtEn= 6.66D-02
 Coeff-Com:  0.137D+00 0.863D+00
 Coeff-En:   0.000D+00 0.100D+01
 Coeff:      0.127D+00 0.873D+00
 Gap=     0.519 Goal=   None    Shift=    0.000
 RMSDP=7.35D-04 MaxDP=3.63D-02 DE=-9.63D-02 OVMax= 2.56D-02

 Cycle   3  Pass 1  IDiag  1:
 E= -2902.87650021497     Delta-E=       -0.012866404422 Rises=F Damp=F
 DIIS: error= 2.48D-03 at cycle   3 NSaved=   3.
 NSaved= 3 IEnMin= 3 EnMin= -2902.87650021497     IErMin= 3 ErrMin= 2.48D-03
 ErrMax= 2.48D-03  0.00D+00 EMaxC= 1.00D-01 BMatC= 2.55D-03 BMatP= 3.52D-02
 IDIUse=3 WtCom= 9.75D-01 WtEn= 2.48D-02
 Coeff-Com: -0.660D-02 0.190D+00 0.816D+00
 Coeff-En:   0.000D+00 0.000D+00 0.100D+01
 Coeff:     -0.643D-02 0.185D+00 0.821D+00
 Gap=     0.493 Goal=   None    Shift=    0.000
 RMSDP=1.27D-04 MaxDP=4.86D-03 DE=-1.29D-02 OVMax= 8.35D-03

 Cycle   4  Pass 1  IDiag  1:
 E= -2902.87778087953     Delta-E=       -0.001280664559 Rises=F Damp=F
 DIIS: error= 3.70D-04 at cycle   4 NSaved=   4.
 NSaved= 4 IEnMin= 4 EnMin= -2902.87778087953     IErMin= 4 ErrMin= 3.70D-04
 ErrMax= 3.70D-04  0.00D+00 EMaxC= 1.00D-01 BMatC= 4.22D-05 BMatP= 2.55D-03
 IDIUse=3 WtCom= 9.96D-01 WtEn= 3.70D-03
 Coeff-Com: -0.391D-02 0.120D-01 0.136D+00 0.856D+00
 Coeff-En:   0.000D+00 0.000D+00 0.000D+00 0.100D+01
 Coeff:     -0.389D-02 0.120D-01 0.135D+00 0.857D+00
 Gap=     0.497 Goal=   None    Shift=    0.000
 RMSDP=2.06D-05 MaxDP=6.22D-04 DE=-1.28D-03 OVMax= 1.57D-03

 Cycle   5  Pass 1  IDiag  1:
 E= -2902.87781661319     Delta-E=       -0.000035733657 Rises=F Damp=F
 DIIS: error= 1.37D-04 at cycle   5 NSaved=   5.
 NSaved= 5 IEnMin= 5 EnMin= -2902.87781661319     IErMin= 5 ErrMin= 1.37D-04
 ErrMax= 1.37D-04  0.00D+00 EMaxC= 1.00D-01 BMatC= 3.20D-06 BMatP= 4.22D-05
 IDIUse=3 WtCom= 9.99D-01 WtEn= 1.37D-03
 Coeff-Com:  0.817D-03-0.158D-01-0.671D-01 0.748D-02 0.107D+01
 Coeff-En:   0.000D+00 0.000D+00 0.000D+00 0.000D+00 0.100D+01
 Coeff:      0.816D-03-0.157D-01-0.670D-01 0.747D-02 0.107D+01
 Gap=     0.497 Goal=   None    Shift=    0.000
 RMSDP=9.67D-06 MaxDP=3.08D-04 DE=-3.57D-05 OVMax= 8.41D-04

 Cycle   6  Pass 1  IDiag  1:
 E= -2902.87782136762     Delta-E=       -0.000004754434 Rises=F Damp=F
 DIIS: error= 3.06D-05 at cycle   6 NSaved=   6.
 NSaved= 6 IEnMin= 6 EnMin= -2902.87782136762     IErMin= 6 ErrMin= 3.06D-05
 ErrMax= 3.06D-05  0.00D+00 EMaxC= 1.00D-01 BMatC= 2.13D-07 BMatP= 3.20D-06
 IDIUse=1 WtCom= 1.00D+00 WtEn= 0.00D+00
 Coeff-Com:  0.168D-03 0.391D-04-0.606D-02-0.581D-01-0.173D-01 0.108D+01
 Coeff:      0.168D-03 0.391D-04-0.606D-02-0.581D-01-0.173D-01 0.108D+01
 Gap=     0.497 Goal=   None    Shift=    0.000
 RMSDP=2.86D-06 MaxDP=8.14D-05 DE=-4.75D-06 OVMax= 2.61D-04

 Cycle   7  Pass 1  IDiag  1:
 E= -2902.87782180828     Delta-E=       -0.000000440659 Rises=F Damp=F
 DIIS: error= 1.27D-05 at cycle   7 NSaved=   7.
 NSaved= 7 IEnMin= 7 EnMin= -2902.87782180828     IErMin= 7 ErrMin= 1.27D-05
 ErrMax= 1.27D-05  0.00D+00 EMaxC= 1.00D-01 BMatC= 2.71D-08 BMatP= 2.13D-07
 IDIUse=1 WtCom= 1.00D+00 WtEn= 0.00D+00
 Coeff-Com: -0.382D-04 0.122D-02 0.457D-02-0.701D-02-0.846D-01 0.798D-01
 Coeff-Com:  0.101D+01
 Coeff:     -0.382D-04 0.122D-02 0.457D-02-0.701D-02-0.846D-01 0.798D-01
 Coeff:      0.101D+01
 Gap=     0.497 Goal=   None    Shift=    0.000
 RMSDP=1.10D-06 MaxDP=3.86D-05 DE=-4.41D-07 OVMax= 1.23D-04

 Cycle   8  Pass 1  IDiag  1:
 E= -2902.87782186927     Delta-E=       -0.000000060995 Rises=F Damp=F
 DIIS: error= 4.69D-06 at cycle   8 NSaved=   8.
 NSaved= 8 IEnMin= 8 EnMin= -2902.87782186927     IErMin= 8 ErrMin= 4.69D-06
 ErrMax= 4.69D-06  0.00D+00 EMaxC= 1.00D-01 BMatC= 8.37D-09 BMatP= 2.71D-08
 IDIUse=1 WtCom= 1.00D+00 WtEn= 0.00D+00
 Coeff-Com: -0.322D-04 0.334D-03 0.219D-02 0.636D-02-0.232D-01-0.138D+00
 Coeff-Com:  0.326D+00 0.827D+00
 Coeff:     -0.322D-04 0.334D-03 0.219D-02 0.636D-02-0.232D-01-0.138D+00
 Coeff:      0.326D+00 0.827D+00
 Gap=     0.497 Goal=   None    Shift=    0.000
 RMSDP=5.16D-07 MaxDP=1.08D-05 DE=-6.10D-08 OVMax= 6.81D-05

 Cycle   9  Pass 1  IDiag  1:
 E= -2902.87782188481     Delta-E=       -0.000000015536 Rises=F Damp=F
 DIIS: error= 2.67D-06 at cycle   9 NSaved=   9.
 NSaved= 9 IEnMin= 9 EnMin= -2902.87782188481     IErMin= 9 ErrMin= 2.67D-06
 ErrMax= 2.67D-06  0.00D+00 EMaxC= 1.00D-01 BMatC= 1.28D-09 BMatP= 8.37D-09
 IDIUse=1 WtCom= 1.00D+00 WtEn= 0.00D+00
 Coeff-Com:  0.121D-04-0.292D-03-0.129D-02-0.427D-03 0.203D-01 0.265D-01
 Coeff-Com: -0.276D+00-0.276D+00 0.151D+01
 Coeff:      0.121D-04-0.292D-03-0.129D-02-0.427D-03 0.203D-01 0.265D-01
 Coeff:     -0.276D+00-0.276D+00 0.151D+01
 Gap=     0.497 Goal=   None    Shift=    0.000
 RMSDP=4.43D-07 MaxDP=1.04D-05 DE=-1.55D-08 OVMax= 6.91D-05

 Cycle  10  Pass 1  IDiag  1:
 E= -2902.87782189128     Delta-E=       -0.000000006473 Rises=F Damp=F
 DIIS: error= 1.18D-06 at cycle  10 NSaved=  10.
 NSaved=10 IEnMin=10 EnMin= -2902.87782189128     IErMin=10 ErrMin= 1.18D-06
 ErrMax= 1.18D-06  0.00D+00 EMaxC= 1.00D-01 BMatC= 2.24D-10 BMatP= 1.28D-09
 IDIUse=1 WtCom= 1.00D+00 WtEn= 0.00D+00
 Coeff-Com:  0.894D-06 0.986D-04 0.236D-03-0.139D-02-0.564D-02 0.149D-01
 Coeff-Com:  0.862D-01-0.258D-01-0.821D+00 0.175D+01
 Coeff:      0.894D-06 0.986D-04 0.236D-03-0.139D-02-0.564D-02 0.149D-01
 Coeff:      0.862D-01-0.258D-01-0.821D+00 0.175D+01
 Gap=     0.497 Goal=   None    Shift=    0.000
 RMSDP=2.59D-07 MaxDP=6.35D-06 DE=-6.47D-09 OVMax= 4.20D-05

 Cycle  11  Pass 1  IDiag  1:
 E= -2902.87782189260     Delta-E=       -0.000000001320 Rises=F Damp=F
 DIIS: error= 2.98D-07 at cycle  11 NSaved=  11.
 NSaved=11 IEnMin=11 EnMin= -2902.87782189260     IErMin=11 ErrMin= 2.98D-07
 ErrMax= 2.98D-07  0.00D+00 EMaxC= 1.00D-01 BMatC= 1.39D-11 BMatP= 2.24D-10
 IDIUse=1 WtCom= 1.00D+00 WtEn= 0.00D+00
 Coeff-Com: -0.181D-05-0.171D-04 0.367D-04 0.896D-03-0.998D-05-0.119D-01
 Coeff-Com: -0.123D-02 0.542D-01 0.144D+00-0.657D+00 0.147D+01
 Coeff:     -0.181D-05-0.171D-04 0.367D-04 0.896D-03-0.998D-05-0.119D-01
 Coeff:     -0.123D-02 0.542D-01 0.144D+00-0.657D+00 0.147D+01
 Gap=     0.497 Goal=   None    Shift=    0.000
 RMSDP=5.15D-08 MaxDP=1.20D-06 DE=-1.32D-09 OVMax= 7.77D-06

 Cycle  12  Pass 1  IDiag  1:
 E= -2902.87782189267     Delta-E=       -0.000000000071 Rises=F Damp=F
 DIIS: error= 6.55D-08 at cycle  12 NSaved=  12.
 NSaved=12 IEnMin=12 EnMin= -2902.87782189267     IErMin=12 ErrMin= 6.55D-08
 ErrMax= 6.55D-08  0.00D+00 EMaxC= 1.00D-01 BMatC= 7.60D-13 BMatP= 1.39D-11
 IDIUse=1 WtCom= 1.00D+00 WtEn= 0.00D+00
 Coeff-Com:  0.131D-06-0.588D-05-0.243D-04 0.402D-04 0.457D-03-0.471D-03
 Coeff-Com: -0.539D-02 0.743D-03 0.329D-01-0.473D-01-0.156D+00 0.118D+01
 Coeff:      0.131D-06-0.588D-05-0.243D-04 0.402D-04 0.457D-03-0.471D-03
 Coeff:     -0.539D-02 0.743D-03 0.329D-01-0.473D-01-0.156D+00 0.118D+01
 Gap=     0.497 Goal=   None    Shift=    0.000
 RMSDP=8.85D-09 MaxDP=1.90D-07 DE=-7.09D-11 OVMax= 1.11D-06

 SCF Done:  E(RHF) =  -2902.87782189     A.U. after   12 cycles
            NFock= 12  Conv=0.88D-08     -V/T= 2.0001
 KE= 2.902625159095D+03 PE=-7.237380224522D+03 EE= 1.283487717866D+03
 Leave Link  502 at Tue Mar 31 20:46:17 2020, MaxMem=  2147483648 cpu:              26.4 elap:               3.4
 (Enter /usr/local/g16/g16/l801.exe)
 Windowed orbitals will be sorted by symmetry type.
 ExpMin= 2.53D-02 ExpMax= 1.17D+07 ExpMxC= 1.33D+04 IAcc=3 IRadAn=         5 AccDes= 0.00D+00
 HarFok:  IExCor=  205 AccDes= 0.00D+00 IRadAn=         5 IDoV=-2 UseB2=F ITyADJ=14
 ICtDFT= 12500011 ScaDFX=  1.000000  1.000000  1.000000  1.000000
 Largest valence mixing into a core orbital is  1.16D-04
 Largest core mixing into a valence orbital is  3.82D-05
 Range of M.O.s used for correlation:    12   197
 NBasis=   197 NAE=    27 NBE=    27 NFC=    11 NFV=     0
 NROrb=    186 NOA=    16 NOB=    16 NVA=   170 NVB=   170

 **** Warning!!: The largest alpha MO coefficient is  0.12618589D+02

 Leave Link  801 at Tue Mar 31 20:46:17 2020, MaxMem=  2147483648 cpu:               0.6 elap:               0.0
 (Enter /usr/local/g16/g16/l804.exe)
 Closed-shell transformation, MDV=  2147483648 ITran=4 ISComp=1.
 Unit  1 TFree=       1248993 TCopy=        808885.
 Semi-Direct transformation.
 ModeAB=           2 MOrb=            16 LenV=    2146362418
 LASXX=     48528660 LTotXX=    48528660 LenRXX=    48528660
 LTotAB=    49298776 MaxLAS=    78372960 LenRXY=    78372960
 NonZer=    97057320 LenScr=   146313216 LnRSAI=           0
 LnScr1=           0 LExtra=           0 Total=    273214836
 MaxDsk=          -1 SrtSym=           F ITran=            4
 DoSDTr:  NPSUse= 16
 JobTyp=0 Pass  1:  I=   1 to  16.
 (rs|ai) integrals will be sorted in core.
 Complete sort for first half transformation.
 First half transformation complete.
 Begin second half transformation for I=  10.
 Begin second half transformation for I=  10.
 Complete sort for second half transformation.
 Second half transformation complete.
 SymMOI:  orbitals are not symmetric.
 Spin components of T(2) and E(2):
     alpha-alpha T2 =       0.2592921431D-01 E2=     -0.9990356528D-01
     alpha-beta  T2 =       0.1418150615D+00 E2=     -0.5563689098D+00
     beta-beta   T2 =       0.2592921431D-01 E2=     -0.9990356528D-01
 ANorm=    0.1092553655D+01
 E2 =    -0.7561760403D+00 EUMP2 =    -0.29036339979330D+04
 Leave Link  804 at Tue Mar 31 20:46:28 2020, MaxMem=  2147483648 cpu:             174.7 elap:              10.9
 (Enter /usr/local/g16/g16/l913.exe)
 CIDS:  MDV=  2147483648.
 Frozen-core window:  NFC=  11 NFV=   0.
 IFCWin=0 IBDFC=1 NFBD=     0     0 NFCmp=     0     0 NFFFC=     0     0
 Using DD3R+UMP44R for 1st iteration.
 Using DD4RQ for 2nd and later iterations.
 Keep R2 and R3 ints in memory in canonical form, NReq=393334501.
 FoFCou: FMM=F IPFlag=           0 FMFlag=           0 FMFlg1=           0
         NFxFlg=           0 DoJE=F BraDBF=F KetDBF=F FulRan=T
         wScrn=  0.000000 ICntrl=       600 IOpCl=  0 I1Cent=           0 NGrid=           0
         NMat0=    1 NMatS0=  19503 NMatT0=    0 NMatD0=    1 NMtDS0=    0 NMtDT0=    0
 Symmetry not used in FoFCou.
 Two-electron integral symmetry not used.
 CIDS: In Core Option IDoMem=           1.
 MP4(SDTQ)
 =========
 Produce multiple copies of IABC intergrals
 DD1Dir will call FoFMem   1 times, MxPair=       272
 NAB=   136 NAA=     0 NBB=     0.
 MP4(D)= -0.14954914D-01
 MP4(S)= -0.64160772D-02
 MP4(R+Q)=  0.15362226D-01
 T4(AAA)= -0.10394043D-02
 T4(AAB)= -0.14145739D-01
 Time for triples=     1746.62 seconds.
 MP4(T)=   -0.30370286D-01
 E3=       -0.11305845D-01        EUMP3=      -0.29036453038D+04
 E4(DQ)=    0.40731227D-03        UMP4(DQ)=   -0.29036448965D+04
 E4(SDQ)=  -0.60087649D-02        UMP4(SDQ)=  -0.29036513125D+04
 E4(SDTQ)= -0.36379051D-01        UMP4(SDTQ)= -0.29036816828D+04
 VARIATIONAL ENERGIES WITH THE FIRST-ORDER WAVEFUNCTION:
 E(VAR1)=  -0.29035207799D+04     E(CISD,4)=  -0.29035202235D+04
 Largest amplitude= 2.60D-02
 Discarding MO integrals.
 Leave Link  913 at Tue Mar 31 20:48:25 2020, MaxMem=  2147483648 cpu:            1866.0 elap:             116.8
 (Enter /usr/local/g16/g16/l601.exe)
 Copying SCF densities to generalized density rwf, IOpCl= 0 IROHF=0.

 **********************************************************************

            Population analysis using the SCF density.

 **********************************************************************

 Orbital symmetries:
       Occupied  (A) (A) (A) (A) (A) (A) (A) (A) (A) (A) (A) (A)
                 (A) (A) (A) (A) (A) (A) (A) (A) (A) (A) (A) (A)
                 (A) (A) (A)
       Virtual   (A) (A) (A) (A) (A) (A) (A) (A) (A) (A) (A) (A)
                 (A) (A) (A) (A) (A) (A) (A) (A) (A) (A) (A) (A)
                 (A) (A) (A) (A) (A) (A) (A) (A) (A) (A) (A) (A)
                 (A) (A) (A) (A) (A) (A) (A) (A) (A) (A) (A) (A)
                 (A) (A) (A) (A) (A) (A) (A) (A) (A) (A) (A) (A)
                 (A) (A) (A) (A) (A) (A) (A) (A) (A) (A) (A) (A)
                 (A) (A) (A) (A) (A) (A) (A) (A) (A) (A) (A) (A)
                 (A) (A) (A) (A) (A) (A) (A) (A) (A) (A) (A) (A)
                 (A) (A) (A) (A) (A) (A) (A) (A) (A) (A) (A) (A)
                 (A) (A) (A) (A) (A) (A) (A) (A) (A) (A) (A) (A)
                 (A) (A) (A) (A) (A) (A) (A) (A) (A) (A) (A) (A)
                 (A) (A) (A) (A) (A) (A) (A) (A) (A) (A) (A) (A)
                 (A) (A) (A) (A) (A) (A) (A) (A) (A) (A) (A) (A)
                 (A) (A) (A) (A) (A) (A) (A) (A) (A) (A) (A) (A)
                 (A) (A)
 The electronic state is 1-A.
 Alpha  occ. eigenvalues -- -520.17310 -69.91064 -63.01723 -63.01720 -63.01717
 Alpha  occ. eigenvalues --  -20.62739 -20.62406 -10.85728  -8.33952  -8.33925
 Alpha  occ. eigenvalues --   -8.33910  -3.83332  -3.83326  -3.83305  -3.83278
 Alpha  occ. eigenvalues --   -3.83274  -1.46473  -1.21697  -1.16313  -0.71342
 Alpha  occ. eigenvalues --   -0.70575  -0.61877  -0.54280  -0.53222  -0.52806
 Alpha  occ. eigenvalues --   -0.51572  -0.46118
 Alpha virt. eigenvalues --    0.03575   0.04508   0.08896   0.10468   0.11467
 Alpha virt. eigenvalues --    0.12479   0.15287   0.16146   0.17252   0.18226
 Alpha virt. eigenvalues --    0.19516   0.21312   0.24537   0.25925   0.26682
 Alpha virt. eigenvalues --    0.28262   0.28859   0.31759   0.33682   0.35997
 Alpha virt. eigenvalues --    0.36635   0.37403   0.38712   0.41845   0.43014
 Alpha virt. eigenvalues --    0.45196   0.45500   0.52098   0.56858   0.59729
 Alpha virt. eigenvalues --    0.61454   0.64476   0.68866   0.70798   0.73839
 Alpha virt. eigenvalues --    0.76701   0.77789   0.78182   0.78939   0.81543
 Alpha virt. eigenvalues --    0.83835   0.85013   0.85522   0.87040   0.88134
 Alpha virt. eigenvalues --    0.90543   0.91471   0.93235   0.94761   0.98573
 Alpha virt. eigenvalues --    0.99474   1.00403   1.02473   1.02952   1.05903
 Alpha virt. eigenvalues --    1.08644   1.10436   1.12996   1.14900   1.17856
 Alpha virt. eigenvalues --    1.18816   1.21381   1.23321   1.25905   1.28384
 Alpha virt. eigenvalues --    1.35353   1.39963   1.44620   1.48471   1.50385
 Alpha virt. eigenvalues --    1.52861   1.60093   1.62108   1.65348   1.71788
 Alpha virt. eigenvalues --    1.72257   1.89274   1.96740   1.98068   2.07989
 Alpha virt. eigenvalues --    2.14374   2.16401   2.18671   2.28709   2.30135
 Alpha virt. eigenvalues --    2.35156   2.37180   2.37400   2.40383   2.41553
 Alpha virt. eigenvalues --    2.44811   2.46699   2.52591   2.53300   2.54140
 Alpha virt. eigenvalues --    2.55657   2.58073   2.62562   2.64919   2.68057
 Alpha virt. eigenvalues --    2.69472   2.69791   2.70687   2.73256   2.75044
 Alpha virt. eigenvalues --    2.78726   2.80320   2.83526   2.85531   2.86562
 Alpha virt. eigenvalues --    2.92638   2.94624   2.97074   3.04484   3.08549
 Alpha virt. eigenvalues --    3.12652   3.26103   3.28729   3.34978   3.78887
 Alpha virt. eigenvalues --    3.90780   4.13872   4.16490   4.25269   4.27883
 Alpha virt. eigenvalues --    4.36594   4.37294   4.40730   4.44278   4.48893
 Alpha virt. eigenvalues --    4.64171   4.73105   4.77521   4.83694   5.04148
 Alpha virt. eigenvalues --    5.18592   5.24348   5.27370   5.33792   5.37856
 Alpha virt. eigenvalues --    5.59287   5.80582   6.16397   6.35214   6.41135
 Alpha virt. eigenvalues --    6.45503   6.67608   6.68084   6.75251   6.85218
 Alpha virt. eigenvalues --    7.04200   7.12298   7.12766   7.21214   7.21709
 Alpha virt. eigenvalues --    7.23446   7.30039   7.32034   7.33473   7.39830
 Alpha virt. eigenvalues --    7.41727   7.62031   7.63508   7.76334   8.07943
 Alpha virt. eigenvalues --    8.22942   8.47993   8.53852  14.68382  15.26919
          Condensed to atoms (all electrons):
               1          2          3          4          5
     1  O    8.111937  -0.064908   0.249513  -0.015521  -0.027400
     2  O   -0.064908   8.129359  -0.003964   0.260584  -0.011091
     3  H    0.249513  -0.003964   0.485196   0.004562   0.002351
     4  H   -0.015521   0.260584   0.004562   0.464895  -0.004795
     5  Kr  -0.027400  -0.011091   0.002351  -0.004795  36.029951
 Mulliken charges:
               1
     1  O   -0.253621
     2  O   -0.309980
     3  H    0.262342
     4  H    0.290275
     5  Kr   0.010984
 Sum of Mulliken charges =  -0.00000
 Mulliken charges with hydrogens summed into heavy atoms:
               1
     1  O    0.008721
     2  O   -0.019705
     5  Kr   0.010984
         Mulliken charges condensed to fragments:
      1     -0.010984
      2      0.010984
 Electronic spatial extent (au):  <R**2>=            491.2615
 Charge=             -0.0000 electrons
 Dipole moment (field-independent basis, Debye):
    X=             -0.3483    Y=             -0.3009    Z=              0.8243  Tot=              0.9441
 Quadrupole moment (field-independent basis, Debye-Ang):
   XX=            -27.4809   YY=            -28.2311   ZZ=            -30.1238
   XY=             -3.8630   XZ=              2.5177   YZ=             -0.8824
 Traceless Quadrupole moment (field-independent basis, Debye-Ang):
   XX=              1.1310   YY=              0.3808   ZZ=             -1.5118
   XY=             -3.8630   XZ=              2.5177   YZ=             -0.8824
 Octapole moment (field-independent basis, Debye-Ang**2):
  XXX=             -3.6044  YYY=             -0.6832  ZZZ=              0.4150  XYY=             -3.9917
  XXY=            -15.8784  XXZ=              7.3366  XZZ=             -7.0921  YZZ=             -0.6555
  YYZ=              1.0524  XYZ=             -2.6495
 Hexadecapole moment (field-independent basis, Debye-Ang**3):
 XXXX=           -356.4726 YYYY=            -63.0278 ZZZZ=            -28.9374 XXXY=            -48.6313
 XXXZ=             21.8081 YYYX=             -5.7726 YYYZ=             -1.1282 ZZZX=              1.3082
 ZZZY=             -0.5763 XXYY=            -74.9290 XXZZ=            -76.2311 YYZZ=            -16.8191
 XXYZ=             -7.7892 YYXZ=              2.9791 ZZXY=             -1.4065
 N-N= 1.483895256686D+02 E-N=-7.237380227857D+03  KE= 2.902625159095D+03
 Leave Link  601 at Tue Mar 31 20:48:26 2020, MaxMem=  2147483648 cpu:               0.5 elap:               0.0
 (Enter /usr/local/g16/g16/l122.exe)
 CPIOFr:  IOpCl= 0 IRwI=-1 IRwCP=  731 ICalc= -1 LCPTot=       59414 Len1MO=      159453 IndFrg=       59414
 CPIOFr:  IOpCl= 0 IRwI=-1 IRwCP=  731 ICalc=  0 LCPTot=       59414 Len1MO=      159453 IndFrg=      218867
 Counterpoise: doing calculation for fragment   1 using the basis set of the full-system, NewBq=T
 Leave Link  122 at Tue Mar 31 20:48:26 2020, MaxMem=  2147483648 cpu:               0.1 elap:               0.0
 (Enter /usr/local/g16/g16/l301.exe)
 Basis read from rwf:  (5D, 7F)
 No pseudopotential information found on rwf file.
 There are   229 symmetry adapted cartesian basis functions of A   symmetry.
 There are   197 symmetry adapted basis functions of A   symmetry.
   197 basis functions,   415 primitive gaussians,   229 cartesian basis functions
     9 alpha electrons        9 beta electrons
       nuclear repulsion energy        36.6035602318 Hartrees.
 IExCor=    0 DFT=F Ex=HF Corr=None ExCW=0 ScaHFX=  1.000000
 ScaDFX=  1.000000  1.000000  1.000000  1.000000 ScalE2=  1.000000  1.000000
 IRadAn=      5 IRanWt=     -1 IRanGd=            0 ICorTp=0 IEmpDi=  4
 NAtoms=    5 NActive=    5 NUniq=    5 SFac= 1.00D+00 NAtFMM=   60 NAOKFM=F Big=F
 Integral buffers will be    131072 words long.
 Raffenetti 1 integral format.
 Two-electron integral symmetry is turned on.
 No density basis found on file   718.
 Leave Link  301 at Tue Mar 31 20:48:26 2020, MaxMem=  2147483648 cpu:               0.4 elap:               0.0
 (Enter /usr/local/g16/g16/l302.exe)
 NPDir=0 NMtPBC=     1 NCelOv=     1 NCel=       1 NClECP=     1 NCelD=      1
         NCelK=      1 NCelE2=     1 NClLst=     1 CellRange=     0.0.
 One-electron integrals computed using PRISM.
 One-electron integral symmetry used in STVInt
 NBasis=   197 RedAO= T EigKep=  2.03D-04  NBF=   197
 NBsUse=   197 1.00D-06 EigRej= -1.00D+00 NBFU=   197
 Leave Link  302 at Tue Mar 31 20:48:26 2020, MaxMem=  2147483648 cpu:               1.7 elap:               0.1
 (Enter /usr/local/g16/g16/l303.exe)
 DipDrv:  MaxL=1.
 Leave Link  303 at Tue Mar 31 20:48:26 2020, MaxMem=  2147483648 cpu:               0.4 elap:               0.0
 (Enter /usr/local/g16/g16/l401.exe)
 ExpMin= 2.53D-02 ExpMax= 1.17D+07 ExpMxC= 1.33D+04 IAcc=3 IRadAn=         5 AccDes= 0.00D+00
 Harris functional with IExCor=  205 and IRadAn=       5 diagonalized for initial guess.
 HarFok:  IExCor=  205 AccDes= 0.00D+00 IRadAn=         5 IDoV= 1 UseB2=F ITyADJ=14
 ICtDFT=  3500011 ScaDFX=  1.000000  1.000000  1.000000  1.000000
 FoFCou: FMM=F IPFlag=           0 FMFlag=      100000 FMFlg1=           0
         NFxFlg=           0 DoJE=T BraDBF=F KetDBF=T FulRan=T
         wScrn=  0.000000 ICntrl=       500 IOpCl=  0 I1Cent=   200000004 NGrid=           0
         NMat0=    1 NMatS0=      1 NMatT0=    0 NMatD0=    1 NMtDS0=    0 NMtDT0=    0
 Petite list used in FoFCou.
 Harris En= -150.934122611890    
 JPrj=0 DoOrth=F DoCkMO=F.
 Leave Link  401 at Tue Mar 31 20:48:26 2020, MaxMem=  2147483648 cpu:               3.1 elap:               0.2
 (Enter /usr/local/g16/g16/l502.exe)
 Keep R1 ints in memory in canonical form, NReq=203133016.
 FoFCou: FMM=F IPFlag=           0 FMFlag=           0 FMFlg1=           0
         NFxFlg=           0 DoJE=F BraDBF=F KetDBF=F FulRan=T
         wScrn=  0.000000 ICntrl=       600 IOpCl=  0 I1Cent=           0 NGrid=           0
         NMat0=    1 NMatS0=  19503 NMatT0=    0 NMatD0=    1 NMtDS0=    0 NMtDT0=    0
 Symmetry not used in FoFCou.
 Two-electron integral symmetry not used.
 Closed shell SCF:
 Using DIIS extrapolation, IDIIS=  1040.
 NGot=  2147483648 LenX=  1957179903 LenY=  1957127021
 Requested convergence on RMS density matrix=1.00D-08 within 128 cycles.
 Requested convergence on MAX density matrix=1.00D-06.
 Requested convergence on             energy=1.00D-06.
 No special actions if energy rises.

 Cycle   1  Pass 1  IDiag  1:
 E= -150.772556824186    
 DIIS: error= 1.95D-02 at cycle   1 NSaved=   1.
 NSaved= 1 IEnMin= 1 EnMin= -150.772556824186     IErMin= 1 ErrMin= 1.95D-02
 ErrMax= 1.95D-02  0.00D+00 EMaxC= 1.00D-01 BMatC= 2.27D-01 BMatP= 2.27D-01
 IDIUse=3 WtCom= 8.05D-01 WtEn= 1.95D-01
 Coeff-Com:  0.100D+01
 Coeff-En:   0.100D+01
 Coeff:      0.100D+01
 Gap=     0.686 Goal=   None    Shift=    0.000
 GapD=    0.686 DampG=2.000 DampE=0.500 DampFc=1.0000 IDamp=-1.
 RMSDP=9.36D-04 MaxDP=2.92D-02              OVMax= 6.60D-02

 Cycle   2  Pass 1  IDiag  1:
 E= -150.824737099694     Delta-E=       -0.052180275507 Rises=F Damp=F
 DIIS: error= 6.81D-03 at cycle   2 NSaved=   2.
 NSaved= 2 IEnMin= 2 EnMin= -150.824737099694     IErMin= 2 ErrMin= 6.81D-03
 ErrMax= 6.81D-03  0.00D+00 EMaxC= 1.00D-01 BMatC= 1.52D-02 BMatP= 2.27D-01
 IDIUse=3 WtCom= 9.32D-01 WtEn= 6.81D-02
 Coeff-Com:  0.100D+00 0.900D+00
 Coeff-En:   0.000D+00 0.100D+01
 Coeff:      0.934D-01 0.907D+00
 Gap=     0.522 Goal=   None    Shift=    0.000
 RMSDP=4.60D-04 MaxDP=2.45D-02 DE=-5.22D-02 OVMax= 2.75D-02

 Cycle   3  Pass 1  IDiag  1:
 E= -150.832283262910     Delta-E=       -0.007546163216 Rises=F Damp=F
 DIIS: error= 2.70D-03 at cycle   3 NSaved=   3.
 NSaved= 3 IEnMin= 3 EnMin= -150.832283262910     IErMin= 3 ErrMin= 2.70D-03
 ErrMax= 2.70D-03  0.00D+00 EMaxC= 1.00D-01 BMatC= 2.15D-03 BMatP= 1.52D-02
 IDIUse=3 WtCom= 9.73D-01 WtEn= 2.70D-02
 Coeff-Com: -0.206D-01 0.252D+00 0.769D+00
 Coeff-En:   0.000D+00 0.000D+00 0.100D+01
 Coeff:     -0.200D-01 0.245D+00 0.775D+00
 Gap=     0.493 Goal=   None    Shift=    0.000
 RMSDP=1.02D-04 MaxDP=3.49D-03 DE=-7.55D-03 OVMax= 8.88D-03

 Cycle   4  Pass 1  IDiag  1:
 E= -150.833614553146     Delta-E=       -0.001331290236 Rises=F Damp=F
 DIIS: error= 2.73D-04 at cycle   4 NSaved=   4.
 NSaved= 4 IEnMin= 4 EnMin= -150.833614553146     IErMin= 4 ErrMin= 2.73D-04
 ErrMax= 2.73D-04  0.00D+00 EMaxC= 1.00D-01 BMatC= 1.44D-05 BMatP= 2.15D-03
 IDIUse=3 WtCom= 9.97D-01 WtEn= 2.73D-03
 Coeff-Com: -0.166D-02-0.112D-01 0.765D-02 0.101D+01
 Coeff-En:   0.000D+00 0.000D+00 0.000D+00 0.100D+01
 Coeff:     -0.166D-02-0.112D-01 0.763D-02 0.101D+01
 Gap=     0.495 Goal=   None    Shift=    0.000
 RMSDP=1.49D-05 MaxDP=3.82D-04 DE=-1.33D-03 OVMax= 1.32D-03

 Cycle   5  Pass 1  IDiag  1:
 E= -150.833634977101     Delta-E=       -0.000020423954 Rises=F Damp=F
 DIIS: error= 8.14D-05 at cycle   5 NSaved=   5.
 NSaved= 5 IEnMin= 5 EnMin= -150.833634977101     IErMin= 5 ErrMin= 8.14D-05
 ErrMax= 8.14D-05  0.00D+00 EMaxC= 1.00D-01 BMatC= 1.41D-06 BMatP= 1.44D-05
 IDIUse=1 WtCom= 1.00D+00 WtEn= 0.00D+00
 Coeff-Com:  0.163D-02-0.164D-01-0.571D-01-0.170D+00 0.124D+01
 Coeff:      0.163D-02-0.164D-01-0.571D-01-0.170D+00 0.124D+01
 Gap=     0.495 Goal=   None    Shift=    0.000
 RMSDP=8.22D-06 MaxDP=2.12D-04 DE=-2.04D-05 OVMax= 7.69D-04

 Cycle   6  Pass 1  IDiag  1:
 E= -150.833638357167     Delta-E=       -0.000003380066 Rises=F Damp=F
 DIIS: error= 1.58D-05 at cycle   6 NSaved=   6.
 NSaved= 6 IEnMin= 6 EnMin= -150.833638357167     IErMin= 6 ErrMin= 1.58D-05
 ErrMax= 1.58D-05  0.00D+00 EMaxC= 1.00D-01 BMatC= 6.79D-08 BMatP= 1.41D-06
 IDIUse=1 WtCom= 1.00D+00 WtEn= 0.00D+00
 Coeff-Com: -0.413D-03 0.526D-02 0.187D-01 0.221D-01-0.431D+00 0.139D+01
 Coeff:     -0.413D-03 0.526D-02 0.187D-01 0.221D-01-0.431D+00 0.139D+01
 Gap=     0.495 Goal=   None    Shift=    0.000
 RMSDP=2.32D-06 MaxDP=6.12D-05 DE=-3.38D-06 OVMax= 2.63D-04

 Cycle   7  Pass 1  IDiag  1:
 E= -150.833638573881     Delta-E=       -0.000000216714 Rises=F Damp=F
 DIIS: error= 5.09D-06 at cycle   7 NSaved=   7.
 NSaved= 7 IEnMin= 7 EnMin= -150.833638573881     IErMin= 7 ErrMin= 5.09D-06
 ErrMax= 5.09D-06  0.00D+00 EMaxC= 1.00D-01 BMatC= 5.14D-09 BMatP= 6.79D-08
 IDIUse=1 WtCom= 1.00D+00 WtEn= 0.00D+00
 Coeff-Com:  0.667D-04-0.103D-02-0.422D-02-0.232D-02 0.100D+00-0.481D+00
 Coeff-Com:  0.139D+01
 Coeff:      0.667D-04-0.103D-02-0.422D-02-0.232D-02 0.100D+00-0.481D+00
 Coeff:      0.139D+01
 Gap=     0.495 Goal=   None    Shift=    0.000
 RMSDP=7.26D-07 MaxDP=1.71D-05 DE=-2.17D-07 OVMax= 1.10D-04

 Cycle   8  Pass 1  IDiag  1:
 E= -150.833638596112     Delta-E=       -0.000000022231 Rises=F Damp=F
 DIIS: error= 2.71D-06 at cycle   8 NSaved=   8.
 NSaved= 8 IEnMin= 8 EnMin= -150.833638596112     IErMin= 8 ErrMin= 2.71D-06
 ErrMax= 2.71D-06  0.00D+00 EMaxC= 1.00D-01 BMatC= 1.16D-09 BMatP= 5.14D-09
 IDIUse=1 WtCom= 1.00D+00 WtEn= 0.00D+00
 Coeff-Com:  0.895D-05 0.551D-04 0.646D-03-0.350D-02-0.873D-02 0.172D+00
 Coeff-Com: -0.111D+01 0.195D+01
 Coeff:      0.895D-05 0.551D-04 0.646D-03-0.350D-02-0.873D-02 0.172D+00
 Coeff:     -0.111D+01 0.195D+01
 Gap=     0.495 Goal=   None    Shift=    0.000
 RMSDP=5.43D-07 MaxDP=1.41D-05 DE=-2.22D-08 OVMax= 8.90D-05

 Cycle   9  Pass 1  IDiag  1:
 E= -150.833638602972     Delta-E=       -0.000000006859 Rises=F Damp=F
 DIIS: error= 7.73D-07 at cycle   9 NSaved=   9.
 NSaved= 9 IEnMin= 9 EnMin= -150.833638602972     IErMin= 9 ErrMin= 7.73D-07
 ErrMax= 7.73D-07  0.00D+00 EMaxC= 1.00D-01 BMatC= 1.16D-10 BMatP= 1.16D-09
 IDIUse=1 WtCom= 1.00D+00 WtEn= 0.00D+00
 Coeff-Com: -0.113D-04 0.143D-03 0.547D-03 0.152D-02-0.163D-01 0.503D-01
 Coeff-Com: -0.389D-01-0.247D+00 0.125D+01
 Coeff:     -0.113D-04 0.143D-03 0.547D-03 0.152D-02-0.163D-01 0.503D-01
 Coeff:     -0.389D-01-0.247D+00 0.125D+01
 Gap=     0.495 Goal=   None    Shift=    0.000
 RMSDP=1.41D-07 MaxDP=3.46D-06 DE=-6.86D-09 OVMax= 2.26D-05

 Cycle  10  Pass 1  IDiag  1:
 E= -150.833638603461     Delta-E=       -0.000000000489 Rises=F Damp=F
 DIIS: error= 3.13D-07 at cycle  10 NSaved=  10.
 NSaved=10 IEnMin=10 EnMin= -150.833638603461     IErMin=10 ErrMin= 3.13D-07
 ErrMax= 3.13D-07  0.00D+00 EMaxC= 1.00D-01 BMatC= 2.96D-11 BMatP= 1.16D-10
 IDIUse=1 WtCom= 1.00D+00 WtEn= 0.00D+00
 Coeff-Com: -0.631D-05 0.445D-04 0.884D-04 0.154D-02-0.558D-02-0.119D-01
 Coeff-Com:  0.199D+00-0.467D+00 0.439D+00 0.845D+00
 Coeff:     -0.631D-05 0.445D-04 0.884D-04 0.154D-02-0.558D-02-0.119D-01
 Coeff:      0.199D+00-0.467D+00 0.439D+00 0.845D+00
 Gap=     0.495 Goal=   None    Shift=    0.000
 RMSDP=4.47D-08 MaxDP=1.03D-06 DE=-4.89D-10 OVMax= 6.76D-06

 Cycle  11  Pass 1  IDiag  1:
 E= -150.833638603517     Delta-E=       -0.000000000056 Rises=F Damp=F
 DIIS: error= 6.35D-08 at cycle  11 NSaved=  11.
 NSaved=11 IEnMin=11 EnMin= -150.833638603517     IErMin=11 ErrMin= 6.35D-08
 ErrMax= 6.35D-08  0.00D+00 EMaxC= 1.00D-01 BMatC= 1.37D-12 BMatP= 2.96D-11
 IDIUse=1 WtCom= 1.00D+00 WtEn= 0.00D+00
 Coeff-Com:  0.150D-05-0.196D-04-0.700D-04-0.874D-04 0.172D-02-0.458D-02
 Coeff-Com: -0.553D-02 0.493D-01-0.167D+00 0.197D-02 0.112D+01
 Coeff:      0.150D-05-0.196D-04-0.700D-04-0.874D-04 0.172D-02-0.458D-02
 Coeff:     -0.553D-02 0.493D-01-0.167D+00 0.197D-02 0.112D+01
 Gap=     0.495 Goal=   None    Shift=    0.000
 RMSDP=1.01D-08 MaxDP=2.11D-07 DE=-5.65D-11 OVMax= 1.31D-06

 Cycle  12  Pass 1  IDiag  1:
 E= -150.833638603520     Delta-E=       -0.000000000003 Rises=F Damp=F
 DIIS: error= 9.63D-09 at cycle  12 NSaved=  12.
 NSaved=12 IEnMin=12 EnMin= -150.833638603520     IErMin=12 ErrMin= 9.63D-09
 ErrMax= 9.63D-09  0.00D+00 EMaxC= 1.00D-01 BMatC= 2.29D-14 BMatP= 1.37D-12
 IDIUse=1 WtCom= 1.00D+00 WtEn= 0.00D+00
 Coeff-Com: -0.704D-07 0.188D-05 0.101D-04-0.181D-04-0.183D-03 0.115D-02
 Coeff-Com: -0.487D-02 0.524D-02 0.119D-01-0.252D-01-0.178D+00 0.119D+01
 Coeff:     -0.704D-07 0.188D-05 0.101D-04-0.181D-04-0.183D-03 0.115D-02
 Coeff:     -0.487D-02 0.524D-02 0.119D-01-0.252D-01-0.178D+00 0.119D+01
 Gap=     0.495 Goal=   None    Shift=    0.000
 RMSDP=1.60D-09 MaxDP=2.80D-08 DE=-2.64D-12 OVMax= 1.89D-07

 SCF Done:  E(RHF) =  -150.833638604     A.U. after   12 cycles
            NFock= 12  Conv=0.16D-08     -V/T= 2.0021
 KE= 1.505162964524D+02 PE=-4.314497225446D+02 EE= 9.349622725690D+01
 Leave Link  502 at Tue Mar 31 20:48:30 2020, MaxMem=  2147483648 cpu:              26.7 elap:               3.4
 (Enter /usr/local/g16/g16/l801.exe)
 Windowed orbitals will be sorted by symmetry type.
 ExpMin= 2.53D-02 ExpMax= 1.17D+07 ExpMxC= 1.33D+04 IAcc=3 IRadAn=         5 AccDes= 0.00D+00
 HarFok:  IExCor=  205 AccDes= 0.00D+00 IRadAn=         5 IDoV=-2 UseB2=F ITyADJ=14
 ICtDFT= 12500011 ScaDFX=  1.000000  1.000000  1.000000  1.000000
 Largest valence mixing into a core orbital is  1.19D-04
 Largest core mixing into a valence orbital is  2.02D-05
 Range of M.O.s used for correlation:     3   197
 NBasis=   197 NAE=     9 NBE=     9 NFC=     2 NFV=     0
 NROrb=    195 NOA=     7 NOB=     7 NVA=   188 NVB=   188

 **** Warning!!: The largest alpha MO coefficient is  0.14507342D+02

 Leave Link  801 at Tue Mar 31 20:48:30 2020, MaxMem=  2147483648 cpu:               0.6 elap:               0.0
 (Enter /usr/local/g16/g16/l804.exe)
 Closed-shell transformation, MDV=  2147483648 ITran=4 ISComp=1.
 Semi-Direct transformation.
 ModeAB=           2 MOrb=             7 LenV=    2146282435
 LASXX=     25261509 LTotXX=    25261509 LenRXX=    25261509
 LTotAB=    25646992 MaxLAS=    35947275 LenRXY=    35947275
 NonZer=    50523018 LenScr=    76544000 LnRSAI=           0
 LnScr1=           0 LExtra=           0 Total=    137752784
 MaxDsk=          -1 SrtSym=           F ITran=            4
 DoSDTr:  NPSUse= 16
 JobTyp=0 Pass  1:  I=   1 to   7.
 (rs|ai) integrals will be sorted in core.
 Complete sort for first half transformation.
 First half transformation complete.
 Complete sort for second half transformation.
 Second half transformation complete.
 SymMOI:  orbitals are not symmetric.
 Spin components of T(2) and E(2):
     alpha-alpha T2 =       0.1592228208D-01 E2=     -0.6270111059D-01
     alpha-beta  T2 =       0.9294214104D-01 E2=     -0.3814980784D+00
     beta-beta   T2 =       0.1592228208D-01 E2=     -0.6270111059D-01
 ANorm=    0.1060559619D+01
 E2 =    -0.5069002996D+00 EUMP2 =    -0.15134053890308D+03
 Leave Link  804 at Tue Mar 31 20:48:37 2020, MaxMem=  2147483648 cpu:             117.4 elap:               7.3
 (Enter /usr/local/g16/g16/l913.exe)
 CIDS:  MDV=  2147483648.
 Frozen-core window:  NFC=   2 NFV=   0.
 IFCWin=0 IBDFC=1 NFBD=     0     0 NFCmp=     0     0 NFFFC=     0     0
 Using DD3R+UMP44R for 1st iteration.
 Using DD4RQ for 2nd and later iterations.
 Keep R2 and R3 ints in memory in canonical form, NReq=393331693.
 FoFCou: FMM=F IPFlag=           0 FMFlag=           0 FMFlg1=           0
         NFxFlg=           0 DoJE=F BraDBF=F KetDBF=F FulRan=T
         wScrn=  0.000000 ICntrl=       600 IOpCl=  0 I1Cent=           0 NGrid=           0
         NMat0=    1 NMatS0=  19503 NMatT0=    0 NMatD0=    1 NMtDS0=    0 NMtDT0=    0
 Symmetry not used in FoFCou.
 Two-electron integral symmetry not used.
 CIDS: In Core Option IDoMem=           1.
 MP4(SDTQ)
 =========
 Produce multiple copies of IABC intergrals
 DD1Dir will call FoFMem   1 times, MxPair=        56
 NAB=    28 NAA=     0 NBB=     0.
 MP4(D)= -0.11242193D-01
 MP4(S)= -0.51427685D-02
 MP4(R+Q)=  0.10709513D-01
 T4(AAA)= -0.65287050D-03
 T4(AAB)= -0.10200890D-01
 Time for triples=      370.32 seconds.
 MP4(T)=   -0.21707520D-01
 E3=       -0.22570322D-02        EUMP3=      -0.15134279594D+03
 E4(DQ)=   -0.53268013D-03        UMP4(DQ)=   -0.15134332862D+03
 E4(SDQ)=  -0.56754486D-02        UMP4(SDQ)=  -0.15134847138D+03
 E4(SDTQ)= -0.27382969D-01        UMP4(SDTQ)= -0.15137017890D+03
 VARIATIONAL ENERGIES WITH THE FIRST-ORDER WAVEFUNCTION:
 E(VAR1)=  -0.15128630872D+03     E(CISD,4)=  -0.15129592648D+03
 Largest amplitude= 1.57D-02
 Discarding MO integrals.
 Leave Link  913 at Tue Mar 31 20:49:04 2020, MaxMem=  2147483648 cpu:             427.2 elap:              26.7
 (Enter /usr/local/g16/g16/l601.exe)
 Copying SCF densities to generalized density rwf, IOpCl= 0 IROHF=0.

 **********************************************************************

            Population analysis using the SCF density.

 **********************************************************************

 Orbital symmetries:
       Occupied  (A) (A) (A) (A) (A) (A) (A) (A) (A)
       Virtual   (A) (A) (A) (A) (A) (A) (A) (A) (A) (A) (A) (A)
                 (A) (A) (A) (A) (A) (A) (A) (A) (A) (A) (A) (A)
                 (A) (A) (A) (A) (A) (A) (A) (A) (A) (A) (A) (A)
                 (A) (A) (A) (A) (A) (A) (A) (A) (A) (A) (A) (A)
                 (A) (A) (A) (A) (A) (A) (A) (A) (A) (A) (A) (A)
                 (A) (A) (A) (A) (A) (A) (A) (A) (A) (A) (A) (A)
                 (A) (A) (A) (A) (A) (A) (A) (A) (A) (A) (A) (A)
                 (A) (A) (A) (A) (A) (A) (A) (A) (A) (A) (A) (A)
                 (A) (A) (A) (A) (A) (A) (A) (A) (A) (A) (A) (A)
                 (A) (A) (A) (A) (A) (A) (A) (A) (A) (A) (A) (A)
                 (A) (A) (A) (A) (A) (A) (A) (A) (A) (A) (A) (A)
                 (A) (A) (A) (A) (A) (A) (A) (A) (A) (A) (A) (A)
                 (A) (A) (A) (A) (A) (A) (A) (A) (A) (A) (A) (A)
                 (A) (A) (A) (A) (A) (A) (A) (A) (A) (A) (A) (A)
                 (A) (A) (A) (A) (A) (A) (A) (A) (A) (A) (A) (A)
                 (A) (A) (A) (A) (A) (A) (A) (A)
 The electronic state is 1-A.
 Alpha  occ. eigenvalues --  -20.62985 -20.62957  -1.46657  -1.21858  -0.70928
 Alpha  occ. eigenvalues --   -0.70689  -0.62059  -0.52506  -0.46409
 Alpha virt. eigenvalues --    0.03090   0.03923   0.07460   0.08946   0.10315
 Alpha virt. eigenvalues --    0.11495   0.13266   0.15272   0.17399   0.17447
 Alpha virt. eigenvalues --    0.19762   0.21009   0.24244   0.26489   0.27190
 Alpha virt. eigenvalues --    0.28734   0.31323   0.32393   0.32961   0.34422
 Alpha virt. eigenvalues --    0.36577   0.38664   0.39352   0.41536   0.43178
 Alpha virt. eigenvalues --    0.43582   0.45258   0.49187   0.49799   0.51358
 Alpha virt. eigenvalues --    0.56901   0.59180   0.64216   0.68950   0.72940
 Alpha virt. eigenvalues --    0.74942   0.78775   0.79369   0.80016   0.80936
 Alpha virt. eigenvalues --    0.83442   0.86897   0.90524   0.93258   0.94987
 Alpha virt. eigenvalues --    0.95666   0.98569   0.99166   1.02389   1.03045
 Alpha virt. eigenvalues --    1.04781   1.08279   1.09872   1.13418   1.14338
 Alpha virt. eigenvalues --    1.15681   1.18973   1.19472   1.26239   1.27807
 Alpha virt. eigenvalues --    1.29118   1.32768   1.32982   1.34238   1.35098
 Alpha virt. eigenvalues --    1.36098   1.37498   1.38104   1.40959   1.46375
 Alpha virt. eigenvalues --    1.51433   1.54193   1.59175   1.60252   1.60593
 Alpha virt. eigenvalues --    1.64365   1.69762   1.73934   1.77212   1.88015
 Alpha virt. eigenvalues --    1.92897   1.96961   1.99341   2.09847   2.16056
 Alpha virt. eigenvalues --    2.18061   2.21547   2.29833   2.31401   2.36584
 Alpha virt. eigenvalues --    2.40803   2.42178   2.46879   2.49992   2.58665
 Alpha virt. eigenvalues --    2.62950   2.68319   2.70040   2.74215   2.81006
 Alpha virt. eigenvalues --    2.85475   2.87809   2.95201   3.05831   3.09008
 Alpha virt. eigenvalues --    3.25278   3.26069   3.27383   3.28098   3.33189
 Alpha virt. eigenvalues --    3.44877   3.58015   3.73440   3.79053   3.79590
 Alpha virt. eigenvalues --    3.82378   3.82705   3.83684   3.84122   3.89148
 Alpha virt. eigenvalues --    3.92156   3.92691   3.97931   4.00600   4.05309
 Alpha virt. eigenvalues --    4.14383   4.17472   4.20485   4.26488   4.30030
 Alpha virt. eigenvalues --    4.37094   4.41758   4.44451   4.49882   4.51628
 Alpha virt. eigenvalues --    4.65150   4.74202   4.79165   5.04096   5.18699
 Alpha virt. eigenvalues --    5.24502   5.26937   5.33784   5.37941   5.59404
 Alpha virt. eigenvalues --    5.80330   6.16100   6.35040   6.40949   6.45051
 Alpha virt. eigenvalues --    6.67473   6.67942   6.75039   6.85020   7.04007
 Alpha virt. eigenvalues --    7.12103   7.12499   7.20965   7.21532   7.23134
 Alpha virt. eigenvalues --    7.29625   7.31573   7.33240   7.39509   7.41333
 Alpha virt. eigenvalues --    7.61845   7.63215   7.76047   8.07650   8.22654
 Alpha virt. eigenvalues --    8.47767   8.53259  10.88770  14.68106  14.83591
 Alpha virt. eigenvalues --   14.88224  15.06774  15.30199  29.03295  29.03816
 Alpha virt. eigenvalues --   29.08218  29.13826  29.23392  49.10236 148.31653
 Alpha virt. eigenvalues --  148.39094 148.71915 752.48554
          Condensed to atoms (all electrons):
               1          2          3          4          5
     1  O    8.096215  -0.061993   0.246575  -0.016718  -0.001815
     2  O   -0.061993   8.109757  -0.004544   0.254823  -0.000865
     3  H    0.246575  -0.004544   0.486781   0.005376   0.000394
     4  H   -0.016718   0.254823   0.005376   0.471014  -0.003833
     5  Kr  -0.001815  -0.000865   0.000394  -0.003833   0.001431
 Mulliken charges:
               1
     1  O   -0.262264
     2  O   -0.297179
     3  H    0.265418
     4  H    0.289337
     5  Kr   0.004686
 Sum of Mulliken charges =  -0.00000
 Mulliken charges with hydrogens summed into heavy atoms:
               1
     1  O    0.003155
     2  O   -0.007841
     5  Kr   0.004686
         Mulliken charges condensed to fragments:
      1     -0.004686
      2      0.004686
 Electronic spatial extent (au):  <R**2>=            323.7349
 Charge=             -0.0000 electrons
 Dipole moment (field-independent basis, Debye):
    X=             -0.2164    Y=             -0.0403    Z=              0.8462  Tot=              0.8743
 Quadrupole moment (field-independent basis, Debye-Ang):
   XX=             -9.6038   YY=            -10.5507   ZZ=            -12.4928
   XY=             -4.0530   XZ=              2.4971   YZ=             -0.8806
 Traceless Quadrupole moment (field-independent basis, Debye-Ang):
   XX=              1.2786   YY=              0.3318   ZZ=             -1.6104
   XY=             -4.0530   XZ=              2.4971   YZ=             -0.8806
 Octapole moment (field-independent basis, Debye-Ang**2):
  XXX=            -55.5470  YYY=             -1.2908  ZZZ=              0.5905  XYY=            -21.5224
  XXY=            -15.8639  XXZ=              7.4120  XZZ=            -24.6874  YZZ=             -0.8527
  YYZ=              1.1084  XYZ=             -2.6484
 Hexadecapole moment (field-independent basis, Debye-Ang**3):
 XXXX=           -230.3509 YYYY=            -44.6947 ZZZZ=            -10.6911 XXXY=            -48.0115
 XXXZ=             21.6322 YYYX=             -5.2231 YYYZ=             -1.1270 ZZZX=              1.1335
 ZZZY=             -0.5756 XXYY=            -50.9472 XXZZ=            -52.4461 YYZZ=            -10.7183
 XXYZ=             -7.7931 YYXZ=              2.9163 ZZXY=             -1.1820
 N-N= 3.660356023178D+01 E-N=-4.314497229017D+02  KE= 1.505162964524D+02
 Leave Link  601 at Tue Mar 31 20:49:04 2020, MaxMem=  2147483648 cpu:               0.5 elap:               0.0
 (Enter /usr/local/g16/g16/l122.exe)
 CPIOFr:  IOpCl= 0 IRwI=-1 IRwCP=  731 ICalc=  1 LCPTot=       59414 Len1MO=      159453 IndFrg=      378320
 Counterpoise: doing calculation for fragment   2 using the basis set of the full-system, NewBq=T
 Leave Link  122 at Tue Mar 31 20:49:04 2020, MaxMem=  2147483648 cpu:               0.0 elap:               0.0
 (Enter /usr/local/g16/g16/l301.exe)
 Basis read from rwf:  (5D, 7F)
 No pseudopotential information found on rwf file.
 There are   229 symmetry adapted cartesian basis functions of A   symmetry.
 There are   197 symmetry adapted basis functions of A   symmetry.
   197 basis functions,   415 primitive gaussians,   229 cartesian basis functions
    18 alpha electrons       18 beta electrons
       nuclear repulsion energy         0.0000000000 Hartrees.
 IExCor=    0 DFT=F Ex=HF Corr=None ExCW=0 ScaHFX=  1.000000
 ScaDFX=  1.000000  1.000000  1.000000  1.000000 ScalE2=  1.000000  1.000000
 IRadAn=      5 IRanWt=     -1 IRanGd=            0 ICorTp=0 IEmpDi=  4
 NAtoms=    5 NActive=    5 NUniq=    5 SFac= 1.00D+00 NAtFMM=   60 NAOKFM=F Big=F
 Integral buffers will be    131072 words long.
 Raffenetti 1 integral format.
 Two-electron integral symmetry is turned on.
 No density basis found on file   718.
 Leave Link  301 at Tue Mar 31 20:49:04 2020, MaxMem=  2147483648 cpu:               0.4 elap:               0.0
 (Enter /usr/local/g16/g16/l302.exe)
 NPDir=0 NMtPBC=     1 NCelOv=     1 NCel=       1 NClECP=     1 NCelD=      1
         NCelK=      1 NCelE2=     1 NClLst=     1 CellRange=     0.0.
 One-electron integrals computed using PRISM.
 One-electron integral symmetry used in STVInt
 NBasis=   197 RedAO= T EigKep=  2.03D-04  NBF=   197
 NBsUse=   197 1.00D-06 EigRej= -1.00D+00 NBFU=   197
 Leave Link  302 at Tue Mar 31 20:49:04 2020, MaxMem=  2147483648 cpu:               1.7 elap:               0.1
 (Enter /usr/local/g16/g16/l303.exe)
 DipDrv:  MaxL=1.
 Leave Link  303 at Tue Mar 31 20:49:04 2020, MaxMem=  2147483648 cpu:               0.4 elap:               0.0
 (Enter /usr/local/g16/g16/l401.exe)
 ExpMin= 2.53D-02 ExpMax= 1.17D+07 ExpMxC= 1.33D+04 IAcc=3 IRadAn=         5 AccDes= 0.00D+00
 Harris functional with IExCor=  205 and IRadAn=       5 diagonalized for initial guess.
 HarFok:  IExCor=  205 AccDes= 0.00D+00 IRadAn=         5 IDoV= 1 UseB2=F ITyADJ=14
 ICtDFT=  3500011 ScaDFX=  1.000000  1.000000  1.000000  1.000000
 FoFCou: FMM=F IPFlag=           0 FMFlag=      100000 FMFlg1=           0
         NFxFlg=           0 DoJE=T BraDBF=F KetDBF=T FulRan=T
         wScrn=  0.000000 ICntrl=       500 IOpCl=  0 I1Cent=   200000004 NGrid=           0
         NMat0=    1 NMatS0=      1 NMatT0=    0 NMatD0=    1 NMtDS0=    0 NMtDT0=    0
 Petite list used in FoFCou.
 Harris En= -2751.06002563154    
 JPrj=0 DoOrth=F DoCkMO=F.
 Leave Link  401 at Tue Mar 31 20:49:04 2020, MaxMem=  2147483648 cpu:               2.9 elap:               0.2
 (Enter /usr/local/g16/g16/l502.exe)
 Keep R1 ints in memory in canonical form, NReq=203133016.
 FoFCou: FMM=F IPFlag=           0 FMFlag=           0 FMFlg1=           0
         NFxFlg=           0 DoJE=F BraDBF=F KetDBF=F FulRan=T
         wScrn=  0.000000 ICntrl=       600 IOpCl=  0 I1Cent=           0 NGrid=           0
         NMat0=    1 NMatS0=  19503 NMatT0=    0 NMatD0=    1 NMtDS0=    0 NMtDT0=    0
 Symmetry not used in FoFCou.
 Two-electron integral symmetry not used.
 Closed shell SCF:
 Using DIIS extrapolation, IDIIS=  1040.
 NGot=  2147483648 LenX=  1957179903 LenY=  1957127021
 Requested convergence on RMS density matrix=1.00D-08 within 128 cycles.
 Requested convergence on MAX density matrix=1.00D-06.
 Requested convergence on             energy=1.00D-06.
 No special actions if energy rises.

 Cycle   1  Pass 1  IDiag  1:
 E= -2752.00363800628    
 DIIS: error= 3.31D-02 at cycle   1 NSaved=   1.
 NSaved= 1 IEnMin= 1 EnMin= -2752.00363800628     IErMin= 1 ErrMin= 3.31D-02
 ErrMax= 3.31D-02  0.00D+00 EMaxC= 1.00D-01 BMatC= 4.28D-01 BMatP= 4.28D-01
 IDIUse=3 WtCom= 6.69D-01 WtEn= 3.31D-01
 Coeff-Com:  0.100D+01
 Coeff-En:   0.100D+01
 Coeff:      0.100D+01
 Gap=     0.630 Goal=   None    Shift=    0.000
 GapD=    0.630 DampG=2.000 DampE=0.500 DampFc=1.0000 IDamp=-1.
 RMSDP=1.74D-03 MaxDP=1.29D-01              OVMax= 2.38D-02

 Cycle   2  Pass 1  IDiag  1:
 E= -2752.04698462809     Delta-E=       -0.043346621813 Rises=F Damp=F
 DIIS: error= 5.69D-03 at cycle   2 NSaved=   2.
 NSaved= 2 IEnMin= 2 EnMin= -2752.04698462809     IErMin= 2 ErrMin= 5.69D-03
 ErrMax= 5.69D-03  0.00D+00 EMaxC= 1.00D-01 BMatC= 1.97D-02 BMatP= 4.28D-01
 IDIUse=3 WtCom= 9.43D-01 WtEn= 5.69D-02
 Coeff-Com:  0.152D+00 0.848D+00
 Coeff-En:   0.000D+00 0.100D+01
 Coeff:      0.143D+00 0.857D+00
 Gap=     0.543 Goal=   None    Shift=    0.000
 RMSDP=5.67D-04 MaxDP=3.47D-02 DE=-4.33D-02 OVMax= 1.31D-02

 Cycle   3  Pass 1  IDiag  1:
 E= -2752.05206102820     Delta-E=       -0.005076400103 Rises=F Damp=F
 DIIS: error= 1.14D-03 at cycle   3 NSaved=   3.
 NSaved= 3 IEnMin= 3 EnMin= -2752.05206102820     IErMin= 3 ErrMin= 1.14D-03
 ErrMax= 1.14D-03  0.00D+00 EMaxC= 1.00D-01 BMatC= 6.87D-04 BMatP= 1.97D-02
 IDIUse=3 WtCom= 9.89D-01 WtEn= 1.14D-02
 Coeff-Com: -0.128D-02 0.153D+00 0.849D+00
 Coeff-En:   0.000D+00 0.000D+00 0.100D+01
 Coeff:     -0.126D-02 0.151D+00 0.850D+00
 Gap=     0.554 Goal=   None    Shift=    0.000
 RMSDP=7.31D-05 MaxDP=4.26D-03 DE=-5.08D-03 OVMax= 2.85D-03

 Cycle   4  Pass 1  IDiag  1:
 E= -2752.05226559335     Delta-E=       -0.000204565153 Rises=F Damp=F
 DIIS: error= 3.12D-05 at cycle   4 NSaved=   4.
 NSaved= 4 IEnMin= 4 EnMin= -2752.05226559335     IErMin= 4 ErrMin= 3.12D-05
 ErrMax= 3.12D-05  0.00D+00 EMaxC= 1.00D-01 BMatC= 6.92D-07 BMatP= 6.87D-04
 IDIUse=1 WtCom= 1.00D+00 WtEn= 0.00D+00
 Coeff-Com: -0.366D-03-0.174D-01-0.599D-01 0.108D+01
 Coeff:     -0.366D-03-0.174D-01-0.599D-01 0.108D+01
 Gap=     0.554 Goal=   None    Shift=    0.000
 RMSDP=6.06D-06 MaxDP=2.86D-04 DE=-2.05D-04 OVMax= 2.69D-04

 Cycle   5  Pass 1  IDiag  1:
 E= -2752.05226601860     Delta-E=       -0.000000425250 Rises=F Damp=F
 DIIS: error= 3.33D-06 at cycle   5 NSaved=   5.
 NSaved= 5 IEnMin= 5 EnMin= -2752.05226601860     IErMin= 5 ErrMin= 3.33D-06
 ErrMax= 3.33D-06  0.00D+00 EMaxC= 1.00D-01 BMatC= 6.02D-09 BMatP= 6.92D-07
 IDIUse=1 WtCom= 1.00D+00 WtEn= 0.00D+00
 Coeff-Com:  0.615D-04 0.246D-04-0.513D-02-0.847D-01 0.109D+01
 Coeff:      0.615D-04 0.246D-04-0.513D-02-0.847D-01 0.109D+01
 Gap=     0.554 Goal=   None    Shift=    0.000
 RMSDP=6.61D-07 MaxDP=2.87D-05 DE=-4.25D-07 OVMax= 2.77D-05

 Cycle   6  Pass 1  IDiag  1:
 E= -2752.05226602442     Delta-E=       -0.000000005820 Rises=F Damp=F
 DIIS: error= 3.28D-07 at cycle   6 NSaved=   6.
 NSaved= 6 IEnMin= 6 EnMin= -2752.05226602442     IErMin= 6 ErrMin= 3.28D-07
 ErrMax= 3.28D-07  0.00D+00 EMaxC= 1.00D-01 BMatC= 4.07D-11 BMatP= 6.02D-09
 IDIUse=1 WtCom= 1.00D+00 WtEn= 0.00D+00
 Coeff-Com: -0.301D-05 0.958D-04 0.869D-03-0.185D-02-0.934D-01 0.109D+01
 Coeff:     -0.301D-05 0.958D-04 0.869D-03-0.185D-02-0.934D-01 0.109D+01
 Gap=     0.554 Goal=   None    Shift=    0.000
 RMSDP=6.67D-08 MaxDP=3.79D-06 DE=-5.82D-09 OVMax= 3.31D-06

 Cycle   7  Pass 1  IDiag  1:
 E= -2752.05226602446     Delta-E=       -0.000000000045 Rises=F Damp=F
 DIIS: error= 1.73D-08 at cycle   7 NSaved=   7.
 NSaved= 7 IEnMin= 7 EnMin= -2752.05226602446     IErMin= 7 ErrMin= 1.73D-08
 ErrMax= 1.73D-08  0.00D+00 EMaxC= 1.00D-01 BMatC= 1.40D-13 BMatP= 4.07D-11
 IDIUse=1 WtCom= 1.00D+00 WtEn= 0.00D+00
 Coeff-Com:  0.667D-07-0.400D-05-0.364D-04 0.236D-03 0.323D-02-0.678D-01
 Coeff-Com:  0.106D+01
 Coeff:      0.667D-07-0.400D-05-0.364D-04 0.236D-03 0.323D-02-0.678D-01
 Coeff:      0.106D+01
 Gap=     0.554 Goal=   None    Shift=    0.000
 RMSDP=5.92D-09 MaxDP=2.04D-07 DE=-4.50D-11 OVMax= 2.34D-07

 SCF Done:  E(RHF) =  -2752.05226602     A.U. after    7 cycles
            NFock=  7  Conv=0.59D-08     -V/T= 2.0000
 KE= 2.752039735625D+03 PE=-6.582554744642D+03 EE= 1.078462742992D+03
 Leave Link  502 at Tue Mar 31 20:49:07 2020, MaxMem=  2147483648 cpu:              24.9 elap:               2.6
 (Enter /usr/local/g16/g16/l801.exe)
 Windowed orbitals will be sorted by symmetry type.
 ExpMin= 2.53D-02 ExpMax= 1.17D+07 ExpMxC= 1.33D+04 IAcc=3 IRadAn=         5 AccDes= 0.00D+00
 HarFok:  IExCor=  205 AccDes= 0.00D+00 IRadAn=         5 IDoV=-2 UseB2=F ITyADJ=14
 ICtDFT= 12500011 ScaDFX=  1.000000  1.000000  1.000000  1.000000
 Largest valence mixing into a core orbital is  9.81D-05
 Largest core mixing into a valence orbital is  3.83D-05
 Range of M.O.s used for correlation:    10   197
 NBasis=   197 NAE=    18 NBE=    18 NFC=     9 NFV=     0
 NROrb=    188 NOA=     9 NOB=     9 NVA=   179 NVB=   179

 **** Warning!!: The largest alpha MO coefficient is  0.12938217D+02

 Leave Link  801 at Tue Mar 31 20:49:07 2020, MaxMem=  2147483648 cpu:               0.6 elap:               0.0
 (Enter /usr/local/g16/g16/l804.exe)
 Closed-shell transformation, MDV=  2147483648 ITran=4 ISComp=1.
 Semi-Direct transformation.
 ModeAB=           2 MOrb=             9 LenV=    2146336926
 LASXX=     28892340 LTotXX=    28892340 LenRXX=    28892340
 LTotAB=    29348001 MaxLAS=    44558820 LenRXY=    44558820
 NonZer=    57784680 LenScr=    87449600 LnRSAI=           0
 LnScr1=           0 LExtra=           0 Total=    160900760
 MaxDsk=          -1 SrtSym=           F ITran=            4
 DoSDTr:  NPSUse= 16
 JobTyp=0 Pass  1:  I=   1 to   9.
 (rs|ai) integrals will be sorted in core.
 Complete sort for first half transformation.
 First half transformation complete.
 Complete sort for second half transformation.
 Second half transformation complete.
 SymMOI:  orbitals are not symmetric.
 Spin components of T(2) and E(2):
     alpha-alpha T2 =       0.9502483746D-02 E2=     -0.3580197907D-01
     alpha-beta  T2 =       0.4817620624D-01 E2=     -0.1723075242D+00
     beta-beta   T2 =       0.9502483746D-02 E2=     -0.3580197907D-01
 ANorm=    0.1033044614D+01
 E2 =    -0.2439114823D+00 EUMP2 =    -0.27522961775068D+04
 Leave Link  804 at Tue Mar 31 20:49:15 2020, MaxMem=  2147483648 cpu:             125.6 elap:               7.9
 (Enter /usr/local/g16/g16/l913.exe)
 CIDS:  MDV=  2147483648.
 Frozen-core window:  NFC=   9 NFV=   0.
 IFCWin=0 IBDFC=1 NFBD=     0     0 NFCmp=     0     0 NFFFC=     0     0
 Using DD3R+UMP44R for 1st iteration.
 Using DD4RQ for 2nd and later iterations.
 Keep R2 and R3 ints in memory in canonical form, NReq=393332283.
 FoFCou: FMM=F IPFlag=           0 FMFlag=           0 FMFlg1=           0
         NFxFlg=           0 DoJE=F BraDBF=F KetDBF=F FulRan=T
         wScrn=  0.000000 ICntrl=       600 IOpCl=  0 I1Cent=           0 NGrid=           0
         NMat0=    1 NMatS0=  19503 NMatT0=    0 NMatD0=    1 NMtDS0=    0 NMtDT0=    0
 Symmetry not used in FoFCou.
 Two-electron integral symmetry not used.
 CIDS: In Core Option IDoMem=           1.
 MP4(SDTQ)
 =========
 Produce multiple copies of IABC intergrals
 DD1Dir will call FoFMem   1 times, MxPair=        90
 NAB=    45 NAA=     0 NBB=     0.
 MP4(D)= -0.37206160D-02
 MP4(S)= -0.10892267D-02
 MP4(R+Q)=  0.42466202D-02
 T4(AAA)= -0.32561206D-03
 T4(AAB)= -0.35627214D-02
 Time for triples=      474.49 seconds.
 MP4(T)=   -0.77766670D-02
 E3=       -0.98646211D-02        EUMP3=      -0.27523060421D+04
 E4(DQ)=    0.52600423D-03        UMP4(DQ)=   -0.27523055161D+04
 E4(SDQ)=  -0.56322251D-03        UMP4(SDQ)=  -0.27523066054D+04
 E4(SDTQ)= -0.83398895D-02        UMP4(SDTQ)= -0.27523143820D+04
 VARIATIONAL ENERGIES WITH THE FIRST-ORDER WAVEFUNCTION:
 E(VAR1)=  -0.27522900664D+04     E(CISD,4)=  -0.27522944657D+04
 Largest amplitude= 1.51D-02
 Discarding MO integrals.
 Leave Link  913 at Tue Mar 31 20:49:49 2020, MaxMem=  2147483648 cpu:             539.3 elap:              33.7
 (Enter /usr/local/g16/g16/l601.exe)
 Copying SCF densities to generalized density rwf, IOpCl= 0 IROHF=0.

 **********************************************************************

            Population analysis using the SCF density.

 **********************************************************************

 Orbital symmetries:
       Occupied  (A) (A) (A) (A) (A) (A) (A) (A) (A) (A) (A) (A)
                 (A) (A) (A) (A) (A) (A)
       Virtual   (A) (A) (A) (A) (A) (A) (A) (A) (A) (A) (A) (A)
                 (A) (A) (A) (A) (A) (A) (A) (A) (A) (A) (A) (A)
                 (A) (A) (A) (A) (A) (A) (A) (A) (A) (A) (A) (A)
                 (A) (A) (A) (A) (A) (A) (A) (A) (A) (A) (A) (A)
                 (A) (A) (A) (A) (A) (A) (A) (A) (A) (A) (A) (A)
                 (A) (A) (A) (A) (A) (A) (A) (A) (A) (A) (A) (A)
                 (A) (A) (A) (A) (A) (A) (A) (A) (A) (A) (A) (A)
                 (A) (A) (A) (A) (A) (A) (A) (A) (A) (A) (A) (A)
                 (A) (A) (A) (A) (A) (A) (A) (A) (A) (A) (A) (A)
                 (A) (A) (A) (A) (A) (A) (A) (A) (A) (A) (A) (A)
                 (A) (A) (A) (A) (A) (A) (A) (A) (A) (A) (A) (A)
                 (A) (A) (A) (A) (A) (A) (A) (A) (A) (A) (A) (A)
                 (A) (A) (A) (A) (A) (A) (A) (A) (A) (A) (A) (A)
                 (A) (A) (A) (A) (A) (A) (A) (A) (A) (A) (A) (A)
                 (A) (A) (A) (A) (A) (A) (A) (A) (A) (A) (A)
 The electronic state is 1-A.
 Alpha  occ. eigenvalues -- -520.16580 -69.90314 -63.00972 -63.00972 -63.00971
 Alpha  occ. eigenvalues --  -10.84954  -8.33154  -8.33154  -8.33153  -3.82531
 Alpha  occ. eigenvalues --   -3.82531  -3.82531  -3.82530  -3.82529  -1.15311
 Alpha  occ. eigenvalues --   -0.52431  -0.52429  -0.52429
 Alpha virt. eigenvalues --    0.02931   0.04922   0.08563   0.09857   0.11172
 Alpha virt. eigenvalues --    0.12330   0.13220   0.14421   0.16785   0.17322
 Alpha virt. eigenvalues --    0.17821   0.19924   0.21721   0.26963   0.28259
 Alpha virt. eigenvalues --    0.29178   0.29795   0.33760   0.34755   0.36517
 Alpha virt. eigenvalues --    0.37709   0.38009   0.38275   0.40888   0.42568
 Alpha virt. eigenvalues --    0.43594   0.45187   0.57173   0.58058   0.59023
 Alpha virt. eigenvalues --    0.61721   0.66926   0.67771   0.71453   0.72790
 Alpha virt. eigenvalues --    0.76605   0.78508   0.79522   0.80527   0.81877
 Alpha virt. eigenvalues --    0.83918   0.84466   0.86191   0.87926   0.88093
 Alpha virt. eigenvalues --    0.89590   0.90675   0.91546   0.95261   0.97084
 Alpha virt. eigenvalues --    1.00502   1.01109   1.02896   1.05587   1.07929
 Alpha virt. eigenvalues --    1.09916   1.11802   1.13915   1.15273   1.17041
 Alpha virt. eigenvalues --    1.19083   1.22799   1.24752   1.27178   1.29493
 Alpha virt. eigenvalues --    1.36700   1.37774   1.44455   1.50067   1.51142
 Alpha virt. eigenvalues --    1.60666   1.64179   1.65625   1.74546   1.78772
 Alpha virt. eigenvalues --    1.83015   1.87269   1.88675   1.91585   2.26793
 Alpha virt. eigenvalues --    2.32141   2.34610   2.36660   2.38819   2.41499
 Alpha virt. eigenvalues --    2.43610   2.44291   2.48192   2.49993   2.54058
 Alpha virt. eigenvalues --    2.54743   2.55203   2.55851   2.57687   2.58815
 Alpha virt. eigenvalues --    2.59437   2.62057   2.65021   2.67620   2.69223
 Alpha virt. eigenvalues --    2.70682   2.70889   2.71594   2.77506   2.78292
 Alpha virt. eigenvalues --    2.81863   2.84256   2.88518   2.92119   2.94762
 Alpha virt. eigenvalues --    2.96494   3.00132   3.09374   3.14680   3.15353
 Alpha virt. eigenvalues --    3.23376   3.28328   3.32822   3.38943   3.53181
 Alpha virt. eigenvalues --    3.60886   3.66169   3.83823   3.87342   4.03531
 Alpha virt. eigenvalues --    4.48371   4.52190   4.52326   4.58486   4.66077
 Alpha virt. eigenvalues --    4.74185   4.88710   4.90113   4.95563   5.10612
 Alpha virt. eigenvalues --    5.13531   5.17039   5.59843   5.65510   5.87673
 Alpha virt. eigenvalues --    5.95502   6.03064   6.13419   6.84390   6.85253
 Alpha virt. eigenvalues --    7.30131   7.40147   7.63373   7.64220   7.71036
 Alpha virt. eigenvalues --    7.82949   8.04146   8.10402   8.18031   8.23200
 Alpha virt. eigenvalues --    8.36901   8.39420   8.66204   8.89570   9.62297
 Alpha virt. eigenvalues --    9.70502   9.78689   9.87275   9.97195  10.04209
 Alpha virt. eigenvalues --   10.16502  10.24649  10.48066  10.93548  11.48187
 Alpha virt. eigenvalues --   11.57603  11.62882  12.04147  12.08200  13.23680
 Alpha virt. eigenvalues --   13.65008  14.53333  62.80076  64.55252
          Condensed to atoms (all electrons):
               1          2          3          4          5
     1  O    0.001223  -0.000953  -0.000600   0.000477  -0.005879
     2  O   -0.000953   0.002239   0.000274  -0.001232  -0.003172
     3  H   -0.000600   0.000274   0.000385  -0.000133   0.001877
     4  H    0.000477  -0.001232  -0.000133   0.001004  -0.007669
     5  Kr  -0.005879  -0.003172   0.001877  -0.007669  36.029168
 Mulliken charges:
               1
     1  O    0.005732
     2  O    0.002844
     3  H   -0.001804
     4  H    0.007553
     5  Kr  -0.014324
 Sum of Mulliken charges =   0.00000
 Mulliken charges with hydrogens summed into heavy atoms:
               1
     1  O    0.003928
     2  O    0.010396
     5  Kr  -0.014324
         Mulliken charges condensed to fragments:
      1      0.014324
      2     -0.014324
 Electronic spatial extent (au):  <R**2>=            167.5325
 Charge=             -0.0000 electrons
 Dipole moment (field-independent basis, Debye):
    X=              0.0009    Y=              0.0005    Z=              0.0000  Tot=              0.0011
 Quadrupole moment (field-independent basis, Debye-Ang):
   XX=            -17.7282   YY=            -17.7321   ZZ=            -17.7361
   XY=              0.0024   XZ=             -0.0001   YZ=              0.0002
 Traceless Quadrupole moment (field-independent basis, Debye-Ang):
   XX=              0.0040   YY=              0.0000   ZZ=             -0.0040
   XY=              0.0024   XZ=             -0.0001   YZ=              0.0002
 Octapole moment (field-independent basis, Debye-Ang**2):
  XXX=             53.0572  YYY=              0.9577  ZZZ=             -0.1365  XYY=             17.6911
  XXY=              0.3125  XXZ=             -0.0456  XZZ=             17.6939  YZZ=              0.3196
  YYZ=             -0.0452  XYZ=             -0.0002
 Hexadecapole moment (field-independent basis, Debye-Ang**3):
 XXXX=           -124.3931 YYYY=            -18.5698 ZZZZ=            -18.5508 XXXY=             -0.9385
 XXXZ=              0.1361 YYYX=             -0.9451 YYYZ=              0.0022 ZZZX=              0.1363
 ZZZY=              0.0031 XXYY=            -23.8318 XXZZ=            -23.8306 YYZZ=             -6.1854
 XXYZ=              0.0011 YYXZ=              0.0455 ZZXY=             -0.3143
 N-N= 0.000000000000D+00 E-N=-6.582554746182D+03  KE= 2.752039735625D+03
 Leave Link  601 at Tue Mar 31 20:49:49 2020, MaxMem=  2147483648 cpu:               0.5 elap:               0.0
 (Enter /usr/local/g16/g16/l122.exe)
 CPIOFr:  IOpCl= 0 IRwI=-1 IRwCP=  731 ICalc=  2 LCPTot=       59414 Len1MO=      159453 IndFrg=      537773
 Counterpoise: doing calculation for fragment   1 using the basis set of the fragment.
 Leave Link  122 at Tue Mar 31 20:49:49 2020, MaxMem=  2147483648 cpu:               0.0 elap:               0.0
 (Enter /usr/local/g16/g16/l301.exe)
 Basis read from rwf:  (5D, 7F)
 No pseudopotential information found on rwf file.
 There are   160 symmetry adapted cartesian basis functions of A   symmetry.
 There are   138 symmetry adapted basis functions of A   symmetry.
   138 basis functions,   198 primitive gaussians,   160 cartesian basis functions
     9 alpha electrons        9 beta electrons
       nuclear repulsion energy        36.6035602318 Hartrees.
 IExCor=    0 DFT=F Ex=HF Corr=None ExCW=0 ScaHFX=  1.000000
 ScaDFX=  1.000000  1.000000  1.000000  1.000000 ScalE2=  1.000000  1.000000
 IRadAn=      5 IRanWt=     -1 IRanGd=            0 ICorTp=0 IEmpDi=  4
 NAtoms=    5 NActive=    4 NUniq=    4 SFac= 1.00D+00 NAtFMM=   60 NAOKFM=F Big=F
 Integral buffers will be    131072 words long.
 Raffenetti 1 integral format.
 Two-electron integral symmetry is turned on.
 No density basis found on file   718.
 Leave Link  301 at Tue Mar 31 20:49:49 2020, MaxMem=  2147483648 cpu:               0.4 elap:               0.0
 (Enter /usr/local/g16/g16/l302.exe)
 NPDir=0 NMtPBC=     1 NCelOv=     1 NCel=       1 NClECP=     1 NCelD=      1
         NCelK=      1 NCelE2=     1 NClLst=     1 CellRange=     0.0.
 One-electron integrals computed using PRISM.
 One-electron integral symmetry used in STVInt
 NBasis=   138 RedAO= T EigKep=  2.54D-04  NBF=   138
 NBsUse=   138 1.00D-06 EigRej= -1.00D+00 NBFU=   138
 Leave Link  302 at Tue Mar 31 20:49:49 2020, MaxMem=  2147483648 cpu:               1.5 elap:               0.1
 (Enter /usr/local/g16/g16/l303.exe)
 DipDrv:  MaxL=1.
 Leave Link  303 at Tue Mar 31 20:49:49 2020, MaxMem=  2147483648 cpu:               0.3 elap:               0.0
 (Enter /usr/local/g16/g16/l401.exe)
 ExpMin= 2.53D-02 ExpMax= 1.53D+04 ExpMxC= 5.22D+02 IAcc=3 IRadAn=         5 AccDes= 0.00D+00
 Harris functional with IExCor=  205 and IRadAn=       5 diagonalized for initial guess.
 HarFok:  IExCor=  205 AccDes= 0.00D+00 IRadAn=         5 IDoV= 1 UseB2=F ITyADJ=14
 ICtDFT=  3500011 ScaDFX=  1.000000  1.000000  1.000000  1.000000
 FoFCou: FMM=F IPFlag=           0 FMFlag=      100000 FMFlg1=           0
         NFxFlg=           0 DoJE=T BraDBF=F KetDBF=T FulRan=T
         wScrn=  0.000000 ICntrl=       500 IOpCl=  0 I1Cent=   200000004 NGrid=           0
         NMat0=    1 NMatS0=      1 NMatT0=    0 NMatD0=    1 NMtDS0=    0 NMtDT0=    0
 Petite list used in FoFCou.
 Harris En= -150.934046670544    
 JPrj=0 DoOrth=F DoCkMO=F.
 Leave Link  401 at Tue Mar 31 20:49:50 2020, MaxMem=  2147483648 cpu:               2.2 elap:               0.1
 (Enter /usr/local/g16/g16/l502.exe)
 Keep R1 ints in memory in canonical form, NReq=53860811.
 FoFCou: FMM=F IPFlag=           0 FMFlag=           0 FMFlg1=           0
         NFxFlg=           0 DoJE=F BraDBF=F KetDBF=F FulRan=T
         wScrn=  0.000000 ICntrl=       600 IOpCl=  0 I1Cent=           0 NGrid=           0
         NMat0=    1 NMatS0=   9591 NMatT0=    0 NMatD0=    1 NMtDS0=    0 NMtDT0=    0
 Symmetry not used in FoFCou.
 Two-electron integral symmetry not used.
 Closed shell SCF:
 Using DIIS extrapolation, IDIIS=  1040.
 NGot=  2147483648 LenX=  2101430001 LenY=  2101403960
 Requested convergence on RMS density matrix=1.00D-08 within 128 cycles.
 Requested convergence on MAX density matrix=1.00D-06.
 Requested convergence on             energy=1.00D-06.
 No special actions if energy rises.

 Cycle   1  Pass 1  IDiag  1:
 E= -150.772509554270    
 DIIS: error= 2.95D-02 at cycle   1 NSaved=   1.
 NSaved= 1 IEnMin= 1 EnMin= -150.772509554270     IErMin= 1 ErrMin= 2.95D-02
 ErrMax= 2.95D-02  0.00D+00 EMaxC= 1.00D-01 BMatC= 2.27D-01 BMatP= 2.27D-01
 IDIUse=3 WtCom= 7.05D-01 WtEn= 2.95D-01
 Coeff-Com:  0.100D+01
 Coeff-En:   0.100D+01
 Coeff:      0.100D+01
 Gap=     0.686 Goal=   None    Shift=    0.000
 GapD=    0.686 DampG=2.000 DampE=0.500 DampFc=1.0000 IDamp=-1.
 RMSDP=1.33D-03 MaxDP=2.90D-02              OVMax= 6.59D-02

 Cycle   2  Pass 1  IDiag  1:
 E= -150.824676203346     Delta-E=       -0.052166649076 Rises=F Damp=F
 DIIS: error= 9.57D-03 at cycle   2 NSaved=   2.
 NSaved= 2 IEnMin= 2 EnMin= -150.824676203346     IErMin= 2 ErrMin= 9.57D-03
 ErrMax= 9.57D-03  0.00D+00 EMaxC= 1.00D-01 BMatC= 1.52D-02 BMatP= 2.27D-01
 IDIUse=3 WtCom= 9.04D-01 WtEn= 9.57D-02
 Coeff-Com:  0.100D+00 0.900D+00
 Coeff-En:   0.000D+00 0.100D+01
 Coeff:      0.908D-01 0.909D+00
 Gap=     0.525 Goal=   None    Shift=    0.000
 RMSDP=6.62D-04 MaxDP=2.43D-02 DE=-5.22D-02 OVMax= 2.76D-02

 Cycle   3  Pass 1  IDiag  1:
 E= -150.832196079569     Delta-E=       -0.007519876222 Rises=F Damp=F
 DIIS: error= 4.72D-03 at cycle   3 NSaved=   3.
 NSaved= 3 IEnMin= 3 EnMin= -150.832196079569     IErMin= 3 ErrMin= 4.72D-03
 ErrMax= 4.72D-03  0.00D+00 EMaxC= 1.00D-01 BMatC= 2.19D-03 BMatP= 1.52D-02
 IDIUse=3 WtCom= 9.53D-01 WtEn= 4.72D-02
 Coeff-Com: -0.206D-01 0.254D+00 0.767D+00
 Coeff-En:   0.000D+00 0.000D+00 0.100D+01
 Coeff:     -0.196D-01 0.242D+00 0.778D+00
 Gap=     0.496 Goal=   None    Shift=    0.000
 RMSDP=1.50D-04 MaxDP=3.58D-03 DE=-7.52D-03 OVMax= 9.01D-03

 Cycle   4  Pass 1  IDiag  1:
 E= -150.833550509635     Delta-E=       -0.001354430066 Rises=F Damp=F
 DIIS: error= 3.84D-04 at cycle   4 NSaved=   4.
 NSaved= 4 IEnMin= 4 EnMin= -150.833550509635     IErMin= 4 ErrMin= 3.84D-04
 ErrMax= 3.84D-04  0.00D+00 EMaxC= 1.00D-01 BMatC= 1.59D-05 BMatP= 2.19D-03
 IDIUse=3 WtCom= 9.96D-01 WtEn= 3.84D-03
 Coeff-Com: -0.166D-02-0.124D-01 0.149D-01 0.999D+00
 Coeff-En:   0.000D+00 0.000D+00 0.000D+00 0.100D+01
 Coeff:     -0.166D-02-0.123D-01 0.149D-01 0.999D+00
 Gap=     0.498 Goal=   None    Shift=    0.000
[...]
 E= -150.833575408175    
 DIIS: error= 1.29D-10 at cycle   1 NSaved=   1.
 NSaved= 1 IEnMin= 1 EnMin= -150.833575408175     IErMin= 1 ErrMin= 1.29D-10
 ErrMax= 1.29D-10  0.00D+00 EMaxC= 1.00D-01 BMatC= 2.68D-18 BMatP= 2.68D-18
 IDIUse=1 WtCom= 1.00D+00 WtEn= 0.00D+00
 Coeff-Com:  0.100D+01
 Coeff:      0.100D+01
 Gap=     0.887 Goal=   None    Shift=    0.000
 RMSDP=9.41D-12 MaxDP=2.79D-10              OVMax= 5.54D-10

 SCF Done:  E(RHF) =  -150.833575408     A.U. after    1 cycles
            NFock=  1  Conv=0.94D-11     -V/T= 2.0021
 KE= 1.505166985332D+02 PE=-4.314491867426D+02 EE= 9.349535256941D+01
 Leave Link  502 at Tue Mar 31 22:05:46 2020, MaxMem=  2147483648 cpu:               7.0 elap:               0.5
 (Enter /usr/local/g16/g16/l801.exe)
 Windowed orbitals will be sorted by symmetry type.
 ExpMin= 2.53D-02 ExpMax= 1.53D+04 ExpMxC= 5.22D+02 IAcc=3 IRadAn=         5 AccDes= 0.00D+00
 HarFok:  IExCor=  205 AccDes= 0.00D+00 IRadAn=         5 IDoV=-2 UseB2=F ITyADJ=14
 ICtDFT= 12500011 ScaDFX=  1.000000  1.000000  1.000000  1.000000
 Largest valence mixing into a core orbital is  1.19D-04
 Largest core mixing into a valence orbital is  2.02D-05
 Range of M.O.s used for correlation:     3   138
 NBasis=   138 NAE=     9 NBE=     9 NFC=     2 NFV=     0
 NROrb=    136 NOA=     7 NOB=     7 NVA=   129 NVB=   129

 **** Warning!!: The largest alpha MO coefficient is  0.14138649D+02

 Leave Link  801 at Tue Mar 31 22:05:46 2020, MaxMem=  2147483648 cpu:               0.5 elap:               0.0
 (Enter /usr/local/g16/g16/l804.exe)
 Closed-shell transformation, MDV=  2147483648 ITran=4 ISComp=1.
 Semi-Direct transformation.
 ModeAB=           2 MOrb=             7 LenV=    2146849433
 LASXX=      8463147 LTotXX=     8463147 LenRXX=     8463147
 LTotAB=     8647912 MaxLAS=    12261760 LenRXY=    12261760
 NonZer=    16926294 LenScr=    26146816 LnRSAI=           0
 LnScr1=           0 LExtra=           0 Total=     46871723
 MaxDsk=          -1 SrtSym=           F ITran=            4
 DoSDTr:  NPSUse= 16
 JobTyp=0 Pass  1:  I=   1 to   7.
 (rs|ai) integrals will be sorted in core.
 Complete sort for first half transformation.
 First half transformation complete.
 Complete sort for second half transformation.
 Second half transformation complete.
 SymMOI:  orbitals are not symmetric.
 Spin components of T(2) and E(2):
     alpha-alpha T2 =       0.1592141356D-01 E2=     -0.6269437294D-01
     alpha-beta  T2 =       0.9293435742D-01 E2=     -0.3813477337D+00
     beta-beta   T2 =       0.1592141356D-01 E2=     -0.6269437294D-01
 ANorm=    0.1060555130D+01
 E2 =    -0.5067364796D+00 EUMP2 =    -0.15134031188775D+03
 Leave Link  804 at Tue Mar 31 22:05:48 2020, MaxMem=  2147483648 cpu:              27.7 elap:               1.7
 (Enter /usr/local/g16/g16/l913.exe)
 CIDS:  MDV=  2147483648.
 Frozen-core window:  NFC=   2 NFV=   0.
 IFCWin=0 IBDFC=1 NFBD=     0     0 NFCmp=     0     0 NFFFC=     0     0
 Using DD3R+UMP44R for 1st iteration.
 Using DD4RQ for 2nd and later iterations.
 Keep R2 and R3 ints in memory in canonical form, NReq=99863705.
 FoFCou: FMM=F IPFlag=           0 FMFlag=           0 FMFlg1=           0
         NFxFlg=           0 DoJE=F BraDBF=F KetDBF=F FulRan=T
         wScrn=  0.000000 ICntrl=       600 IOpCl=  0 I1Cent=           0 NGrid=           0
         NMat0=    1 NMatS0=   9591 NMatT0=    0 NMatD0=    1 NMtDS0=    0 NMtDT0=    0
 Symmetry not used in FoFCou.
 Two-electron integral symmetry not used.
 CIDS: In Core Option IDoMem=           1.
 MP4(SDTQ)
 =========
 Produce multiple copies of IABC intergrals
 DD1Dir will call FoFMem   1 times, MxPair=        56
 NAB=    28 NAA=     0 NBB=     0.
 MP4(D)= -0.11239987D-01
 MP4(S)= -0.51412294D-02
 MP4(R+Q)=  0.10701838D-01
 T4(AAA)= -0.65232373D-03
 T4(AAB)= -0.10192578D-01
 Time for triples=       94.63 seconds.
 MP4(T)=   -0.21689804D-01
 E3=       -0.22582624D-02        EUMP3=      -0.15134257015D+03
 E4(DQ)=   -0.53814980D-03        UMP4(DQ)=   -0.15134310830D+03
 E4(SDQ)=  -0.56793792D-02        UMP4(SDQ)=  -0.15134824953D+03
 E4(SDTQ)= -0.27369184D-01        UMP4(SDTQ)= -0.15136993933D+03
 VARIATIONAL ENERGIES WITH THE FIRST-ORDER WAVEFUNCTION:
 E(VAR1)=  -0.15128610481D+03     E(CISD,4)=  -0.15129572222D+03
 Largest amplitude= 2.94D-02
 Discarding MO integrals.
 Leave Link  913 at Tue Mar 31 22:05:55 2020, MaxMem=  2147483648 cpu:             118.3 elap:               7.4
 (Enter /usr/local/g16/g16/l122.exe)
 CPIOFr:  IOpCl= 0 IRwI=-1 IRwCP=  731 ICalc=  3 LCPTot=       59414 Len1MO=      159453 IndFrg=      697226
 Restoring MOs from calculation   5 to rwf and chk.
 CPIOFr:  IOpCl= 0 IRwI=-2 IRwCP=20731 ICalc=  4 LCPTot=       59414 Len1MO=      159453 IndFrg=      856679
 CPIOFr:  IOpCl= 0 IRwI= 4 IRwCP=20731 ICalc=  4 LCPTot=       59414 Len1MO=      159453 IndFrg=      856679
 Counterpoise: doing calculation for fragment   2 using the basis set of the fragment.
 Leave Link  122 at Tue Mar 31 22:05:55 2020, MaxMem=  2147483648 cpu:               0.1 elap:               0.0
 (Enter /usr/local/g16/g16/l301.exe)
 Basis read from rwf:  (5D, 7F)
 No pseudopotential information found on rwf file.
 There are    69 symmetry adapted cartesian basis functions of A   symmetry.
 There are    59 symmetry adapted basis functions of A   symmetry.
    59 basis functions,   217 primitive gaussians,    69 cartesian basis functions
    18 alpha electrons       18 beta electrons
       nuclear repulsion energy         0.0000000000 Hartrees.
 IExCor=    0 DFT=F Ex=HF Corr=None ExCW=0 ScaHFX=  1.000000
 ScaDFX=  1.000000  1.000000  1.000000  1.000000 ScalE2=  1.000000  1.000000
 IRadAn=      5 IRanWt=     -1 IRanGd=            0 ICorTp=0 IEmpDi=  4
 NAtoms=    5 NActive=    1 NUniq=    1 SFac= 1.00D+00 NAtFMM=   60 NAOKFM=F Big=F
 Integral buffers will be    131072 words long.
 Raffenetti 1 integral format.
 Two-electron integral symmetry is turned on.
 No density basis found on file   718.
 Leave Link  301 at Tue Mar 31 22:05:55 2020, MaxMem=  2147483648 cpu:               0.4 elap:               0.0
 (Enter /usr/local/g16/g16/l302.exe)
 NPDir=0 NMtPBC=     1 NCelOv=     1 NCel=       1 NClECP=     1 NCelD=      1
         NCelK=      1 NCelE2=     1 NClLst=     1 CellRange=     0.0.
 One-electron integrals computed using PRISM.
 One-electron integral symmetry used in STVInt
 NBasis=    59 RedAO= T EigKep=  1.06D-02  NBF=    59
 NBsUse=    59 1.00D-06 EigRej= -1.00D+00 NBFU=    59
 Leave Link  302 at Tue Mar 31 22:05:55 2020, MaxMem=  2147483648 cpu:               1.3 elap:               0.1
 (Enter /usr/local/g16/g16/l303.exe)
 DipDrv:  MaxL=1.
 Leave Link  303 at Tue Mar 31 22:05:55 2020, MaxMem=  2147483648 cpu:               0.3 elap:               0.0
 (Enter /usr/local/g16/g16/l401.exe)
 Initial guess from the checkpoint file:  "/mnt/driveB/scratch/matheus/Gau-37130.chk"
 B after Tr=    -0.062994    0.000418   -0.000059
         Rot=    1.000000    0.000000    0.000000    0.000000 Ang=   0.00 deg.
 Guess basis will be translated and rotated to current coordinates.
 JPrj=2 DoOrth=T DoCkMO=T.
 Generating alternative initial guess.
 ExpMin= 4.00D-02 ExpMax= 1.17D+07 ExpMxC= 1.33D+04 IAcc=3 IRadAn=         5 AccDes= 0.00D+00
 Harris functional with IExCor=  205 and IRadAn=       5 diagonalized for initial guess.
 HarFok:  IExCor=  205 AccDes= 0.00D+00 IRadAn=         5 IDoV= 1 UseB2=F ITyADJ=14
 ICtDFT=  3500011 ScaDFX=  1.000000  1.000000  1.000000  1.000000
 FoFCou: FMM=F IPFlag=           0 FMFlag=      100000 FMFlg1=           0
         NFxFlg=           0 DoJE=T BraDBF=F KetDBF=T FulRan=T
         wScrn=  0.000000 ICntrl=       500 IOpCl=  0 I1Cent=   200000004 NGrid=           0
         NMat0=    1 NMatS0=      1 NMatT0=    0 NMatD0=    1 NMtDS0=    0 NMtDT0=    0
 Petite list used in FoFCou.
 DSYEVD-2 returned Info=          89 IAlg= 4 N=    59 NDim=    59 NE2=    36397839 trying  DSYEV.
 Harris En= -2751.05937170533    
 Leave Link  401 at Tue Mar 31 22:05:55 2020, MaxMem=  2147483648 cpu:               2.2 elap:               0.1
 (Enter /usr/local/g16/g16/l502.exe)
 Keep R1 ints in memory in canonical form, NReq=14291944.
 FoFCou: FMM=F IPFlag=           0 FMFlag=           0 FMFlg1=           0
         NFxFlg=           0 DoJE=F BraDBF=F KetDBF=F FulRan=T
         wScrn=  0.000000 ICntrl=       600 IOpCl=  0 I1Cent=           0 NGrid=           0
         NMat0=    1 NMatS0=   1770 NMatT0=    0 NMatD0=    1 NMtDS0=    0 NMtDT0=    0
 Symmetry not used in FoFCou.
 Two-electron integral symmetry not used.
 Closed shell SCF:
 Using DIIS extrapolation, IDIIS=  1040.
 NGot=  2147483648 LenX=  2145904888 LenY=  2145899686
 Requested convergence on RMS density matrix=1.00D-08 within 128 cycles.
 Requested convergence on MAX density matrix=1.00D-06.
 Requested convergence on             energy=1.00D-06.
 No special actions if energy rises.

 Cycle   1  Pass 1  IDiag  1:
 E= -2752.05222307624    
 DIIS: error= 1.78D-13 at cycle   1 NSaved=   1.
 NSaved= 1 IEnMin= 1 EnMin= -2752.05222307624     IErMin= 1 ErrMin= 1.78D-13
 ErrMax= 1.78D-13  0.00D+00 EMaxC= 1.00D-01 BMatC= 1.16D-24 BMatP= 1.16D-24
 IDIUse=1 WtCom= 1.00D+00 WtEn= 0.00D+00
 Coeff-Com:  0.100D+01
 Coeff:      0.100D+01
 Gap=     0.719 Goal=   None    Shift=    0.000
 RMSDP=8.21D-15 MaxDP=1.07D-13              OVMax= 9.40D-14

 SCF Done:  E(RHF) =  -2752.05222308     A.U. after    1 cycles
            NFock=  1  Conv=0.82D-14     -V/T= 2.0000
 KE= 2.752048106937D+03 PE=-6.582565276257D+03 EE= 1.078464946243D+03
 Leave Link  502 at Tue Mar 31 22:05:56 2020, MaxMem=  2147483648 cpu:               9.6 elap:               0.6
 (Enter /usr/local/g16/g16/l801.exe)
 Windowed orbitals will be sorted by symmetry type.
 ExpMin= 4.00D-02 ExpMax= 1.17D+07 ExpMxC= 1.33D+04 IAcc=3 IRadAn=         5 AccDes= 0.00D+00
 HarFok:  IExCor=  205 AccDes= 0.00D+00 IRadAn=         5 IDoV=-2 UseB2=F ITyADJ=14
 ICtDFT= 12500011 ScaDFX=  1.000000  1.000000  1.000000  1.000000
 DSYEVD-2 returned Info=          89 IAlg= 4 N=    59 NDim=    59 NE2=    36397550 trying  DSYEV.
 Largest valence mixing into a core orbital is  9.79D-05
 Largest core mixing into a valence orbital is  3.83D-05
 Range of M.O.s used for correlation:    10    59
 NBasis=    59 NAE=    18 NBE=    18 NFC=     9 NFV=     0
 NROrb=     50 NOA=     9 NOB=     9 NVA=    41 NVB=    41
 Leave Link  801 at Tue Mar 31 22:05:56 2020, MaxMem=  2147483648 cpu:               0.5 elap:               0.0
 (Enter /usr/local/g16/g16/l804.exe)
 Closed-shell transformation, MDV=  2147483648 ITran=4 ISComp=1.
 Semi-Direct transformation.
 ModeAB=           2 MOrb=             9 LenV=    2147140326
 LASXX=       482211 LTotXX=      482211 LenRXX=      482211
 LTotAB=      511245 MaxLAS=     1086750 LenRXY=     1086750
 NonZer=     1162350 LenScr=     2357760 LnRSAI=           0
 LnScr1=           0 LExtra=           0 Total=      3926721
 MaxDsk=          -1 SrtSym=           F ITran=            4
 DoSDTr:  NPSUse= 16
 JobTyp=0 Pass  1:  I=   1 to   9.
 (rs|ai) integrals will be sorted in core.
 Complete sort for first half transformation.
 First half transformation complete.
 Complete sort for second half transformation.
 Second half transformation complete.
 SymMOI:  orbitals are not symmetric.
 Spin components of T(2) and E(2):
     alpha-alpha T2 =       0.9484485167D-02 E2=     -0.3552398032D-01
     alpha-beta  T2 =       0.4799866946D-01 E2=     -0.1708433112D+00
     beta-beta   T2 =       0.9484485167D-02 E2=     -0.3552398032D-01
 ANorm=    0.1032941257D+01
 E2 =    -0.2418912719D+00 EUMP2 =    -0.27522941143481D+04
 Leave Link  804 at Tue Mar 31 22:05:56 2020, MaxMem=  2147483648 cpu:               5.1 elap:               0.3
 (Enter /usr/local/g16/g16/l913.exe)
 CIDS:  MDV=  2147483648.
 Frozen-core window:  NFC=   9 NFV=   0.
 IFCWin=0 IBDFC=1 NFBD=     0     0 NFCmp=     0     0 NFFFC=     0     0
 Using DD3R+UMP44R for 1st iteration.
 Using DD4RQ for 2nd and later iterations.
 Keep R2 and R3 ints in memory in canonical form, NReq=15862484.
 FoFCou: FMM=F IPFlag=           0 FMFlag=           0 FMFlg1=           0
         NFxFlg=           0 DoJE=F BraDBF=F KetDBF=F FulRan=T
         wScrn=  0.000000 ICntrl=       600 IOpCl=  0 I1Cent=           0 NGrid=           0
         NMat0=    1 NMatS0=   1770 NMatT0=    0 NMatD0=    1 NMtDS0=    0 NMtDT0=    0
 Symmetry not used in FoFCou.
 Two-electron integral symmetry not used.
 CIDS: In Core Option IDoMem=           1.
 MP4(SDTQ)
 =========
 Produce multiple copies of IABC intergrals
 DD1Dir will call FoFMem   1 times, MxPair=        90
 NAB=    45 NAA=     0 NBB=     0.
 MP4(D)= -0.36913093D-02
 MP4(S)= -0.10734540D-02
 MP4(R+Q)=  0.42077927D-02
 T4(AAA)= -0.32336090D-03
 T4(AAB)= -0.35259699D-02
 Time for triples=        3.39 seconds.
 MP4(T)=   -0.76986616D-02
 E3=       -0.99406389D-02        EUMP3=      -0.27523040550D+04
 E4(DQ)=    0.51648341D-03        UMP4(DQ)=   -0.27523035385D+04
 E4(SDQ)=  -0.55697064D-03        UMP4(SDQ)=  -0.27523046120D+04
 E4(SDTQ)= -0.82556322D-02        UMP4(SDTQ)= -0.27523123106D+04
 VARIATIONAL ENERGIES WITH THE FIRST-ORDER WAVEFUNCTION:
 E(VAR1)=  -0.27522882489D+04     E(CISD,4)=  -0.27522926209D+04
 Largest amplitude= 2.13D-02
 Discarding MO integrals.
 Leave Link  913 at Tue Mar 31 22:05:57 2020, MaxMem=  2147483648 cpu:              13.9 elap:               0.9
 (Enter /usr/local/g16/g16/l122.exe)
 CPIOFr:  IOpCl= 0 IRwI=-1 IRwCP=  731 ICalc=  4 LCPTot=       59414 Len1MO=      159453 IndFrg=      856679
 Restoring MOs from calculation   1 to rwf.
 CPIOFr:  IOpCl= 0 IRwI=-2 IRwCP=  731 ICalc=  0 LCPTot=       59414 Len1MO=      159453 IndFrg=      218867
 Counterpoise corrected energy =   -2903.682501077833
                   BSSE energy =       0.000220415633
              sum of fragments =   -2903.682249952973
           complexation energy =      -0.30 kcal/mole (raw)
           complexation energy =      -0.16 kcal/mole (corrected)
 Leave Link  122 at Tue Mar 31 22:05:57 2020, MaxMem=  2147483648 cpu:               0.0 elap:               0.0
 (Enter /usr/local/g16/g16/l108.exe)
 Scan completed.
 
 Summary of the potential surface scan, energies are +2752 a.u.:
   N      R1          SCF          MP2          MP3         MP4DQ       MP4SDQ       MP4SDTQ  
 ----  ---------  -----------  -----------  -----------  -----------  -----------  -----------
    1     3.0000     -0.05222     -0.29411     -0.30405     -0.30354     -0.30461     -0.31231
    2     3.1000     -0.05222     -0.29411     -0.30405     -0.30354     -0.30461     -0.31231
    3     3.2000     -0.05222     -0.29411     -0.30405     -0.30354     -0.30461     -0.31231
    4     3.3000     -0.05222     -0.29411     -0.30405     -0.30354     -0.30461     -0.31231
    5     3.4000     -0.05222     -0.29411     -0.30405     -0.30354     -0.30461     -0.31231
    6     3.5000     -0.05222     -0.29411     -0.30405     -0.30354     -0.30461     -0.31231
    7     3.6000     -0.05222     -0.29411     -0.30405     -0.30354     -0.30461     -0.31231
    8     3.7000     -0.05222     -0.29411     -0.30405     -0.30354     -0.30461     -0.31231
    9     3.8000     -0.05222     -0.29411     -0.30405     -0.30354     -0.30461     -0.31231
   10     3.9000     -0.05222     -0.29411     -0.30405     -0.30354     -0.30461     -0.31231
   11     4.0000     -0.05222     -0.29411     -0.30405     -0.30354     -0.30461     -0.31231
   12     4.1000     -0.05222     -0.29411     -0.30405     -0.30354     -0.30461     -0.31231
   13     4.2000     -0.05222     -0.29411     -0.30405     -0.30354     -0.30461     -0.31231
   14     4.3000     -0.05222     -0.29411     -0.30405     -0.30354     -0.30461     -0.31231
   15     4.4000     -0.05222     -0.29411     -0.30405     -0.30354     -0.30461     -0.31231
   16     4.5000     -0.05222     -0.29411     -0.30405     -0.30354     -0.30461     -0.31231
   17     4.6000     -0.05222     -0.29411     -0.30405     -0.30354     -0.30461     -0.31231
   18     4.7000     -0.05222     -0.29411     -0.30405     -0.30354     -0.30461     -0.31231
   19     4.8000     -0.05222     -0.29411     -0.30405     -0.30354     -0.30461     -0.31231
   20     4.9000     -0.05222     -0.29411     -0.30405     -0.30354     -0.30461     -0.31231
   21     5.0000     -0.05222     -0.29411     -0.30405     -0.30354     -0.30461     -0.31231
 ----  ---------  -----------  -----------  -----------  -----------  -----------  -----------
  
 Leave Link  108 at Tue Mar 31 22:05:57 2020, MaxMem=  2147483648 cpu:               0.1 elap:               0.0
 (Enter /usr/local/g16/g16/l9999.exe)
 1\1\GINC-ARTHUR-MS-7B09\Scan\RMP4SDTQ-FC\Aug-CC-pVTZ\H2Kr1O2\MATHEUS\3
 1-Mar-2020\1\\#p mp4/aug-cc-PVTz int=ultrafine counterpoise=2 Scan\\PT
 CC\\0,1\O,0,0.,0.,0.725\O,0,0.,0.,-0.725\H,0,0.4593602974,-0.795635374
 ,1.0235104166\H,0,0.,0.9187205947,-1.0235104166\Kr,0,0.,R1,0.\\R1=3.,s
 ,20,0.1\\Version=ES64L-G16RevA.03\HF=-2752.0522231,-2752.0522231,-2752
 .0522231,-2752.0522231,-2752.0522231,-2752.0522231,-2752.0522231,-2752
 .0522231,-2752.0522231,-2752.0522231,-2752.0522231,-2752.0522231,-2752
 .0522231,-2752.0522231,-2752.0522231,-2752.0522231,-2752.0522231,-2752
 .0522231,-2752.0522231,-2752.0522231,-2752.0522231\MP2=-2752.2941143,-
 2752.2941143,-2752.2941143,-2752.2941143,-2752.2941143,-2752.2941143,-
 2752.2941143,-2752.2941143,-2752.2941143,-2752.2941143,-2752.2941143,-
 2752.2941143,-2752.2941143,-2752.2941143,-2752.2941143,-2752.2941143,-
 2752.2941143,-2752.2941143,-2752.2941143,-2752.2941143,-2752.2941143\M
 P3=-2752.304055,-2752.304055,-2752.304055,-2752.304055,-2752.304055,-2
 752.304055,-2752.304055,-2752.304055,-2752.304055,-2752.304055,-2752.3
 04055,-2752.304055,-2752.304055,-2752.304055,-2752.304055,-2752.304055
 ,-2752.304055,-2752.304055,-2752.304055,-2752.304055,-2752.304055\MP4D
 =-2752.3077463,-2752.3077463,-2752.3077463,-2752.3077463,-2752.3077463
 ,-2752.3077463,-2752.3077463,-2752.3077463,-2752.3077463,-2752.3077463
 ,-2752.3077463,-2752.3077463,-2752.3077463,-2752.3077463,-2752.3077463
 ,-2752.3077463,-2752.3077463,-2752.3077463,-2752.3077463,-2752.3077463
 ,-2752.3077463\MP4DQ=-2752.3035385,-2752.3035385,-2752.3035385,-2752.3
 035385,-2752.3035385,-2752.3035385,-2752.3035385,-2752.3035385,-2752.3
 035385,-2752.3035385,-2752.3035385,-2752.3035385,-2752.3035385,-2752.3
 035385,-2752.3035385,-2752.3035385,-2752.3035385,-2752.3035385,-2752.3
 035385,-2752.3035385,-2752.3035385\MP4SDQ=-2752.304612,-2752.304612,-2
 752.304612,-2752.304612,-2752.304612,-2752.304612,-2752.304612,-2752.3
 04612,-2752.304612,-2752.304612,-2752.304612,-2752.304612,-2752.304612
 ,-2752.304612,-2752.304612,-2752.304612,-2752.304612,-2752.304612,-275
 2.304612,-2752.304612,-2752.304612\MP4SDTQ=-2752.3123106,-2752.3123106
 ,-2752.3123106,-2752.3123106,-2752.3123106,-2752.3123106,-2752.3123106
 ,-2752.3123106,-2752.3123106,-2752.3123106,-2752.3123106,-2752.3123106
 ,-2752.3123106,-2752.3123106,-2752.3123106,-2752.3123106,-2752.3123106
 ,-2752.3123106,-2752.3123106,-2752.3123106,-2752.3123106\RMSD=9.887e-1
 0,1.149e-10,2.884e-11,7.215e-12,1.871e-12,4.679e-13,1.336e-13,3.674e-1
 4,1.940e-14,1.549e-14,8.841e-15,1.236e-14,1.368e-14,1.202e-14,9.102e-1
 5,7.864e-15,5.433e-15,6.302e-15,1.341e-14,1.400e-14,8.213e-15\PG=C01 [
 X(H2Kr1O2)]\\@


 ... I FELL INTO A REVERIE ... THE ATOMS WERE GAMBOLING BEFORE MY EYES
 ... I SAW HOW TWO SMALL ONES UNITED TO FORM A PAIR;
 HOW THE LARGER ONES SEIZED TWO OF THE SMALLER ONES;
 HOW STILL LARGER ONES KEPT HOLD OF THREE OR FOUR
 SMALLER ONES ... I SAW HOW THE LARGER ONES FORMED A CHAIN ...
 THIS WAS THE ORIGIN OF THE STRUCTURE THEORY.

                                   -- C.F.KEKULE VON STRADONITZ
 Job cpu time:       0 days 20 hours 45 minutes 37.1 seconds.
 Elapsed time:       0 days  1 hours 19 minutes  4.7 seconds.
 File lengths (MBytes):  RWF=   4073 Int=      0 D2E=      0 Chk=     12 Scr=      1
 Normal termination of Gaussian 16 at Tue Mar 31 22:05:58 2020.
