 Entering Gaussian System, Link 0=g16
 Input=Inputs/H2O2-Kr_4.com
 Output=Logs/H2O2-Kr_4.log
 Initial command:
 /usr/local/g16/g16/l1.exe "/mnt/driveB/scratch/matheus/Gau-8776.inp" -scrdir="/mnt/driveB/scratch/matheus/"
 Entering Link 1 = /usr/local/g16/g16/l1.exe PID=      8778.
  
 Copyright (c) 1988,1990,1992,1993,1995,1998,2003,2009,2016,
            Gaussian, Inc.  All Rights Reserved.
  
 This is part of the Gaussian(R) 16 program.  It is based on
 the Gaussian(R) 09 system (copyright 2009, Gaussian, Inc.),
 the Gaussian(R) 03 system (copyright 2003, Gaussian, Inc.),
 the Gaussian(R) 98 system (copyright 1998, Gaussian, Inc.),
 the Gaussian(R) 94 system (copyright 1995, Gaussian, Inc.),
 the Gaussian 92(TM) system (copyright 1992, Gaussian, Inc.),
 the Gaussian 90(TM) system (copyright 1990, Gaussian, Inc.),
 the Gaussian 88(TM) system (copyright 1988, Gaussian, Inc.),
 the Gaussian 86(TM) system (copyright 1986, Carnegie Mellon
 University), and the Gaussian 82(TM) system (copyright 1983,
 Carnegie Mellon University). Gaussian is a federally registered
 trademark of Gaussian, Inc.
  
 This software contains proprietary and confidential information,
 including trade secrets, belonging to Gaussian, Inc.
  
 This software is provided under written license and may be
 used, copied, transmitted, or stored only in accord with that
 written license.
  
 The following legend is applicable only to US Government
 contracts under FAR:
  
                    RESTRICTED RIGHTS LEGEND
  
 Use, reproduction and disclosure by the US Government is
 subject to restrictions as set forth in subparagraphs (a)
 and (c) of the Commercial Computer Software - Restricted
 Rights clause in FAR 52.227-19.
  
 Gaussian, Inc.
 340 Quinnipiac St., Bldg. 40, Wallingford CT 06492
  
  
 ---------------------------------------------------------------
 Warning -- This program may not be used in any manner that
 competes with the business of Gaussian, Inc. or will provide
 assistance to any competitor of Gaussian, Inc.  The licensee
 of this program is prohibited from giving any competitor of
 Gaussian, Inc. access to this program.  By using this program,
 the user acknowledges that Gaussian, Inc. is engaged in the
 business of creating and licensing software in the field of
 computational chemistry and represents and warrants to the
 licensee that it is not a competitor of Gaussian, Inc. and that
 it will not use this program in any manner prohibited above.
 ---------------------------------------------------------------
  

 Cite this work as:
 Gaussian 16, Revision A.03,
 M. J. Frisch, G. W. Trucks, H. B. Schlegel, G. E. Scuseria, 
 M. A. Robb, J. R. Cheeseman, G. Scalmani, V. Barone, 
 G. A. Petersson, H. Nakatsuji, X. Li, M. Caricato, A. V. Marenich, 
 J. Bloino, B. G. Janesko, R. Gomperts, B. Mennucci, H. P. Hratchian, 
 J. V. Ortiz, A. F. Izmaylov, J. L. Sonnenberg, D. Williams-Young, 
 F. Ding, F. Lipparini, F. Egidi, J. Goings, B. Peng, A. Petrone, 
 T. Henderson, D. Ranasinghe, V. G. Zakrzewski, J. Gao, N. Rega, 
 G. Zheng, W. Liang, M. Hada, M. Ehara, K. Toyota, R. Fukuda, 
 J. Hasegawa, M. Ishida, T. Nakajima, Y. Honda, O. Kitao, H. Nakai, 
 T. Vreven, K. Throssell, J. A. Montgomery, Jr., J. E. Peralta, 
 F. Ogliaro, M. J. Bearpark, J. J. Heyd, E. N. Brothers, K. N. Kudin, 
 V. N. Staroverov, T. A. Keith, R. Kobayashi, J. Normand, 
 K. Raghavachari, A. P. Rendell, J. C. Burant, S. S. Iyengar, 
 J. Tomasi, M. Cossi, J. M. Millam, M. Klene, C. Adamo, R. Cammi, 
 J. W. Ochterski, R. L. Martin, K. Morokuma, O. Farkas, 
 J. B. Foresman, and D. J. Fox, Gaussian, Inc., Wallingford CT, 2016.
 
 ******************************************
 Gaussian 16:  ES64L-G16RevA.03 25-Dec-2016
                30-Mar-2020 
 ******************************************
 %mem=16GB
 %nproc=16
 Will use up to   16 processors via shared memory.
 ----------------------------------------------------
 #p mp4/aug-cc-PVTz int=ultrafine counterpoise=2 Scan
 ----------------------------------------------------
 1/38=1,60=1,62=2,172=1/1,8;
 2/12=2,17=6,18=5,29=3,40=1/2;
 1/38=1,53=2,62=2,63=1/22;
 3/5=16,6=1,7=10,11=9,25=1,30=1,75=-5/1,2,3;
 4//1;
 5/5=2,38=5/2;
 8/6=4,9=120000,10=1/1,4;
 9/5=5/13;
 6/7=2,8=2,9=2,10=2,18=1/1;
 1/53=2,62=2,63=1/22;
 3/5=7,6=11,7=10,11=9,25=1,30=1,75=-5,82=7/1,2,3;
 4//1;
 5/5=2,38=5/2;
 8/6=4,9=120000,10=1/1,4;
 9/5=5/13;
 6/7=2,8=2,9=2,10=2,18=1/1;
 1/53=2,62=2,63=1/22(-6);
 1/60=1,62=2/8(1);
 99/9=1/99;
 2/29=3/2;
 1/53=3,62=2,63=1/22;
 3/5=7,6=11,7=10,11=9,25=1,30=1,75=-5,82=7/1,2,3;
 4/5=5,16=3,69=1/1;
 5/5=2,38=5/2;
 8/6=4,9=120000,10=1/1,4;
 9/5=5/13;
 1/53=3,62=2,63=1/22(-5);
 1/60=1,62=2/8(-8);
 99/9=1/99;
 Leave Link    1 at Mon Mar 30 16:53:18 2020, MaxMem=  2147483648 cpu:               0.3 elap:               0.0
 (Enter /usr/local/g16/g16/l101.exe)
 ----
 PTCC
 ----
 Symbolic Z-matrix:
 Charge =  0 Multiplicity = 1 in supermolecule
 Charge =  0 Multiplicity = 1 in fragment      1.
 Charge =  0 Multiplicity = 1 in fragment      2.
 O(Fragment=1)         0.        0.        0.725 
 O(Fragment=1)         0.        0.       -0.725 
 H(Fragment=1)         0.59054   0.70378   1.02351 
 H(Fragment=1)         0.        0.91872  -1.02351 
 Kr(Fragment=2)        0.       R1        0. 
       Variables:
  R1                    3.     Scan 20    0.1    
 
 ITRead=  0  0  0  0  0
 MicOpt= -1 -1 -1 -1 -1
 NAtoms=      5 NQM=        5 NQMF=       0 NMMI=      0 NMMIF=      0
                NMic=       0 NMicF=      0.
                    Isotopes and Nuclear Properties:
 (Nuclear quadrupole moments (NQMom) in fm**2, nuclear magnetic moments (NMagM)
  in nuclear magnetons)

  Atom         1           2           3           4           5
 IAtWgt=          16          16           1           1          84
 AtmWgt=  15.9949146  15.9949146   1.0078250   1.0078250  83.9115064
 NucSpn=           0           0           1           1           0
 AtZEff=  -0.0000000  -0.0000000  -0.0000000  -0.0000000  -0.0000000
 NQMom=    0.0000000   0.0000000   0.0000000   0.0000000   0.0000000
 NMagM=    0.0000000   0.0000000   2.7928460   2.7928460   0.0000000
 AtZNuc=   8.0000000   8.0000000   1.0000000   1.0000000  36.0000000
 Leave Link  101 at Mon Mar 30 16:53:18 2020, MaxMem=  2147483648 cpu:               1.3 elap:               0.1
 (Enter /usr/local/g16/g16/l108.exe)
 Scan the potential surface.
 Variable   Value     No. Steps Step-Size
 -------- ----------- --------- ---------
     1       3.000000      20      0.1000
 A total of     21 points will be computed.
 Leave Link  108 at Mon Mar 30 16:53:18 2020, MaxMem=  2147483648 cpu:               0.0 elap:               0.0
 (Enter /usr/local/g16/g16/l202.exe)
 ---------------------------------------------------------------------------------------------------
                            Z-MATRIX (ANGSTROMS AND DEGREES)
   CD    Cent   Atom    N1       Length/X        N2       Alpha/Y        N3        Beta/Z          J
 ---------------------------------------------------------------------------------------------------
      1      1  O        0   0.000000          0.000000          0.725000
      2      2  O        0   0.000000          0.000000         -0.725000
      3      3  H        0   0.590542          0.703781          1.023510
      4      4  H        0   0.000000          0.918721         -1.023510
      5      5  Kr       0   0.000000          3.000000          0.000000
 ---------------------------------------------------------------------------------------------------
                         Z-Matrix orientation:                         
 ---------------------------------------------------------------------
 Center     Atomic      Atomic             Coordinates (Angstroms)
 Number     Number       Type             X           Y           Z
 ---------------------------------------------------------------------
      1          8           0        0.000000    0.000000    0.725000
      2          8           0        0.000000    0.000000   -0.725000
      3          1           0        0.590542    0.703781    1.023510
      4          1           0        0.000000    0.918721   -1.023510
      5         36           0        0.000000    3.000000    0.000000
 ---------------------------------------------------------------------
                    Distance matrix (angstroms):
                    1          2          3          4          5
     1  O    0.000000
     2  O    1.450000   0.000000
     3  H    0.966000   1.975180   0.000000
     4  H    1.975180   0.966000   2.141316   0.000000
     5  Kr   3.086361   3.086361   2.582428   2.319331   0.000000
 Stoichiometry    H2KrO2
 Framework group  C1[X(H2KrO2)]
 Deg. of freedom     9
 Full point group                 C1      NOp   1
 Largest Abelian subgroup         C1      NOp   1
 Largest concise Abelian subgroup C1      NOp   1
                         Standard orientation:                         
 ---------------------------------------------------------------------
 Center     Atomic      Atomic             Coordinates (Angstroms)
 Number     Number       Type             X           Y           Z
 ---------------------------------------------------------------------
      1          8           0        2.031661   -0.717244   -0.068894
      2          8           0        2.028133    0.730229    0.016606
      3          1           0        1.333152   -1.052071    0.508282
      4          1           0        1.108715    1.025573    0.041099
      5         36           0       -0.970006   -0.002150   -0.003641
 ---------------------------------------------------------------------
 Rotational constants (GHZ):          26.2249702           2.3786625           2.1869902
 Leave Link  202 at Mon Mar 30 16:53:18 2020, MaxMem=  2147483648 cpu:               0.0 elap:               0.0
 (Enter /usr/local/g16/g16/l122.exe)
 Counterpoise: doing full-system calculation.
 Leave Link  122 at Mon Mar 30 16:53:18 2020, MaxMem=  2147483648 cpu:               0.0 elap:               0.0
 (Enter /usr/local/g16/g16/l301.exe)
 Standard basis: Aug-CC-pVTZ (5D, 7F)
 Ernie: Thresh=  0.10000D-02 Tol=  0.10000D-05 Strict=F.
 Ernie:  38 primitive shells out of 205 were deleted.
 There are   229 symmetry adapted cartesian basis functions of A   symmetry.
 There are   197 symmetry adapted basis functions of A   symmetry.
   197 basis functions,   415 primitive gaussians,   229 cartesian basis functions
    27 alpha electrons       27 beta electrons
       nuclear repulsion energy       151.0050753149 Hartrees.
 IExCor=    0 DFT=F Ex=HF Corr=None ExCW=0 ScaHFX=  1.000000
 ScaDFX=  1.000000  1.000000  1.000000  1.000000 ScalE2=  1.000000  1.000000
 IRadAn=      5 IRanWt=     -1 IRanGd=            0 ICorTp=0 IEmpDi=  4
 NAtoms=    5 NActive=    5 NUniq=    5 SFac= 1.00D+00 NAtFMM=   60 NAOKFM=F Big=F
 Integral buffers will be    131072 words long.
 Raffenetti 1 integral format.
 Two-electron integral symmetry is turned on.
 Leave Link  301 at Mon Mar 30 16:53:18 2020, MaxMem=  2147483648 cpu:               0.3 elap:               0.0
 (Enter /usr/local/g16/g16/l302.exe)
 NPDir=0 NMtPBC=     1 NCelOv=     1 NCel=       1 NClECP=     1 NCelD=      1
         NCelK=      1 NCelE2=     1 NClLst=     1 CellRange=     0.0.
 One-electron integrals computed using PRISM.
 One-electron integral symmetry used in STVInt
 NBasis=   197 RedAO= T EigKep=  1.84D-04  NBF=   197
 NBsUse=   197 1.00D-06 EigRej= -1.00D+00 NBFU=   197
 Leave Link  302 at Mon Mar 30 16:53:18 2020, MaxMem=  2147483648 cpu:               1.8 elap:               0.1
 (Enter /usr/local/g16/g16/l303.exe)
 DipDrv:  MaxL=1.
 Leave Link  303 at Mon Mar 30 16:53:18 2020, MaxMem=  2147483648 cpu:               0.4 elap:               0.0
 (Enter /usr/local/g16/g16/l401.exe)
 ExpMin= 2.53D-02 ExpMax= 1.17D+07 ExpMxC= 1.33D+04 IAcc=3 IRadAn=         5 AccDes= 0.00D+00
 Harris functional with IExCor=  205 and IRadAn=       5 diagonalized for initial guess.
 HarFok:  IExCor=  205 AccDes= 0.00D+00 IRadAn=         5 IDoV= 1 UseB2=F ITyADJ=14
 ICtDFT=  3500011 ScaDFX=  1.000000  1.000000  1.000000  1.000000
 FoFCou: FMM=F IPFlag=           0 FMFlag=      100000 FMFlg1=           0
         NFxFlg=           0 DoJE=T BraDBF=F KetDBF=T FulRan=T
         wScrn=  0.000000 ICntrl=       500 IOpCl=  0 I1Cent=   200000004 NGrid=           0
         NMat0=    1 NMatS0=      1 NMatT0=    0 NMatD0=    1 NMtDS0=    0 NMtDT0=    0
 Petite list used in FoFCou.
 Harris En= -2901.98848533483    
 JPrj=0 DoOrth=F DoCkMO=F.
 Leave Link  401 at Mon Mar 30 16:53:18 2020, MaxMem=  2147483648 cpu:               3.1 elap:               0.2
 (Enter /usr/local/g16/g16/l502.exe)
 Keep R1 ints in memory in canonical form, NReq=203139626.
 FoFCou: FMM=F IPFlag=           0 FMFlag=           0 FMFlg1=           0
         NFxFlg=           0 DoJE=F BraDBF=F KetDBF=F FulRan=T
         wScrn=  0.000000 ICntrl=       600 IOpCl=  0 I1Cent=           0 NGrid=           0
         NMat0=    1 NMatS0=  19503 NMatT0=    0 NMatD0=    1 NMtDS0=    0 NMtDT0=    0
 Symmetry not used in FoFCou.
 Two-electron integral symmetry not used.
 Closed shell SCF:
 Using DIIS extrapolation, IDIIS=  1040.
 NGot=  2147483648 LenX=  1957179903 LenY=  1957127021
 Requested convergence on RMS density matrix=1.00D-08 within 128 cycles.
 Requested convergence on MAX density matrix=1.00D-06.
 Requested convergence on             energy=1.00D-06.
 No special actions if energy rises.

 Cycle   1  Pass 1  IDiag  1:
 E= -2902.75921223475    
 DIIS: error= 5.37D-02 at cycle   1 NSaved=   1.
 NSaved= 1 IEnMin= 1 EnMin= -2902.75921223475     IErMin= 1 ErrMin= 5.37D-02
 ErrMax= 5.37D-02  0.00D+00 EMaxC= 1.00D-01 BMatC= 6.65D-01 BMatP= 6.65D-01
 IDIUse=3 WtCom= 4.63D-01 WtEn= 5.37D-01
 Coeff-Com:  0.100D+01
 Coeff-En:   0.100D+01
 Coeff:      0.100D+01
 Gap=     0.690 Goal=   None    Shift=    0.000
 GapD=    0.690 DampG=2.000 DampE=0.500 DampFc=1.0000 IDamp=-1.
 RMSDP=2.02D-03 MaxDP=1.33D-01              OVMax= 5.76D-02

 Cycle   2  Pass 1  IDiag  1:
 E= -2902.85706264821     Delta-E=       -0.097850413466 Rises=F Damp=F
 DIIS: error= 6.87D-03 at cycle   2 NSaved=   2.
 NSaved= 2 IEnMin= 2 EnMin= -2902.85706264821     IErMin= 2 ErrMin= 6.87D-03
 ErrMax= 6.87D-03  0.00D+00 EMaxC= 1.00D-01 BMatC= 3.81D-02 BMatP= 6.65D-01
 IDIUse=3 WtCom= 9.31D-01 WtEn= 6.87D-02
 Coeff-Com:  0.142D+00 0.858D+00
 Coeff-En:   0.000D+00 0.100D+01
 Coeff:      0.132D+00 0.868D+00
 Gap=     0.525 Goal=   None    Shift=    0.000
 RMSDP=7.90D-04 MaxDP=3.76D-02 DE=-9.79D-02 OVMax= 2.76D-02

 Cycle   3  Pass 1  IDiag  1:
 E= -2902.87143518274     Delta-E=       -0.014372534526 Rises=F Damp=F
 DIIS: error= 2.59D-03 at cycle   3 NSaved=   3.
 NSaved= 3 IEnMin= 3 EnMin= -2902.87143518274     IErMin= 3 ErrMin= 2.59D-03
 ErrMax= 2.59D-03  0.00D+00 EMaxC= 1.00D-01 BMatC= 2.92D-03 BMatP= 3.81D-02
 IDIUse=3 WtCom= 9.74D-01 WtEn= 2.59D-02
 Coeff-Com: -0.597D-02 0.196D+00 0.810D+00
 Coeff-En:   0.000D+00 0.000D+00 0.100D+01
 Coeff:     -0.582D-02 0.191D+00 0.815D+00
 Gap=     0.496 Goal=   None    Shift=    0.000
 RMSDP=1.42D-04 MaxDP=4.91D-03 DE=-1.44D-02 OVMax= 8.66D-03

 Cycle   4  Pass 1  IDiag  1:
 E= -2902.87294991292     Delta-E=       -0.001514730186 Rises=F Damp=F
 DIIS: error= 3.40D-04 at cycle   4 NSaved=   4.
 NSaved= 4 IEnMin= 4 EnMin= -2902.87294991292     IErMin= 4 ErrMin= 3.40D-04
 ErrMax= 3.40D-04  0.00D+00 EMaxC= 1.00D-01 BMatC= 5.14D-05 BMatP= 2.92D-03
 IDIUse=3 WtCom= 9.97D-01 WtEn= 3.40D-03
 Coeff-Com: -0.425D-02 0.145D-01 0.144D+00 0.845D+00
 Coeff-En:   0.000D+00 0.000D+00 0.000D+00 0.100D+01
 Coeff:     -0.423D-02 0.145D-01 0.144D+00 0.846D+00
 Gap=     0.501 Goal=   None    Shift=    0.000
 RMSDP=2.38D-05 MaxDP=6.68D-04 DE=-1.51D-03 OVMax= 1.76D-03

 Cycle   5  Pass 1  IDiag  1:
 E= -2902.87299349467     Delta-E=       -0.000043581740 Rises=F Damp=F
 DIIS: error= 1.32D-04 at cycle   5 NSaved=   5.
 NSaved= 5 IEnMin= 5 EnMin= -2902.87299349467     IErMin= 5 ErrMin= 1.32D-04
 ErrMax= 1.32D-04  0.00D+00 EMaxC= 1.00D-01 BMatC= 3.78D-06 BMatP= 5.14D-05
 IDIUse=3 WtCom= 9.99D-01 WtEn= 1.32D-03
 Coeff-Com:  0.898D-03-0.168D-01-0.713D-01-0.533D-02 0.109D+01
 Coeff-En:   0.000D+00 0.000D+00 0.000D+00 0.000D+00 0.100D+01
 Coeff:      0.897D-03-0.168D-01-0.712D-01-0.533D-02 0.109D+01
 Gap=     0.501 Goal=   None    Shift=    0.000
 RMSDP=1.16D-05 MaxDP=3.42D-04 DE=-4.36D-05 OVMax= 7.64D-04

 Cycle   6  Pass 1  IDiag  1:
 E= -2902.87299928307     Delta-E=       -0.000005788410 Rises=F Damp=F
 DIIS: error= 3.23D-05 at cycle   6 NSaved=   6.
 NSaved= 6 IEnMin= 6 EnMin= -2902.87299928307     IErMin= 6 ErrMin= 3.23D-05
 ErrMax= 3.23D-05  0.00D+00 EMaxC= 1.00D-01 BMatC= 2.37D-07 BMatP= 3.78D-06
 IDIUse=1 WtCom= 1.00D+00 WtEn= 0.00D+00
 Coeff-Com:  0.184D-03-0.798D-04-0.640D-02-0.531D-01-0.230D-01 0.108D+01
 Coeff:      0.184D-03-0.798D-04-0.640D-02-0.531D-01-0.230D-01 0.108D+01
 Gap=     0.501 Goal=   None    Shift=    0.000
 RMSDP=3.44D-06 MaxDP=1.12D-04 DE=-5.79D-06 OVMax= 2.52D-04

 Cycle   7  Pass 1  IDiag  1:
 E= -2902.87299977841     Delta-E=       -0.000000495334 Rises=F Damp=F
 DIIS: error= 9.57D-06 at cycle   7 NSaved=   7.
 NSaved= 7 IEnMin= 7 EnMin= -2902.87299977841     IErMin= 7 ErrMin= 9.57D-06
 ErrMax= 9.57D-06  0.00D+00 EMaxC= 1.00D-01 BMatC= 3.24D-08 BMatP= 2.37D-07
 IDIUse=1 WtCom= 1.00D+00 WtEn= 0.00D+00
 Coeff-Com: -0.374D-04 0.130D-02 0.465D-02-0.709D-02-0.907D-01 0.121D+00
 Coeff-Com:  0.970D+00
 Coeff:     -0.374D-04 0.130D-02 0.465D-02-0.709D-02-0.907D-01 0.121D+00
 Coeff:      0.970D+00
 Gap=     0.501 Goal=   None    Shift=    0.000
 RMSDP=1.24D-06 MaxDP=4.73D-05 DE=-4.95D-07 OVMax= 9.26D-05

 Cycle   8  Pass 1  IDiag  1:
 E= -2902.87299983986     Delta-E=       -0.000000061456 Rises=F Damp=F
 DIIS: error= 5.33D-06 at cycle   8 NSaved=   8.
 NSaved= 8 IEnMin= 8 EnMin= -2902.87299983986     IErMin= 8 ErrMin= 5.33D-06
 ErrMax= 5.33D-06  0.00D+00 EMaxC= 1.00D-01 BMatC= 7.97D-09 BMatP= 3.24D-08
 IDIUse=1 WtCom= 1.00D+00 WtEn= 0.00D+00
 Coeff-Com: -0.318D-04 0.302D-03 0.201D-02 0.612D-02-0.204D-01-0.133D+00
 Coeff-Com:  0.299D+00 0.846D+00
 Coeff:     -0.318D-04 0.302D-03 0.201D-02 0.612D-02-0.204D-01-0.133D+00
 Coeff:      0.299D+00 0.846D+00
 Gap=     0.501 Goal=   None    Shift=    0.000
 RMSDP=5.37D-07 MaxDP=1.87D-05 DE=-6.15D-08 OVMax= 4.31D-05

 Cycle   9  Pass 1  IDiag  1:
 E= -2902.87299985244     Delta-E=       -0.000000012575 Rises=F Damp=F
 DIIS: error= 1.86D-06 at cycle   9 NSaved=   9.
 NSaved= 9 IEnMin= 9 EnMin= -2902.87299985244     IErMin= 9 ErrMin= 1.86D-06
 ErrMax= 1.86D-06  0.00D+00 EMaxC= 1.00D-01 BMatC= 7.11D-10 BMatP= 7.97D-09
 IDIUse=1 WtCom= 1.00D+00 WtEn= 0.00D+00
 Coeff-Com:  0.930D-05-0.240D-03-0.100D-02-0.158D-03 0.158D-01 0.125D-01
 Coeff-Com: -0.197D+00-0.204D+00 0.137D+01
 Coeff:      0.930D-05-0.240D-03-0.100D-02-0.158D-03 0.158D-01 0.125D-01
 Coeff:     -0.197D+00-0.204D+00 0.137D+01
 Gap=     0.501 Goal=   None    Shift=    0.000
 RMSDP=2.70D-07 MaxDP=5.90D-06 DE=-1.26D-08 OVMax= 2.93D-05

 Cycle  10  Pass 1  IDiag  1:
 E= -2902.87299985511     Delta-E=       -0.000000002667 Rises=F Damp=F
 DIIS: error= 6.31D-07 at cycle  10 NSaved=  10.
 NSaved=10 IEnMin=10 EnMin= -2902.87299985511     IErMin=10 ErrMin= 6.31D-07
 ErrMax= 6.31D-07  0.00D+00 EMaxC= 1.00D-01 BMatC= 7.16D-11 BMatP= 7.11D-10
 IDIUse=1 WtCom= 1.00D+00 WtEn= 0.00D+00
 Coeff-Com:  0.104D-05 0.561D-04 0.107D-03-0.909D-03-0.302D-02 0.127D-01
 Coeff-Com:  0.376D-01-0.291D-01-0.503D+00 0.149D+01
 Coeff:      0.104D-05 0.561D-04 0.107D-03-0.909D-03-0.302D-02 0.127D-01
 Coeff:      0.376D-01-0.291D-01-0.503D+00 0.149D+01
 Gap=     0.501 Goal=   None    Shift=    0.000
 RMSDP=9.63D-08 MaxDP=2.52D-06 DE=-2.67D-09 OVMax= 1.16D-05

 Cycle  11  Pass 1  IDiag  1:
 E= -2902.87299985540     Delta-E=       -0.000000000296 Rises=F Damp=F
 DIIS: error= 1.27D-07 at cycle  11 NSaved=  11.
 NSaved=11 IEnMin=11 EnMin= -2902.87299985540     IErMin=11 ErrMin= 1.27D-07
 ErrMax= 1.27D-07  0.00D+00 EMaxC= 1.00D-01 BMatC= 3.95D-12 BMatP= 7.16D-11
 IDIUse=1 WtCom= 1.00D+00 WtEn= 0.00D+00
 Coeff-Com: -0.861D-06 0.831D-06 0.399D-04 0.304D-03-0.438D-03-0.443D-02
 Coeff-Com:  0.684D-02 0.226D-01 0.464D-02-0.283D+00 0.125D+01
 Coeff:     -0.861D-06 0.831D-06 0.399D-04 0.304D-03-0.438D-03-0.443D-02
 Coeff:      0.684D-02 0.226D-01 0.464D-02-0.283D+00 0.125D+01
 Gap=     0.501 Goal=   None    Shift=    0.000
 RMSDP=1.90D-08 MaxDP=4.85D-07 DE=-2.96D-10 OVMax= 2.00D-06

 Cycle  12  Pass 1  IDiag  1:
 E= -2902.87299985542     Delta-E=       -0.000000000013 Rises=F Damp=F
 DIIS: error= 5.07D-08 at cycle  12 NSaved=  12.
 NSaved=12 IEnMin=12 EnMin= -2902.87299985542     IErMin=12 ErrMin= 5.07D-08
 ErrMax= 5.07D-08  0.00D+00 EMaxC= 1.00D-01 BMatC= 4.44D-13 BMatP= 3.95D-12
 IDIUse=1 WtCom= 1.00D+00 WtEn= 0.00D+00
 Coeff-Com: -0.953D-07-0.681D-05-0.149D-04 0.117D-03 0.356D-03-0.175D-02
 Coeff-Com: -0.364D-02 0.466D-02 0.508D-01-0.154D+00-0.555D-01 0.116D+01
 Coeff:     -0.953D-07-0.681D-05-0.149D-04 0.117D-03 0.356D-03-0.175D-02
 Coeff:     -0.364D-02 0.466D-02 0.508D-01-0.154D+00-0.555D-01 0.116D+01
 Gap=     0.501 Goal=   None    Shift=    0.000
 RMSDP=6.26D-09 MaxDP=1.62D-07 DE=-1.32D-11 OVMax= 6.63D-07

 SCF Done:  E(RHF) =  -2902.87299986     A.U. after   12 cycles
            NFock= 12  Conv=0.63D-08     -V/T= 2.0001
 KE= 2.902658775335D+03 PE=-7.241772172833D+03 EE= 1.285235322328D+03
 Leave Link  502 at Mon Mar 30 16:53:22 2020, MaxMem=  2147483648 cpu:              27.4 elap:               3.5
 (Enter /usr/local/g16/g16/l801.exe)
 Windowed orbitals will be sorted by symmetry type.
 ExpMin= 2.53D-02 ExpMax= 1.17D+07 ExpMxC= 1.33D+04 IAcc=3 IRadAn=         5 AccDes= 0.00D+00
 HarFok:  IExCor=  205 AccDes= 0.00D+00 IRadAn=         5 IDoV=-2 UseB2=F ITyADJ=14
 ICtDFT= 12500011 ScaDFX=  1.000000  1.000000  1.000000  1.000000
 Largest valence mixing into a core orbital is  1.17D-04
 Largest core mixing into a valence orbital is  3.83D-05
 Range of M.O.s used for correlation:    12   197
 NBasis=   197 NAE=    27 NBE=    27 NFC=    11 NFV=     0
 NROrb=    186 NOA=    16 NOB=    16 NVA=   170 NVB=   170

 **** Warning!!: The largest alpha MO coefficient is  0.16706404D+02

 Leave Link  801 at Mon Mar 30 16:53:22 2020, MaxMem=  2147483648 cpu:               0.6 elap:               0.0
 (Enter /usr/local/g16/g16/l804.exe)
 Closed-shell transformation, MDV=  2147483648 ITran=4 ISComp=1.
 Unit  1 TFree=       1248993 TCopy=        808885.
 Semi-Direct transformation.
 ModeAB=           2 MOrb=            16 LenV=    2146359186
 LASXX=     48528660 LTotXX=    48528660 LenRXX=    48528660
 LTotAB=    49298776 MaxLAS=    78372960 LenRXY=    78372960
 NonZer=    97057320 LenScr=   146313216 LnRSAI=           0
 LnScr1=           0 LExtra=           0 Total=    273214836
 MaxDsk=          -1 SrtSym=           F ITran=            4
 DoSDTr:  NPSUse= 16
 JobTyp=0 Pass  1:  I=   1 to  16.
 (rs|ai) integrals will be sorted in core.
 Complete sort for first half transformation.
 First half transformation complete.
 Begin second half transformation for I=  10.
 Begin second half transformation for I=  10.
 Complete sort for second half transformation.
 Second half transformation complete.
 SymMOI:  orbitals are not symmetric.
 Spin components of T(2) and E(2):
     alpha-alpha T2 =       0.2615581504D-01 E2=     -0.1003730267D+00
     alpha-beta  T2 =       0.1423943943D+00 E2=     -0.5577436167D+00
     beta-beta   T2 =       0.2615581504D-01 E2=     -0.1003730267D+00
 ANorm=    0.1093026086D+01
 E2 =    -0.7584896700D+00 EUMP2 =    -0.29036314895255D+04
 Leave Link  804 at Mon Mar 30 16:53:33 2020, MaxMem=  2147483648 cpu:             176.8 elap:              11.1
 (Enter /usr/local/g16/g16/l913.exe)
 CIDS:  MDV=  2147483648.
 Frozen-core window:  NFC=  11 NFV=   0.
 IFCWin=0 IBDFC=1 NFBD=     0     0 NFCmp=     0     0 NFFFC=     0     0
 Using DD3R+UMP44R for 1st iteration.
 Using DD4RQ for 2nd and later iterations.
 Keep R2 and R3 ints in memory in canonical form, NReq=393341111.
 FoFCou: FMM=F IPFlag=           0 FMFlag=           0 FMFlg1=           0
         NFxFlg=           0 DoJE=F BraDBF=F KetDBF=F FulRan=T
         wScrn=  0.000000 ICntrl=       600 IOpCl=  0 I1Cent=           0 NGrid=           0
         NMat0=    1 NMatS0=  19503 NMatT0=    0 NMatD0=    1 NMtDS0=    0 NMtDT0=    0
 Symmetry not used in FoFCou.
 Two-electron integral symmetry not used.
 CIDS: In Core Option IDoMem=           1.
 MP4(SDTQ)
 =========
 Produce multiple copies of IABC intergrals
 DD1Dir will call FoFMem   1 times, MxPair=       272
 NAB=   136 NAA=     0 NBB=     0.
 MP4(D)= -0.14936546D-01
 MP4(S)= -0.65572538D-02
 MP4(R+Q)=  0.15601579D-01
 T4(AAA)= -0.10652886D-02
 T4(AAB)= -0.14350444D-01
 Time for triples=     1768.94 seconds.
 MP4(T)=   -0.30831465D-01
 E3=       -0.11049981D-01        EUMP3=      -0.29036425395D+04
 E4(DQ)=    0.66503270D-03        UMP4(DQ)=   -0.29036418745D+04
 E4(SDQ)=  -0.58922211D-02        UMP4(SDQ)=  -0.29036484317D+04
 E4(SDTQ)= -0.36723686D-01        UMP4(SDTQ)= -0.29036792632D+04
 VARIATIONAL ENERGIES WITH THE FIRST-ORDER WAVEFUNCTION:
 E(VAR1)=  -0.29035171245D+04     E(CISD,4)=  -0.29035163508D+04
 Largest amplitude= 4.52D-02
 Discarding MO integrals.
 Leave Link  913 at Mon Mar 30 16:55:31 2020, MaxMem=  2147483648 cpu:            1891.9 elap:             118.4
 (Enter /usr/local/g16/g16/l601.exe)
 Copying SCF densities to generalized density rwf, IOpCl= 0 IROHF=0.

 **********************************************************************

            Population analysis using the SCF density.

 **********************************************************************

 Orbital symmetries:
       Occupied  (A) (A) (A) (A) (A) (A) (A) (A) (A) (A) (A) (A)
                 (A) (A) (A) (A) (A) (A) (A) (A) (A) (A) (A) (A)
                 (A) (A) (A)
       Virtual   (A) (A) (A) (A) (A) (A) (A) (A) (A) (A) (A) (A)
                 (A) (A) (A) (A) (A) (A) (A) (A) (A) (A) (A) (A)
                 (A) (A) (A) (A) (A) (A) (A) (A) (A) (A) (A) (A)
                 (A) (A) (A) (A) (A) (A) (A) (A) (A) (A) (A) (A)
                 (A) (A) (A) (A) (A) (A) (A) (A) (A) (A) (A) (A)
                 (A) (A) (A) (A) (A) (A) (A) (A) (A) (A) (A) (A)
                 (A) (A) (A) (A) (A) (A) (A) (A) (A) (A) (A) (A)
                 (A) (A) (A) (A) (A) (A) (A) (A) (A) (A) (A) (A)
                 (A) (A) (A) (A) (A) (A) (A) (A) (A) (A) (A) (A)
                 (A) (A) (A) (A) (A) (A) (A) (A) (A) (A) (A) (A)
                 (A) (A) (A) (A) (A) (A) (A) (A) (A) (A) (A) (A)
                 (A) (A) (A) (A) (A) (A) (A) (A) (A) (A) (A) (A)
                 (A) (A) (A) (A) (A) (A) (A) (A) (A) (A) (A) (A)
                 (A) (A) (A) (A) (A) (A) (A) (A) (A) (A) (A) (A)
                 (A) (A)
 The electronic state is 1-A.
 Alpha  occ. eigenvalues -- -520.19638 -69.93395 -63.04052 -63.04051 -63.04048
 Alpha  occ. eigenvalues --  -20.62883 -20.62696 -10.88061  -8.36277  -8.36264
 Alpha  occ. eigenvalues --   -8.36245  -3.85656  -3.85654  -3.85632  -3.85621
 Alpha  occ. eigenvalues --   -3.85616  -1.46822  -1.21616  -1.18731  -0.76433
 Alpha  occ. eigenvalues --   -0.64955  -0.59958  -0.57018  -0.55515  -0.54947
 Alpha  occ. eigenvalues --   -0.53844  -0.46508
 Alpha virt. eigenvalues --    0.03573   0.04588   0.08540   0.09437   0.11454
 Alpha virt. eigenvalues --    0.13364   0.14453   0.15940   0.18226   0.18922
 Alpha virt. eigenvalues --    0.19276   0.20872   0.22668   0.25893   0.26184
 Alpha virt. eigenvalues --    0.26935   0.28392   0.30827   0.34409   0.35250
 Alpha virt. eigenvalues --    0.35502   0.37405   0.40168   0.41118   0.42350
 Alpha virt. eigenvalues --    0.45449   0.47645   0.51354   0.56878   0.58245
 Alpha virt. eigenvalues --    0.63557   0.63818   0.65957   0.69196   0.72507
 Alpha virt. eigenvalues --    0.72910   0.75934   0.79012   0.80833   0.82244
 Alpha virt. eigenvalues --    0.82664   0.83298   0.85637   0.87861   0.89961
 Alpha virt. eigenvalues --    0.91656   0.92704   0.93936   0.96707   0.98281
 Alpha virt. eigenvalues --    0.99265   1.01052   1.02574   1.04793   1.07103
 Alpha virt. eigenvalues --    1.08436   1.10545   1.13005   1.13961   1.18283
 Alpha virt. eigenvalues --    1.20167   1.25978   1.26096   1.30220   1.31323
 Alpha virt. eigenvalues --    1.39080   1.44929   1.45358   1.49670   1.51584
 Alpha virt. eigenvalues --    1.57483   1.57788   1.60859   1.64767   1.69548
 Alpha virt. eigenvalues --    1.74351   1.80376   1.97433   2.03830   2.07837
 Alpha virt. eigenvalues --    2.14990   2.22937   2.24267   2.27217   2.30645
 Alpha virt. eigenvalues --    2.34331   2.36358   2.37196   2.42264   2.44532
 Alpha virt. eigenvalues --    2.46630   2.47789   2.48861   2.51467   2.52341
 Alpha virt. eigenvalues --    2.57296   2.59268   2.61566   2.64798   2.67706
 Alpha virt. eigenvalues --    2.69474   2.69818   2.73042   2.74275   2.76563
 Alpha virt. eigenvalues --    2.78123   2.81247   2.83210   2.88303   2.90027
 Alpha virt. eigenvalues --    2.93089   2.96389   2.99071   3.07891   3.09191
 Alpha virt. eigenvalues --    3.12359   3.21695   3.30325   3.30990   3.82905
 Alpha virt. eigenvalues --    3.87193   4.17310   4.21726   4.24216   4.28887
 Alpha virt. eigenvalues --    4.34603   4.40280   4.41731   4.43670   4.49670
 Alpha virt. eigenvalues --    4.66661   4.72920   4.87430   4.94590   4.97173
 Alpha virt. eigenvalues --    5.22939   5.26993   5.30403   5.32853   5.38577
 Alpha virt. eigenvalues --    5.42240   5.81652   6.17348   6.36339   6.42340
 Alpha virt. eigenvalues --    6.46202   6.67339   6.73696   6.77136   6.89799
 Alpha virt. eigenvalues --    7.02061   7.13908   7.18115   7.21211   7.22982
 Alpha virt. eigenvalues --    7.24511   7.25822   7.30021   7.31464   7.42572
 Alpha virt. eigenvalues --    7.53336   7.55488   7.61863   7.81602   7.91056
 Alpha virt. eigenvalues --    8.32879   8.42980   8.56236  14.59511  15.33635
          Condensed to atoms (all electrons):
               1          2          3          4          5
     1  O    8.145945  -0.100691   0.227010   0.008831  -0.019509
     2  O   -0.100691   8.145460   0.018184   0.236957  -0.013957
     3  H    0.227010   0.018184   0.503810  -0.008642  -0.001053
     4  H    0.008831   0.236957  -0.008642   0.499469  -0.010447
     5  Kr  -0.019509  -0.013957  -0.001053  -0.010447  36.031947
 Mulliken charges:
               1
     1  O   -0.261586
     2  O   -0.285954
     3  H    0.260691
     4  H    0.273832
     5  Kr   0.013018
 Sum of Mulliken charges =  -0.00000
 Mulliken charges with hydrogens summed into heavy atoms:
               1
     1  O   -0.000896
     2  O   -0.012122
     5  Kr   0.013018
         Mulliken charges condensed to fragments:
      1     -0.013018
      2      0.013018
 Electronic spatial extent (au):  <R**2>=            477.5252
 Charge=             -0.0000 electrons
 Dipole moment (field-independent basis, Debye):
    X=             -3.2698    Y=             -0.1485    Z=              0.9260  Tot=              3.4016
 Quadrupole moment (field-independent basis, Debye-Ang):
   XX=            -38.7097   YY=            -27.9765   ZZ=            -29.7268
   XY=             -0.5426   XZ=              1.2426   YZ=             -1.2030
 Traceless Quadrupole moment (field-independent basis, Debye-Ang):
   XX=             -6.5720   YY=              4.1611   ZZ=              2.4109
   XY=             -0.5426   XZ=              1.2426   YZ=             -1.2030
 Octapole moment (field-independent basis, Debye-Ang**2):
  XXX=            -43.8905  YYY=             -0.3858  ZZZ=              0.3284  XYY=             -7.1616
  XXY=             -1.3248  XXZ=              0.7863  XZZ=             -7.3362  YZZ=             -0.7759
  YYZ=              1.4278  XYZ=             -1.6007
 Hexadecapole moment (field-independent basis, Debye-Ang**3):
 XXXX=           -459.5989 YYYY=            -62.3380 ZZZZ=            -28.7535 XXXY=             -1.6881
 XXXZ=              0.0977 YYYX=             -1.0264 YYYZ=             -1.7020 ZZZX=              0.8048
 ZZZY=             -0.9168 XXYY=            -85.4180 XXZZ=            -74.5267 YYZZ=            -16.3791
 XXYZ=             -2.1623 YYXZ=              1.9204 ZZXY=             -1.0889
 N-N= 1.510050753149D+02 E-N=-7.241772172842D+03  KE= 2.902658775335D+03
 Leave Link  601 at Mon Mar 30 16:55:32 2020, MaxMem=  2147483648 cpu:               0.5 elap:               0.0
 (Enter /usr/local/g16/g16/l122.exe)
 CPIOFr:  IOpCl= 0 IRwI=-1 IRwCP=  731 ICalc= -1 LCPTot=       59414 Len1MO=      159453 IndFrg=       59414
 CPIOFr:  IOpCl= 0 IRwI=-1 IRwCP=  731 ICalc=  0 LCPTot=       59414 Len1MO=      159453 IndFrg=      218867
 Counterpoise: doing calculation for fragment   1 using the basis set of the full-system, NewBq=T
 Leave Link  122 at Mon Mar 30 16:55:32 2020, MaxMem=  2147483648 cpu:               0.0 elap:               0.0
 (Enter /usr/local/g16/g16/l301.exe)
 Basis read from rwf:  (5D, 7F)
 No pseudopotential information found on rwf file.
 There are   229 symmetry adapted cartesian basis functions of A   symmetry.
 There are   197 symmetry adapted basis functions of A   symmetry.
   197 basis functions,   415 primitive gaussians,   229 cartesian basis functions
     9 alpha electrons        9 beta electrons
       nuclear repulsion energy        36.6553687685 Hartrees.
 IExCor=    0 DFT=F Ex=HF Corr=None ExCW=0 ScaHFX=  1.000000
 ScaDFX=  1.000000  1.000000  1.000000  1.000000 ScalE2=  1.000000  1.000000
 IRadAn=      5 IRanWt=     -1 IRanGd=            0 ICorTp=0 IEmpDi=  4
 NAtoms=    5 NActive=    5 NUniq=    5 SFac= 1.00D+00 NAtFMM=   60 NAOKFM=F Big=F
 Integral buffers will be    131072 words long.
 Raffenetti 1 integral format.
 Two-electron integral symmetry is turned on.
 No density basis found on file   718.
 Leave Link  301 at Mon Mar 30 16:55:32 2020, MaxMem=  2147483648 cpu:               0.4 elap:               0.0
 (Enter /usr/local/g16/g16/l302.exe)
 NPDir=0 NMtPBC=     1 NCelOv=     1 NCel=       1 NClECP=     1 NCelD=      1
         NCelK=      1 NCelE2=     1 NClLst=     1 CellRange=     0.0.
 One-electron integrals computed using PRISM.
 One-electron integral symmetry used in STVInt
 NBasis=   197 RedAO= T EigKep=  1.84D-04  NBF=   197
 NBsUse=   197 1.00D-06 EigRej= -1.00D+00 NBFU=   197
 Leave Link  302 at Mon Mar 30 16:55:32 2020, MaxMem=  2147483648 cpu:               1.7 elap:               0.1
 (Enter /usr/local/g16/g16/l303.exe)
 DipDrv:  MaxL=1.
 Leave Link  303 at Mon Mar 30 16:55:32 2020, MaxMem=  2147483648 cpu:               0.4 elap:               0.0
 (Enter /usr/local/g16/g16/l401.exe)
 ExpMin= 2.53D-02 ExpMax= 1.17D+07 ExpMxC= 1.33D+04 IAcc=3 IRadAn=         5 AccDes= 0.00D+00
 Harris functional with IExCor=  205 and IRadAn=       5 diagonalized for initial guess.
 HarFok:  IExCor=  205 AccDes= 0.00D+00 IRadAn=         5 IDoV= 1 UseB2=F ITyADJ=14
 ICtDFT=  3500011 ScaDFX=  1.000000  1.000000  1.000000  1.000000
 FoFCou: FMM=F IPFlag=           0 FMFlag=      100000 FMFlg1=           0
         NFxFlg=           0 DoJE=T BraDBF=F KetDBF=T FulRan=T
         wScrn=  0.000000 ICntrl=       500 IOpCl=  0 I1Cent=   200000004 NGrid=           0
         NMat0=    1 NMatS0=      1 NMatT0=    0 NMatD0=    1 NMtDS0=    0 NMtDT0=    0
 Petite list used in FoFCou.
 Harris En= -150.933992223547    
 JPrj=0 DoOrth=F DoCkMO=F.
 Leave Link  401 at Mon Mar 30 16:55:32 2020, MaxMem=  2147483648 cpu:               3.2 elap:               0.2
 (Enter /usr/local/g16/g16/l502.exe)
 Keep R1 ints in memory in canonical form, NReq=203139626.
 FoFCou: FMM=F IPFlag=           0 FMFlag=           0 FMFlg1=           0
         NFxFlg=           0 DoJE=F BraDBF=F KetDBF=F FulRan=T
         wScrn=  0.000000 ICntrl=       600 IOpCl=  0 I1Cent=           0 NGrid=           0
         NMat0=    1 NMatS0=  19503 NMatT0=    0 NMatD0=    1 NMtDS0=    0 NMtDT0=    0
 Symmetry not used in FoFCou.
 Two-electron integral symmetry not used.
 Closed shell SCF:
 Using DIIS extrapolation, IDIIS=  1040.
 NGot=  2147483648 LenX=  1957179903 LenY=  1957127021
 Requested convergence on RMS density matrix=1.00D-08 within 128 cycles.
 Requested convergence on MAX density matrix=1.00D-06.
 Requested convergence on             energy=1.00D-06.
 No special actions if energy rises.

 Cycle   1  Pass 1  IDiag  1:
 E= -150.765699970302    
 DIIS: error= 2.43D-02 at cycle   1 NSaved=   1.
 NSaved= 1 IEnMin= 1 EnMin= -150.765699970302     IErMin= 1 ErrMin= 2.43D-02
 ErrMax= 2.43D-02  0.00D+00 EMaxC= 1.00D-01 BMatC= 2.31D-01 BMatP= 2.31D-01
 IDIUse=3 WtCom= 7.57D-01 WtEn= 2.43D-01
 Coeff-Com:  0.100D+01
 Coeff-En:   0.100D+01
 Coeff:      0.100D+01
 Gap=     0.695 Goal=   None    Shift=    0.000
 GapD=    0.695 DampG=2.000 DampE=0.500 DampFc=1.0000 IDamp=-1.
 RMSDP=9.01D-04 MaxDP=2.88D-02              OVMax= 6.78D-02

 Cycle   2  Pass 1  IDiag  1:
 E= -150.820369577425     Delta-E=       -0.054669607123 Rises=F Damp=F
 DIIS: error= 5.77D-03 at cycle   2 NSaved=   2.
 NSaved= 2 IEnMin= 2 EnMin= -150.820369577425     IErMin= 2 ErrMin= 5.77D-03
 ErrMax= 5.77D-03  0.00D+00 EMaxC= 1.00D-01 BMatC= 1.75D-02 BMatP= 2.31D-01
 IDIUse=3 WtCom= 9.42D-01 WtEn= 5.77D-02
 Coeff-Com:  0.114D+00 0.886D+00
 Coeff-En:   0.000D+00 0.100D+01
 Coeff:      0.108D+00 0.892D+00
 Gap=     0.521 Goal=   None    Shift=    0.000
 RMSDP=5.28D-04 MaxDP=2.52D-02 DE=-5.47D-02 OVMax= 2.95D-02

 Cycle   3  Pass 1  IDiag  1:
 E= -150.829343215487     Delta-E=       -0.008973638062 Rises=F Damp=F
 DIIS: error= 2.82D-03 at cycle   3 NSaved=   3.
 NSaved= 3 IEnMin= 3 EnMin= -150.829343215487     IErMin= 3 ErrMin= 2.82D-03
 ErrMax= 2.82D-03  0.00D+00 EMaxC= 1.00D-01 BMatC= 2.44D-03 BMatP= 1.75D-02
 IDIUse=3 WtCom= 9.72D-01 WtEn= 2.82D-02
 Coeff-Com: -0.211D-01 0.250D+00 0.771D+00
 Coeff-En:   0.000D+00 0.000D+00 0.100D+01
 Coeff:     -0.205D-01 0.243D+00 0.777D+00
 Gap=     0.491 Goal=   None    Shift=    0.000
 RMSDP=1.19D-04 MaxDP=4.38D-03 DE=-8.97D-03 OVMax= 9.71D-03

 Cycle   4  Pass 1  IDiag  1:
 E= -150.830876474508     Delta-E=       -0.001533259020 Rises=F Damp=F
 DIIS: error= 2.27D-04 at cycle   4 NSaved=   4.
 NSaved= 4 IEnMin= 4 EnMin= -150.830876474508     IErMin= 4 ErrMin= 2.27D-04
 ErrMax= 2.27D-04  0.00D+00 EMaxC= 1.00D-01 BMatC= 1.58D-05 BMatP= 2.44D-03
 IDIUse=3 WtCom= 9.98D-01 WtEn= 2.27D-03
 Coeff-Com: -0.186D-02-0.109D-01 0.612D-02 0.101D+01
 Coeff-En:   0.000D+00 0.000D+00 0.000D+00 0.100D+01
 Coeff:     -0.185D-02-0.109D-01 0.610D-02 0.101D+01
 Gap=     0.493 Goal=   None    Shift=    0.000
 RMSDP=1.82D-05 MaxDP=4.91D-04 DE=-1.53D-03 OVMax= 1.39D-03

 Cycle   5  Pass 1  IDiag  1:
 E= -150.830899544317     Delta-E=       -0.000023069809 Rises=F Damp=F
 DIIS: error= 8.35D-05 at cycle   5 NSaved=   5.
 NSaved= 5 IEnMin= 5 EnMin= -150.830899544317     IErMin= 5 ErrMin= 8.35D-05
 ErrMax= 8.35D-05  0.00D+00 EMaxC= 1.00D-01 BMatC= 1.60D-06 BMatP= 1.58D-05
 IDIUse=1 WtCom= 1.00D+00 WtEn= 0.00D+00
 Coeff-Com:  0.175D-02-0.168D-01-0.589D-01-0.160D+00 0.123D+01
 Coeff:      0.175D-02-0.168D-01-0.589D-01-0.160D+00 0.123D+01
 Gap=     0.493 Goal=   None    Shift=    0.000
 RMSDP=9.76D-06 MaxDP=3.04D-04 DE=-2.31D-05 OVMax= 8.89D-04

 Cycle   6  Pass 1  IDiag  1:
 E= -150.830903435999     Delta-E=       -0.000003891682 Rises=F Damp=F
 DIIS: error= 1.80D-05 at cycle   6 NSaved=   6.
 NSaved= 6 IEnMin= 6 EnMin= -150.830903435999     IErMin= 6 ErrMin= 1.80D-05
 ErrMax= 1.80D-05  0.00D+00 EMaxC= 1.00D-01 BMatC= 7.72D-08 BMatP= 1.60D-06
 IDIUse=1 WtCom= 1.00D+00 WtEn= 0.00D+00
 Coeff-Com: -0.490D-03 0.570D-02 0.208D-01 0.312D-01-0.493D+00 0.144D+01
 Coeff:     -0.490D-03 0.570D-02 0.208D-01 0.312D-01-0.493D+00 0.144D+01
 Gap=     0.493 Goal=   None    Shift=    0.000
 RMSDP=2.91D-06 MaxDP=8.24D-05 DE=-3.89D-06 OVMax= 3.06D-04

 Cycle   7  Pass 1  IDiag  1:
 E= -150.830903681397     Delta-E=       -0.000000245398 Rises=F Damp=F
 DIIS: error= 3.94D-06 at cycle   7 NSaved=   7.
 NSaved= 7 IEnMin= 7 EnMin= -150.830903681397     IErMin= 7 ErrMin= 3.94D-06
 ErrMax= 3.94D-06  0.00D+00 EMaxC= 1.00D-01 BMatC= 3.68D-09 BMatP= 7.72D-08
 IDIUse=1 WtCom= 1.00D+00 WtEn= 0.00D+00
 Coeff-Com:  0.104D-03-0.140D-02-0.552D-02-0.359D-02 0.127D+00-0.497D+00
 Coeff-Com:  0.138D+01
 Coeff:      0.104D-03-0.140D-02-0.552D-02-0.359D-02 0.127D+00-0.497D+00
 Coeff:      0.138D+01
 Gap=     0.493 Goal=   None    Shift=    0.000
 RMSDP=5.97D-07 MaxDP=1.35D-05 DE=-2.45D-07 OVMax= 7.52D-05

 Cycle   8  Pass 1  IDiag  1:
 E= -150.830903694508     Delta-E=       -0.000000013111 Rises=F Damp=F
 DIIS: error= 1.61D-06 at cycle   8 NSaved=   8.
 NSaved= 8 IEnMin= 8 EnMin= -150.830903694508     IErMin= 8 ErrMin= 1.61D-06
 ErrMax= 1.61D-06  0.00D+00 EMaxC= 1.00D-01 BMatC= 4.78D-10 BMatP= 3.68D-09
 IDIUse=1 WtCom= 1.00D+00 WtEn= 0.00D+00
 Coeff-Com: -0.650D-05 0.191D-03 0.103D-02-0.204D-02-0.190D-01 0.128D+00
 Coeff-Com: -0.749D+00 0.164D+01
 Coeff:     -0.650D-05 0.191D-03 0.103D-02-0.204D-02-0.190D-01 0.128D+00
 Coeff:     -0.749D+00 0.164D+01
 Gap=     0.493 Goal=   None    Shift=    0.000
 RMSDP=2.45D-07 MaxDP=6.42D-06 DE=-1.31D-08 OVMax= 3.79D-05

 Cycle   9  Pass 1  IDiag  1:
 E= -150.830903696477     Delta-E=       -0.000000001969 Rises=F Damp=F
 DIIS: error= 4.15D-07 at cycle   9 NSaved=   9.
 NSaved= 9 IEnMin= 9 EnMin= -150.830903696477     IErMin= 9 ErrMin= 4.15D-07
 ErrMax= 4.15D-07  0.00D+00 EMaxC= 1.00D-01 BMatC= 4.24D-11 BMatP= 4.78D-10
 IDIUse=1 WtCom= 1.00D+00 WtEn= 0.00D+00
 Coeff-Com: -0.732D-05 0.116D-03 0.492D-03 0.832D-04-0.115D-01 0.530D-01
 Coeff-Com: -0.207D+00 0.253D+00 0.912D+00
 Coeff:     -0.732D-05 0.116D-03 0.492D-03 0.832D-04-0.115D-01 0.530D-01
 Coeff:     -0.207D+00 0.253D+00 0.912D+00
 Gap=     0.493 Goal=   None    Shift=    0.000
 RMSDP=4.22D-08 MaxDP=1.53D-06 DE=-1.97D-09 OVMax= 6.11D-06

 Cycle  10  Pass 1  IDiag  1:
 E= -150.830903696558     Delta-E=       -0.000000000081 Rises=F Damp=F
 DIIS: error= 1.32D-07 at cycle  10 NSaved=  10.
 NSaved=10 IEnMin=10 EnMin= -150.830903696558     IErMin=10 ErrMin= 1.32D-07
 ErrMax= 1.32D-07  0.00D+00 EMaxC= 1.00D-01 BMatC= 1.03D-11 BMatP= 4.24D-11
 IDIUse=1 WtCom= 1.00D+00 WtEn= 0.00D+00
 Coeff-Com:  0.484D-07-0.235D-04-0.158D-03 0.685D-03 0.182D-02-0.194D-01
 Coeff-Com:  0.142D+00-0.363D+00 0.251D+00 0.988D+00
 Coeff:      0.484D-07-0.235D-04-0.158D-03 0.685D-03 0.182D-02-0.194D-01
 Coeff:      0.142D+00-0.363D+00 0.251D+00 0.988D+00
 Gap=     0.493 Goal=   None    Shift=    0.000
 RMSDP=2.27D-08 MaxDP=7.58D-07 DE=-8.14D-11 OVMax= 3.10D-06

 Cycle  11  Pass 1  IDiag  1:
 E= -150.830903696575     Delta-E=       -0.000000000017 Rises=F Damp=F
 DIIS: error= 3.14D-08 at cycle  11 NSaved=  11.
 NSaved=11 IEnMin=11 EnMin= -150.830903696575     IErMin=11 ErrMin= 3.14D-08
 ErrMax= 3.14D-08  0.00D+00 EMaxC= 1.00D-01 BMatC= 2.48D-13 BMatP= 1.03D-11
 IDIUse=1 WtCom= 1.00D+00 WtEn= 0.00D+00
 Coeff-Com:  0.612D-06-0.475D-05-0.358D-05-0.115D-03 0.319D-03 0.511D-03
 Coeff-Com: -0.165D-01 0.612D-01-0.112D+00-0.221D+00 0.129D+01
 Coeff:      0.612D-06-0.475D-05-0.358D-05-0.115D-03 0.319D-03 0.511D-03
 Coeff:     -0.165D-01 0.612D-01-0.112D+00-0.221D+00 0.129D+01
 Gap=     0.493 Goal=   None    Shift=    0.000
 RMSDP=4.87D-09 MaxDP=1.17D-07 DE=-1.71D-11 OVMax= 5.97D-07

 SCF Done:  E(RHF) =  -150.830903697     A.U. after   11 cycles
            NFock= 11  Conv=0.49D-08     -V/T= 2.0019
 KE= 1.505393837375D+02 PE=-4.315026690672D+02 EE= 9.347701286456D+01
 Leave Link  502 at Mon Mar 30 16:55:36 2020, MaxMem=  2147483648 cpu:              26.2 elap:               3.3
 (Enter /usr/local/g16/g16/l801.exe)
 Windowed orbitals will be sorted by symmetry type.
 ExpMin= 2.53D-02 ExpMax= 1.17D+07 ExpMxC= 1.33D+04 IAcc=3 IRadAn=         5 AccDes= 0.00D+00
 HarFok:  IExCor=  205 AccDes= 0.00D+00 IRadAn=         5 IDoV=-2 UseB2=F ITyADJ=14
 ICtDFT= 12500011 ScaDFX=  1.000000  1.000000  1.000000  1.000000
 Largest valence mixing into a core orbital is  1.19D-04
 Largest core mixing into a valence orbital is  2.08D-05
 Range of M.O.s used for correlation:     3   197
 NBasis=   197 NAE=     9 NBE=     9 NFC=     2 NFV=     0
 NROrb=    195 NOA=     7 NOB=     7 NVA=   188 NVB=   188

 **** Warning!!: The largest alpha MO coefficient is  0.13943435D+02

 Leave Link  801 at Mon Mar 30 16:55:36 2020, MaxMem=  2147483648 cpu:               0.7 elap:               0.0
 (Enter /usr/local/g16/g16/l804.exe)
 Closed-shell transformation, MDV=  2147483648 ITran=4 ISComp=1.
 Semi-Direct transformation.
 ModeAB=           2 MOrb=             7 LenV=    2146279203
 LASXX=     25261509 LTotXX=    25261509 LenRXX=    25261509
 LTotAB=    25646992 MaxLAS=    35947275 LenRXY=    35947275
 NonZer=    50523018 LenScr=    76544000 LnRSAI=           0
 LnScr1=           0 LExtra=           0 Total=    137752784
 MaxDsk=          -1 SrtSym=           F ITran=            4
 DoSDTr:  NPSUse= 16
 JobTyp=0 Pass  1:  I=   1 to   7.
 (rs|ai) integrals will be sorted in core.
 Complete sort for first half transformation.
 First half transformation complete.
 Complete sort for second half transformation.
 Second half transformation complete.
 SymMOI:  orbitals are not symmetric.
 Spin components of T(2) and E(2):
     alpha-alpha T2 =       0.1606215364D-01 E2=     -0.6287738935D-01
     alpha-beta  T2 =       0.9339286999D-01 E2=     -0.3821457615D+00
     beta-beta   T2 =       0.1606215364D-01 E2=     -0.6287738935D-01
 ANorm=    0.1060903943D+01
 E2 =    -0.5079005402D+00 EUMP2 =    -0.15133880423681D+03
 Leave Link  804 at Mon Mar 30 16:55:43 2020, MaxMem=  2147483648 cpu:             121.9 elap:               7.6
 (Enter /usr/local/g16/g16/l913.exe)
 CIDS:  MDV=  2147483648.
 Frozen-core window:  NFC=   2 NFV=   0.
 IFCWin=0 IBDFC=1 NFBD=     0     0 NFCmp=     0     0 NFFFC=     0     0
 Using DD3R+UMP44R for 1st iteration.
 Using DD4RQ for 2nd and later iterations.
 Keep R2 and R3 ints in memory in canonical form, NReq=393338303.
 FoFCou: FMM=F IPFlag=           0 FMFlag=           0 FMFlg1=           0
         NFxFlg=           0 DoJE=F BraDBF=F KetDBF=F FulRan=T
         wScrn=  0.000000 ICntrl=       600 IOpCl=  0 I1Cent=           0 NGrid=           0
         NMat0=    1 NMatS0=  19503 NMatT0=    0 NMatD0=    1 NMtDS0=    0 NMtDT0=    0
 Symmetry not used in FoFCou.
 Two-electron integral symmetry not used.
 CIDS: In Core Option IDoMem=           1.
 MP4(SDTQ)
 =========
 Produce multiple copies of IABC intergrals
 DD1Dir will call FoFMem   1 times, MxPair=        56
 NAB=    28 NAA=     0 NBB=     0.
 MP4(D)= -0.11236513D-01
 MP4(S)= -0.52204977D-02
 MP4(R+Q)=  0.10822231D-01
 T4(AAA)= -0.66481311D-03
 T4(AAB)= -0.10320357D-01
 Time for triples=      371.63 seconds.
 MP4(T)=   -0.21970340D-01
 E3=       -0.20359099D-02        EUMP3=      -0.15134084015D+03
 E4(DQ)=   -0.41428242D-03        UMP4(DQ)=   -0.15134125443D+03
 E4(SDQ)=  -0.56347801D-02        UMP4(SDQ)=  -0.15134647493D+03
 E4(SDTQ)= -0.27605120D-01        UMP4(SDTQ)= -0.15136844527D+03
 VARIATIONAL ENERGIES WITH THE FIRST-ORDER WAVEFUNCTION:
 E(VAR1)=  -0.15128397226D+03     E(CISD,4)=  -0.15129354692D+03
 Largest amplitude= 3.52D-02
 Discarding MO integrals.
 Leave Link  913 at Mon Mar 30 16:56:10 2020, MaxMem=  2147483648 cpu:             429.1 elap:              26.8
 (Enter /usr/local/g16/g16/l601.exe)
 Copying SCF densities to generalized density rwf, IOpCl= 0 IROHF=0.

 **********************************************************************

            Population analysis using the SCF density.

 **********************************************************************

 Orbital symmetries:
       Occupied  (A) (A) (A) (A) (A) (A) (A) (A) (A)
       Virtual   (A) (A) (A) (A) (A) (A) (A) (A) (A) (A) (A) (A)
                 (A) (A) (A) (A) (A) (A) (A) (A) (A) (A) (A) (A)
                 (A) (A) (A) (A) (A) (A) (A) (A) (A) (A) (A) (A)
                 (A) (A) (A) (A) (A) (A) (A) (A) (A) (A) (A) (A)
                 (A) (A) (A) (A) (A) (A) (A) (A) (A) (A) (A) (A)
                 (A) (A) (A) (A) (A) (A) (A) (A) (A) (A) (A) (A)
                 (A) (A) (A) (A) (A) (A) (A) (A) (A) (A) (A) (A)
                 (A) (A) (A) (A) (A) (A) (A) (A) (A) (A) (A) (A)
                 (A) (A) (A) (A) (A) (A) (A) (A) (A) (A) (A) (A)
                 (A) (A) (A) (A) (A) (A) (A) (A) (A) (A) (A) (A)
                 (A) (A) (A) (A) (A) (A) (A) (A) (A) (A) (A) (A)
                 (A) (A) (A) (A) (A) (A) (A) (A) (A) (A) (A) (A)
                 (A) (A) (A) (A) (A) (A) (A) (A) (A) (A) (A) (A)
                 (A) (A) (A) (A) (A) (A) (A) (A) (A) (A) (A) (A)
                 (A) (A) (A) (A) (A) (A) (A) (A) (A) (A) (A) (A)
                 (A) (A) (A) (A) (A) (A) (A) (A)
 The electronic state is 1-A.
 Alpha  occ. eigenvalues --  -20.63495 -20.63467  -1.47257  -1.22047  -0.76412
 Alpha  occ. eigenvalues --   -0.65177  -0.60024  -0.55511  -0.47073
 Alpha virt. eigenvalues --    0.02265   0.04119   0.07143   0.07923   0.10194
 Alpha virt. eigenvalues --    0.10306   0.13756   0.15822   0.17681   0.18421
 Alpha virt. eigenvalues --    0.19151   0.21258   0.22349   0.26528   0.27630
 Alpha virt. eigenvalues --    0.28399   0.29667   0.30216   0.33584   0.35070
 Alpha virt. eigenvalues --    0.35872   0.36321   0.38834   0.41182   0.43333
 Alpha virt. eigenvalues --    0.44051   0.46854   0.47441   0.50442   0.52981
 Alpha virt. eigenvalues --    0.55885   0.58885   0.63179   0.66409   0.71824
 Alpha virt. eigenvalues --    0.74170   0.76415   0.81190   0.81320   0.84616
 Alpha virt. eigenvalues --    0.86799   0.88112   0.91332   0.93009   0.95436
 Alpha virt. eigenvalues --    0.96550   0.98197   0.99642   1.01960   1.02907
 Alpha virt. eigenvalues --    1.06857   1.08925   1.10204   1.11649   1.13239
 Alpha virt. eigenvalues --    1.14837   1.17730   1.23732   1.24837   1.27401
 Alpha virt. eigenvalues --    1.30203   1.30503   1.31925   1.33553   1.35161
 Alpha virt. eigenvalues --    1.35931   1.37284   1.41869   1.46016   1.50165
 Alpha virt. eigenvalues --    1.52698   1.54550   1.58077   1.60571   1.65065
 Alpha virt. eigenvalues --    1.66503   1.71249   1.72356   1.80249   1.83525
 Alpha virt. eigenvalues --    1.88878   1.98345   2.04909   2.10981   2.16805
 Alpha virt. eigenvalues --    2.24218   2.25303   2.29960   2.35099   2.36934
 Alpha virt. eigenvalues --    2.41729   2.46294   2.47896   2.50462   2.53015
 Alpha virt. eigenvalues --    2.65109   2.67744   2.73642   2.76185   2.78331
 Alpha virt. eigenvalues --    2.80870   2.89442   3.03312   3.07050   3.11065
 Alpha virt. eigenvalues --    3.17481   3.24113   3.28158   3.28988   3.31579
 Alpha virt. eigenvalues --    3.45859   3.61584   3.75028   3.76815   3.80167
 Alpha virt. eigenvalues --    3.80637   3.81271   3.82161   3.83605   3.89917
 Alpha virt. eigenvalues --    3.91645   3.94024   3.96552   3.99516   4.09337
 Alpha virt. eigenvalues --    4.16585   4.18246   4.24590   4.28250   4.31710
 Alpha virt. eigenvalues --    4.36196   4.41487   4.43698   4.50502   4.50986
 Alpha virt. eigenvalues --    4.68471   4.75209   4.87416   4.95583   5.22369
 Alpha virt. eigenvalues --    5.26838   5.30208   5.32844   5.38483   5.42023
 Alpha virt. eigenvalues --    5.81187   6.16915   6.35508   6.41715   6.45593
 Alpha virt. eigenvalues --    6.66907   6.73227   6.76759   6.89337   7.01582
 Alpha virt. eigenvalues --    7.13248   7.17487   7.20717   7.22143   7.24054
 Alpha virt. eigenvalues --    7.25182   7.29468   7.30993   7.42072   7.52824
 Alpha virt. eigenvalues --    7.55043   7.60982   7.81095   7.90514   8.32284
 Alpha virt. eigenvalues --    8.42405   8.54983  11.04718  14.58144  14.81611
 Alpha virt. eigenvalues --   14.89424  15.06076  15.36296  29.01325  29.02016
 Alpha virt. eigenvalues --   29.06237  29.17064  29.21316  49.20098 148.29828
 Alpha virt. eigenvalues --  148.41641 148.70758 752.85369
          Condensed to atoms (all electrons):
               1          2          3          4          5
     1  O    8.123844  -0.100473   0.228236   0.008971   0.003798
     2  O   -0.100473   8.126376   0.017766   0.231555  -0.001103
     3  H    0.228236   0.017766   0.497255  -0.006179  -0.002405
     4  H    0.008971   0.231555  -0.006179   0.499667  -0.004509
     5  Kr   0.003798  -0.001103  -0.002405  -0.004509   0.001542
 Mulliken charges:
               1
     1  O   -0.264376
     2  O   -0.274121
     3  H    0.265326
     4  H    0.270495
     5  Kr   0.002676
 Sum of Mulliken charges =   0.00000
 Mulliken charges with hydrogens summed into heavy atoms:
               1
     1  O    0.000950
     2  O   -0.003626
     5  Kr   0.002676
         Mulliken charges condensed to fragments:
      1     -0.002676
      2      0.002676
 Electronic spatial extent (au):  <R**2>=            317.2919
 Charge=              0.0000 electrons
 Dipole moment (field-independent basis, Debye):
    X=             -2.8877    Y=             -0.0705    Z=              1.0736  Tot=              3.0816
 Quadrupole moment (field-independent basis, Debye-Ang):
   XX=            -21.1313   YY=            -10.3106   ZZ=            -12.1532
   XY=             -0.5908   XZ=              1.1326   YZ=             -1.2304
 Traceless Quadrupole moment (field-independent basis, Debye-Ang):
   XX=             -6.5996   YY=              4.2211   ZZ=              2.3785
   XY=             -0.5908   XZ=              1.1326   YZ=             -1.2304
 Octapole moment (field-independent basis, Debye-Ang**2):
  XXX=            -93.1233  YYY=             -0.4251  ZZZ=              0.3721  XYY=            -23.9897
  XXY=             -1.2348  XXZ=              0.8550  XZZ=            -24.2518  YZZ=             -0.7934
  YYZ=              1.4497  XYZ=             -1.5977
 Hexadecapole moment (field-independent basis, Debye-Ang**3):
 XXXX=           -340.4469 YYYY=            -44.1189 ZZZZ=            -10.7064 XXXY=             -1.5814
 XXXZ=             -0.0452 YYYX=             -1.0353 YYYZ=             -1.7434 ZZZX=              0.8120
 ZZZY=             -0.9536 XXYY=            -62.5743 XXZZ=            -51.9575 YYZZ=            -10.3244
 XXYZ=             -2.1574 YYXZ=              1.9090 ZZXY=             -1.0703
 N-N= 3.665536876852D+01 E-N=-4.315026691483D+02  KE= 1.505393837375D+02
 Leave Link  601 at Mon Mar 30 16:56:11 2020, MaxMem=  2147483648 cpu:               0.5 elap:               0.0
 (Enter /usr/local/g16/g16/l122.exe)
 CPIOFr:  IOpCl= 0 IRwI=-1 IRwCP=  731 ICalc=  1 LCPTot=       59414 Len1MO=      159453 IndFrg=      378320
 Counterpoise: doing calculation for fragment   2 using the basis set of the full-system, NewBq=T
 Leave Link  122 at Mon Mar 30 16:56:11 2020, MaxMem=  2147483648 cpu:               0.0 elap:               0.0
 (Enter /usr/local/g16/g16/l301.exe)
 Basis read from rwf:  (5D, 7F)
 No pseudopotential information found on rwf file.
 There are   229 symmetry adapted cartesian basis functions of A   symmetry.
 There are   197 symmetry adapted basis functions of A   symmetry.
   197 basis functions,   415 primitive gaussians,   229 cartesian basis functions
    18 alpha electrons       18 beta electrons
       nuclear repulsion energy         0.0000000000 Hartrees.
 IExCor=    0 DFT=F Ex=HF Corr=None ExCW=0 ScaHFX=  1.000000
 ScaDFX=  1.000000  1.000000  1.000000  1.000000 ScalE2=  1.000000  1.000000
 IRadAn=      5 IRanWt=     -1 IRanGd=            0 ICorTp=0 IEmpDi=  4
 NAtoms=    5 NActive=    5 NUniq=    5 SFac= 1.00D+00 NAtFMM=   60 NAOKFM=F Big=F
 Integral buffers will be    131072 words long.
 Raffenetti 1 integral format.
 Two-electron integral symmetry is turned on.
 No density basis found on file   718.
 Leave Link  301 at Mon Mar 30 16:56:11 2020, MaxMem=  2147483648 cpu:               0.4 elap:               0.0
 (Enter /usr/local/g16/g16/l302.exe)
 NPDir=0 NMtPBC=     1 NCelOv=     1 NCel=       1 NClECP=     1 NCelD=      1
         NCelK=      1 NCelE2=     1 NClLst=     1 CellRange=     0.0.
 One-electron integrals computed using PRISM.
 One-electron integral symmetry used in STVInt
 NBasis=   197 RedAO= T EigKep=  1.84D-04  NBF=   197
 NBsUse=   197 1.00D-06 EigRej= -1.00D+00 NBFU=   197
 Leave Link  302 at Mon Mar 30 16:56:11 2020, MaxMem=  2147483648 cpu:               1.7 elap:               0.1
 (Enter /usr/local/g16/g16/l303.exe)
 DipDrv:  MaxL=1.
 Leave Link  303 at Mon Mar 30 16:56:11 2020, MaxMem=  2147483648 cpu:               0.4 elap:               0.0
 (Enter /usr/local/g16/g16/l401.exe)
 ExpMin= 2.53D-02 ExpMax= 1.17D+07 ExpMxC= 1.33D+04 IAcc=3 IRadAn=         5 AccDes= 0.00D+00
 Harris functional with IExCor=  205 and IRadAn=       5 diagonalized for initial guess.
 HarFok:  IExCor=  205 AccDes= 0.00D+00 IRadAn=         5 IDoV= 1 UseB2=F ITyADJ=14
 ICtDFT=  3500011 ScaDFX=  1.000000  1.000000  1.000000  1.000000
 FoFCou: FMM=F IPFlag=           0 FMFlag=      100000 FMFlg1=           0
         NFxFlg=           0 DoJE=T BraDBF=F KetDBF=T FulRan=T
         wScrn=  0.000000 ICntrl=       500 IOpCl=  0 I1Cent=   200000004 NGrid=           0
         NMat0=    1 NMatS0=      1 NMatT0=    0 NMatD0=    1 NMtDS0=    0 NMtDT0=    0
 Petite list used in FoFCou.
 Harris En= -2751.06014073473    
 JPrj=0 DoOrth=F DoCkMO=F.
 Leave Link  401 at Mon Mar 30 16:56:11 2020, MaxMem=  2147483648 cpu:               3.2 elap:               0.2
 (Enter /usr/local/g16/g16/l502.exe)
 Keep R1 ints in memory in canonical form, NReq=203139626.
 FoFCou: FMM=F IPFlag=           0 FMFlag=           0 FMFlg1=           0
         NFxFlg=           0 DoJE=F BraDBF=F KetDBF=F FulRan=T
         wScrn=  0.000000 ICntrl=       600 IOpCl=  0 I1Cent=           0 NGrid=           0
         NMat0=    1 NMatS0=  19503 NMatT0=    0 NMatD0=    1 NMtDS0=    0 NMtDT0=    0
 Symmetry not used in FoFCou.
 Two-electron integral symmetry not used.
 Closed shell SCF:
 Using DIIS extrapolation, IDIIS=  1040.
 NGot=  2147483648 LenX=  1957179903 LenY=  1957127021
 Requested convergence on RMS density matrix=1.00D-08 within 128 cycles.
 Requested convergence on MAX density matrix=1.00D-06.
 Requested convergence on             energy=1.00D-06.
 No special actions if energy rises.

 Cycle   1  Pass 1  IDiag  1:
 E= -2752.00351672895    
 DIIS: error= 5.40D-02 at cycle   1 NSaved=   1.
 NSaved= 1 IEnMin= 1 EnMin= -2752.00351672895     IErMin= 1 ErrMin= 5.40D-02
 ErrMax= 5.40D-02  0.00D+00 EMaxC= 1.00D-01 BMatC= 4.32D-01 BMatP= 4.32D-01
 IDIUse=3 WtCom= 4.60D-01 WtEn= 5.40D-01
 Coeff-Com:  0.100D+01
 Coeff-En:   0.100D+01
 Coeff:      0.100D+01
 Gap=     0.630 Goal=   None    Shift=    0.000
 GapD=    0.630 DampG=2.000 DampE=0.500 DampFc=1.0000 IDamp=-1.
 RMSDP=1.78D-03 MaxDP=1.32D-01              OVMax= 2.38D-02

 Cycle   2  Pass 1  IDiag  1:
 E= -2752.04697073237     Delta-E=       -0.043454003420 Rises=F Damp=F
 DIIS: error= 6.36D-03 at cycle   2 NSaved=   2.
 NSaved= 2 IEnMin= 2 EnMin= -2752.04697073237     IErMin= 2 ErrMin= 6.36D-03
 ErrMax= 6.36D-03  0.00D+00 EMaxC= 1.00D-01 BMatC= 1.98D-02 BMatP= 4.32D-01
 IDIUse=3 WtCom= 9.36D-01 WtEn= 6.36D-02
 Coeff-Com:  0.151D+00 0.849D+00
 Coeff-En:   0.000D+00 0.100D+01
 Coeff:      0.142D+00 0.858D+00
 Gap=     0.545 Goal=   None    Shift=    0.000
 RMSDP=5.72D-04 MaxDP=3.57D-02 DE=-4.35D-02 OVMax= 1.31D-02

 Cycle   3  Pass 1  IDiag  1:
 E= -2752.05206165853     Delta-E=       -0.005090926160 Rises=F Damp=F
 DIIS: error= 1.14D-03 at cycle   3 NSaved=   3.
 NSaved= 3 IEnMin= 3 EnMin= -2752.05206165853     IErMin= 3 ErrMin= 1.14D-03
 ErrMax= 1.14D-03  0.00D+00 EMaxC= 1.00D-01 BMatC= 7.09D-04 BMatP= 1.98D-02
 IDIUse=3 WtCom= 9.89D-01 WtEn= 1.14D-02
 Coeff-Com: -0.130D-02 0.154D+00 0.847D+00
 Coeff-En:   0.000D+00 0.000D+00 0.100D+01
 Coeff:     -0.129D-02 0.152D+00 0.849D+00
 Gap=     0.556 Goal=   None    Shift=    0.000
 RMSDP=7.51D-05 MaxDP=4.43D-03 DE=-5.09D-03 OVMax= 2.87D-03

 Cycle   4  Pass 1  IDiag  1:
 E= -2752.05227171881     Delta-E=       -0.000210060276 Rises=F Damp=F
 DIIS: error= 4.13D-05 at cycle   4 NSaved=   4.
 NSaved= 4 IEnMin= 4 EnMin= -2752.05227171881     IErMin= 4 ErrMin= 4.13D-05
 ErrMax= 4.13D-05  0.00D+00 EMaxC= 1.00D-01 BMatC= 7.03D-07 BMatP= 7.09D-04
 IDIUse=1 WtCom= 1.00D+00 WtEn= 0.00D+00
 Coeff-Com: -0.358D-03-0.173D-01-0.584D-01 0.108D+01
 Coeff:     -0.358D-03-0.173D-01-0.584D-01 0.108D+01
 Gap=     0.555 Goal=   None    Shift=    0.000
 RMSDP=6.13D-06 MaxDP=2.87D-04 DE=-2.10D-04 OVMax= 2.69D-04

 Cycle   5  Pass 1  IDiag  1:
 E= -2752.05227214704     Delta-E=       -0.000000428236 Rises=F Damp=F
 DIIS: error= 2.85D-06 at cycle   5 NSaved=   5.
 NSaved= 5 IEnMin= 5 EnMin= -2752.05227214704     IErMin= 5 ErrMin= 2.85D-06
 ErrMax= 2.85D-06  0.00D+00 EMaxC= 1.00D-01 BMatC= 6.12D-09 BMatP= 7.03D-07
 IDIUse=1 WtCom= 1.00D+00 WtEn= 0.00D+00
 Coeff-Com:  0.611D-04-0.405D-05-0.525D-02-0.850D-01 0.109D+01
 Coeff:      0.611D-04-0.405D-05-0.525D-02-0.850D-01 0.109D+01
 Gap=     0.555 Goal=   None    Shift=    0.000
 RMSDP=6.90D-07 MaxDP=2.92D-05 DE=-4.28D-07 OVMax= 2.79D-05

 Cycle   6  Pass 1  IDiag  1:
 E= -2752.05227215299     Delta-E=       -0.000000005950 Rises=F Damp=F
 DIIS: error= 3.31D-07 at cycle   6 NSaved=   6.
 NSaved= 6 IEnMin= 6 EnMin= -2752.05227215299     IErMin= 6 ErrMin= 3.31D-07
 ErrMax= 3.31D-07  0.00D+00 EMaxC= 1.00D-01 BMatC= 4.19D-11 BMatP= 6.12D-09
 IDIUse=1 WtCom= 1.00D+00 WtEn= 0.00D+00
 Coeff-Com: -0.296D-05 0.990D-04 0.871D-03-0.197D-02-0.925D-01 0.109D+01
 Coeff:     -0.296D-05 0.990D-04 0.871D-03-0.197D-02-0.925D-01 0.109D+01
 Gap=     0.555 Goal=   None    Shift=    0.000
 RMSDP=6.37D-08 MaxDP=3.76D-06 DE=-5.95D-09 OVMax= 3.33D-06

 Cycle   7  Pass 1  IDiag  1:
 E= -2752.05227215303     Delta-E=       -0.000000000031 Rises=F Damp=F
 DIIS: error= 1.97D-08 at cycle   7 NSaved=   7.
 NSaved= 7 IEnMin= 7 EnMin= -2752.05227215303     IErMin= 7 ErrMin= 1.97D-08
 ErrMax= 1.97D-08  0.00D+00 EMaxC= 1.00D-01 BMatC= 1.66D-13 BMatP= 4.19D-11
 IDIUse=1 WtCom= 1.00D+00 WtEn= 0.00D+00
 Coeff-Com: -0.233D-07-0.160D-05-0.131D-04 0.209D-03 0.631D-03-0.400D-01
 Coeff-Com:  0.104D+01
 Coeff:     -0.233D-07-0.160D-05-0.131D-04 0.209D-03 0.631D-03-0.400D-01
 Coeff:      0.104D+01
 Gap=     0.555 Goal=   None    Shift=    0.000
 RMSDP=5.46D-09 MaxDP=2.05D-07 DE=-3.14D-11 OVMax= 2.65D-07

 SCF Done:  E(RHF) =  -2752.05227215     A.U. after    7 cycles
            NFock=  7  Conv=0.55D-08     -V/T= 2.0000
 KE= 2.752038634158D+03 PE=-6.582553355184D+03 EE= 1.078462448873D+03
 Leave Link  502 at Mon Mar 30 16:56:14 2020, MaxMem=  2147483648 cpu:              25.0 elap:               2.6
 (Enter /usr/local/g16/g16/l801.exe)
 Windowed orbitals will be sorted by symmetry type.
 ExpMin= 2.53D-02 ExpMax= 1.17D+07 ExpMxC= 1.33D+04 IAcc=3 IRadAn=         5 AccDes= 0.00D+00
 HarFok:  IExCor=  205 AccDes= 0.00D+00 IRadAn=         5 IDoV=-2 UseB2=F ITyADJ=14
 ICtDFT= 12500011 ScaDFX=  1.000000  1.000000  1.000000  1.000000
 Largest valence mixing into a core orbital is  9.81D-05
 Largest core mixing into a valence orbital is  3.83D-05
 Range of M.O.s used for correlation:    10   197
 NBasis=   197 NAE=    18 NBE=    18 NFC=     9 NFV=     0
 NROrb=    188 NOA=     9 NOB=     9 NVA=   179 NVB=   179

 **** Warning!!: The largest alpha MO coefficient is  0.15189620D+02

 Leave Link  801 at Mon Mar 30 16:56:14 2020, MaxMem=  2147483648 cpu:               0.5 elap:               0.0
 (Enter /usr/local/g16/g16/l804.exe)
 Closed-shell transformation, MDV=  2147483648 ITran=4 ISComp=1.
 Semi-Direct transformation.
 ModeAB=           2 MOrb=             9 LenV=    2146333694
 LASXX=     28892340 LTotXX=    28892340 LenRXX=    28892340
 LTotAB=    29348001 MaxLAS=    44558820 LenRXY=    44558820
 NonZer=    57784680 LenScr=    87449600 LnRSAI=           0
 LnScr1=           0 LExtra=           0 Total=    160900760
 MaxDsk=          -1 SrtSym=           F ITran=            4
 DoSDTr:  NPSUse= 16
 JobTyp=0 Pass  1:  I=   1 to   9.
 (rs|ai) integrals will be sorted in core.
 Complete sort for first half transformation.
 First half transformation complete.
 Complete sort for second half transformation.
 Second half transformation complete.
 SymMOI:  orbitals are not symmetric.
 Spin components of T(2) and E(2):
     alpha-alpha T2 =       0.9506342757D-02 E2=     -0.3585348893D-01
     alpha-beta  T2 =       0.4821745254D-01 E2=     -0.1726023874D+00
     beta-beta   T2 =       0.9506342757D-02 E2=     -0.3585348893D-01
 ANorm=    0.1033068312D+01
 E2 =    -0.2443093652D+00 EUMP2 =    -0.27522965815183D+04
 Leave Link  804 at Mon Mar 30 16:56:22 2020, MaxMem=  2147483648 cpu:             130.5 elap:               8.2
 (Enter /usr/local/g16/g16/l913.exe)
 CIDS:  MDV=  2147483648.
 Frozen-core window:  NFC=   9 NFV=   0.
 IFCWin=0 IBDFC=1 NFBD=     0     0 NFCmp=     0     0 NFFFC=     0     0
 Using DD3R+UMP44R for 1st iteration.
 Using DD4RQ for 2nd and later iterations.
 Keep R2 and R3 ints in memory in canonical form, NReq=393338893.
 FoFCou: FMM=F IPFlag=           0 FMFlag=           0 FMFlg1=           0
         NFxFlg=           0 DoJE=F BraDBF=F KetDBF=F FulRan=T
         wScrn=  0.000000 ICntrl=       600 IOpCl=  0 I1Cent=           0 NGrid=           0
         NMat0=    1 NMatS0=  19503 NMatT0=    0 NMatD0=    1 NMtDS0=    0 NMtDT0=    0
 Symmetry not used in FoFCou.
 Two-electron integral symmetry not used.
 CIDS: In Core Option IDoMem=           1.
 MP4(SDTQ)
 =========
 Produce multiple copies of IABC intergrals
 DD1Dir will call FoFMem   1 times, MxPair=        90
 NAB=    45 NAA=     0 NBB=     0.
 MP4(D)= -0.37271948D-02
 MP4(S)= -0.10923856D-02
 MP4(R+Q)=  0.42555833D-02
 T4(AAA)= -0.32613766D-03
 T4(AAB)= -0.35708885D-02
 Time for triples=      475.32 seconds.
 MP4(T)=   -0.77940523D-02
 E3=       -0.98502328D-02        EUMP3=      -0.27523064318D+04
 E4(DQ)=    0.52838856D-03        UMP4(DQ)=   -0.27523059034D+04
 E4(SDQ)=  -0.56399708D-03        UMP4(SDQ)=  -0.27523069957D+04
 E4(SDTQ)= -0.83580493D-02        UMP4(SDTQ)= -0.27523147898D+04
 VARIATIONAL ENERGIES WITH THE FIRST-ORDER WAVEFUNCTION:
 E(VAR1)=  -0.27522904210D+04     E(CISD,4)=  -0.27522948264D+04
 Largest amplitude= 1.25D-02
 Discarding MO integrals.
 Leave Link  913 at Mon Mar 30 16:56:56 2020, MaxMem=  2147483648 cpu:             542.9 elap:              34.0
 (Enter /usr/local/g16/g16/l601.exe)
 Copying SCF densities to generalized density rwf, IOpCl= 0 IROHF=0.

 **********************************************************************

            Population analysis using the SCF density.

 **********************************************************************

 Orbital symmetries:
       Occupied  (A) (A) (A) (A) (A) (A) (A) (A) (A) (A) (A) (A)
                 (A) (A) (A) (A) (A) (A)
       Virtual   (A) (A) (A) (A) (A) (A) (A) (A) (A) (A) (A) (A)
                 (A) (A) (A) (A) (A) (A) (A) (A) (A) (A) (A) (A)
                 (A) (A) (A) (A) (A) (A) (A) (A) (A) (A) (A) (A)
                 (A) (A) (A) (A) (A) (A) (A) (A) (A) (A) (A) (A)
                 (A) (A) (A) (A) (A) (A) (A) (A) (A) (A) (A) (A)
                 (A) (A) (A) (A) (A) (A) (A) (A) (A) (A) (A) (A)
                 (A) (A) (A) (A) (A) (A) (A) (A) (A) (A) (A) (A)
                 (A) (A) (A) (A) (A) (A) (A) (A) (A) (A) (A) (A)
                 (A) (A) (A) (A) (A) (A) (A) (A) (A) (A) (A) (A)
                 (A) (A) (A) (A) (A) (A) (A) (A) (A) (A) (A) (A)
                 (A) (A) (A) (A) (A) (A) (A) (A) (A) (A) (A) (A)
                 (A) (A) (A) (A) (A) (A) (A) (A) (A) (A) (A) (A)
                 (A) (A) (A) (A) (A) (A) (A) (A) (A) (A) (A) (A)
                 (A) (A) (A) (A) (A) (A) (A) (A) (A) (A) (A) (A)
                 (A) (A) (A) (A) (A) (A) (A) (A) (A) (A) (A)
 The electronic state is 1-A.
 Alpha  occ. eigenvalues -- -520.16583 -69.90316 -63.00975 -63.00974 -63.00974
 Alpha  occ. eigenvalues --  -10.84954  -8.33154  -8.33154  -8.33153  -3.82532
 Alpha  occ. eigenvalues --   -3.82532  -3.82531  -3.82530  -3.82530  -1.15311
 Alpha  occ. eigenvalues --   -0.52430  -0.52429  -0.52428
 Alpha virt. eigenvalues --    0.03111   0.04976   0.08690   0.09582   0.12269
 Alpha virt. eigenvalues --    0.13156   0.13593   0.13893   0.16085   0.17261
 Alpha virt. eigenvalues --    0.17946   0.19105   0.21714   0.27210   0.28496
 Alpha virt. eigenvalues --    0.28999   0.30163   0.33299   0.34571   0.37350
 Alpha virt. eigenvalues --    0.38091   0.39355   0.40246   0.41612   0.42625
 Alpha virt. eigenvalues --    0.42711   0.47179   0.55804   0.58237   0.62168
 Alpha virt. eigenvalues --    0.64303   0.65829   0.68663   0.70818   0.73800
 Alpha virt. eigenvalues --    0.73927   0.76872   0.79630   0.80344   0.81801
 Alpha virt. eigenvalues --    0.83075   0.86290   0.87429   0.88115   0.90473
 Alpha virt. eigenvalues --    0.90648   0.92727   0.93065   0.95146   0.99533
 Alpha virt. eigenvalues --    1.01252   1.01829   1.04261   1.04993   1.06489
 Alpha virt. eigenvalues --    1.09749   1.10488   1.12089   1.17832   1.20259
 Alpha virt. eigenvalues --    1.22885   1.25389   1.31922   1.36796   1.39040
 Alpha virt. eigenvalues --    1.39953   1.42292   1.51066   1.52013   1.54811
 Alpha virt. eigenvalues --    1.60736   1.63348   1.65312   1.73672   1.79940
 Alpha virt. eigenvalues --    1.85000   1.86952   1.88378   1.91710   2.24380
 Alpha virt. eigenvalues --    2.28141   2.36108   2.37830   2.38602   2.39461
 Alpha virt. eigenvalues --    2.42661   2.46658   2.47494   2.49838   2.53053
 Alpha virt. eigenvalues --    2.54500   2.55489   2.57141   2.59191   2.60982
 Alpha virt. eigenvalues --    2.64684   2.65850   2.67372   2.69634   2.71014
 Alpha virt. eigenvalues --    2.71545   2.73277   2.79748   2.81338   2.82482
 Alpha virt. eigenvalues --    2.83595   2.89380   2.92822   2.94822   2.99519
 Alpha virt. eigenvalues --    3.01887   3.04385   3.08384   3.10593   3.19545
 Alpha virt. eigenvalues --    3.23790   3.27593   3.32870   3.41722   3.48382
 Alpha virt. eigenvalues --    3.61608   3.66555   3.84103   3.87608   4.02514
 Alpha virt. eigenvalues --    4.47345   4.52238   4.56797   4.59156   4.70998
 Alpha virt. eigenvalues --    4.80066   4.88373   4.90960   5.00031   5.13282
 Alpha virt. eigenvalues --    5.20307   5.23293   5.57552   5.65356   5.78618
 Alpha virt. eigenvalues --    5.94818   6.06555   6.09040   6.78447   6.86592
 Alpha virt. eigenvalues --    7.36370   7.37512   7.62375   7.70231   7.74222
 Alpha virt. eigenvalues --    7.84328   8.00438   8.15370   8.17879   8.26751
 Alpha virt. eigenvalues --    8.29376   8.45005   8.65676   8.94869   9.54391
 Alpha virt. eigenvalues --    9.72823   9.82019   9.89269   9.94765   9.95472
 Alpha virt. eigenvalues --   10.18521  10.22311  10.60033  10.91629  11.55465
 Alpha virt. eigenvalues --   11.61024  11.74076  11.99420  12.01446  13.22365
 Alpha virt. eigenvalues --   13.65386  14.53069  62.55059  64.69298
          Condensed to atoms (all electrons):
               1          2          3          4          5
     1  O    0.000416  -0.000233  -0.000310   0.000167  -0.002856
     2  O   -0.000233   0.001250   0.000093  -0.000918  -0.002245
     3  H   -0.000310   0.000093   0.000406  -0.000121  -0.002563
     4  H    0.000167  -0.000918  -0.000121   0.001001  -0.007796
     5  Kr  -0.002856  -0.002245  -0.002563  -0.007796  36.030494
 Mulliken charges:
               1
     1  O    0.002816
     2  O    0.002054
     3  H    0.002495
     4  H    0.007668
     5  Kr  -0.015034
 Sum of Mulliken charges =  -0.00000
 Mulliken charges with hydrogens summed into heavy atoms:
               1
     1  O    0.005311
     2  O    0.009722
     5  Kr  -0.015034
         Mulliken charges condensed to fragments:
      1      0.015034
      2     -0.015034
 Electronic spatial extent (au):  <R**2>=            160.5138
 Charge=             -0.0000 electrons
 Dipole moment (field-independent basis, Debye):
    X=              0.0011    Y=              0.0002    Z=              0.0001  Tot=              0.0011
 Quadrupole moment (field-independent basis, Debye-Ang):
   XX=            -17.7274   YY=            -17.7317   ZZ=            -17.7363
   XY=              0.0010   XZ=              0.0014   YZ=             -0.0007
 Traceless Quadrupole moment (field-independent basis, Debye-Ang):
   XX=              0.0044   YY=              0.0001   ZZ=             -0.0045
   XY=              0.0010   XZ=              0.0014   YZ=             -0.0007
 Octapole moment (field-independent basis, Debye-Ang**2):
  XXX=             51.5866  YYY=              0.1151  ZZZ=              0.1934  XYY=             17.2023
  XXY=              0.0355  XXZ=              0.0622  XZZ=             17.2062  YZZ=              0.0387
  YYZ=              0.0649  XYZ=              0.0002
 Hexadecapole moment (field-independent basis, Debye-Ang**3):
 XXXX=           -118.6058 YYYY=            -18.5396 ZZZZ=            -18.5572 XXXY=             -0.1054
 XXXZ=             -0.1835 YYYX=             -0.1077 YYYZ=             -0.0003 ZZZX=             -0.1837
 ZZZY=             -0.0012 XXYY=            -22.8626 XXZZ=            -22.8688 YYZZ=             -6.1827
 XXYZ=             -0.0007 YYXZ=             -0.0613 ZZXY=             -0.0354
 N-N= 0.000000000000D+00 E-N=-6.582553356574D+03  KE= 2.752038634158D+03
 Leave Link  601 at Mon Mar 30 16:56:56 2020, MaxMem=  2147483648 cpu:               0.6 elap:               0.1
 (Enter /usr/local/g16/g16/l122.exe)
 CPIOFr:  IOpCl= 0 IRwI=-1 IRwCP=  731 ICalc=  2 LCPTot=       59414 Len1MO=      159453 IndFrg=      537773
 Counterpoise: doing calculation for fragment   1 using the basis set of the fragment.
 Leave Link  122 at Mon Mar 30 16:56:56 2020, MaxMem=  2147483648 cpu:               0.0 elap:               0.0
 (Enter /usr/local/g16/g16/l301.exe)
 Basis read from rwf:  (5D, 7F)
 No pseudopotential information found on rwf file.
 There are   160 symmetry adapted cartesian basis functions of A   symmetry.
 There are   138 symmetry adapted basis functions of A   symmetry.
   138 basis functions,   198 primitive gaussians,   160 cartesian basis functions
     9 alpha electrons        9 beta electrons
       nuclear repulsion energy        36.6553687685 Hartrees.
 IExCor=    0 DFT=F Ex=HF Corr=None ExCW=0 ScaHFX=  1.000000
 ScaDFX=  1.000000  1.000000  1.000000  1.000000 ScalE2=  1.000000  1.000000
 IRadAn=      5 IRanWt=     -1 IRanGd=            0 ICorTp=0 IEmpDi=  4
 NAtoms=    5 NActive=    4 NUniq=    4 SFac= 1.00D+00 NAtFMM=   60 NAOKFM=F Big=F
 Integral buffers will be    131072 words long.
 Raffenetti 1 integral format.
 Two-electron integral symmetry is turned on.
 No density basis found on file   718.
 Leave Link  301 at Mon Mar 30 16:56:56 2020, MaxMem=  2147483648 cpu:               0.4 elap:               0.0
 (Enter /usr/local/g16/g16/l302.exe)
 NPDir=0 NMtPBC=     1 NCelOv=     1 NCel=       1 NClECP=     1 NCelD=      1
         NCelK=      1 NCelE2=     1 NClLst=     1 CellRange=     0.0.
 One-electron integrals computed using PRISM.
 One-electron integral symmetry used in STVInt
 NBasis=   138 RedAO= T EigKep=  2.25D-04  NBF=   138
 NBsUse=   138 1.00D-06 EigRej= -1.00D+00 NBFU=   138
 Leave Link  302 at Mon Mar 30 16:56:56 2020, MaxMem=  2147483648 cpu:               1.4 elap:               0.1
 (Enter /usr/local/g16/g16/l303.exe)
 DipDrv:  MaxL=1.
 Leave Link  303 at Mon Mar 30 16:56:56 2020, MaxMem=  2147483648 cpu:               0.3 elap:               0.0
 (Enter /usr/local/g16/g16/l401.exe)
 ExpMin= 2.53D-02 ExpMax= 1.53D+04 ExpMxC= 5.22D+02 IAcc=3 IRadAn=         5 AccDes= 0.00D+00
 Harris functional with IExCor=  205 and IRadAn=       5 diagonalized for initial guess.
 HarFok:  IExCor=  205 AccDes= 0.00D+00 IRadAn=         5 IDoV= 1 UseB2=F ITyADJ=14
 ICtDFT=  3500011 ScaDFX=  1.000000  1.000000  1.000000  1.000000
 FoFCou: FMM=F IPFlag=           0 FMFlag=      100000 FMFlg1=           0
         NFxFlg=           0 DoJE=T BraDBF=F KetDBF=T FulRan=T
         wScrn=  0.000000 ICntrl=       500 IOpCl=  0 I1Cent=   200000004 NGrid=           0
         NMat0=    1 NMatS0=      1 NMatT0=    0 NMatD0=    1 NMtDS0=    0 NMtDT0=    0
 Petite list used in FoFCou.
 Harris En= -150.933901787014    
 JPrj=0 DoOrth=F DoCkMO=F.
 Leave Link  401 at Mon Mar 30 16:56:57 2020, MaxMem=  2147483648 cpu:               2.3 elap:               0.1
 (Enter /usr/local/g16/g16/l502.exe)
 Keep R1 ints in memory in canonical form, NReq=53860811.
 FoFCou: FMM=F IPFlag=           0 FMFlag=           0 FMFlg1=           0
         NFxFlg=           0 DoJE=F BraDBF=F KetDBF=F FulRan=T
         wScrn=  0.000000 ICntrl=       600 IOpCl=  0 I1Cent=           0 NGrid=           0
         NMat0=    1 NMatS0=   9591 NMatT0=    0 NMatD0=    1 NMtDS0=    0 NMtDT0=    0
 Symmetry not used in FoFCou.
 Two-electron integral symmetry not used.
 Closed shell SCF:
 Using DIIS extrapolation, IDIIS=  1040.
 NGot=  2147483648 LenX=  2101430001 LenY=  2101403960
 Requested convergence on RMS density matrix=1.00D-08 within 128 cycles.
 Requested convergence on MAX density matrix=1.00D-06.
 Requested convergence on             energy=1.00D-06.
 No special actions if energy rises.

 Cycle   1  Pass 1  IDiag  1:
 E= -150.765649284360    
 DIIS: error= 3.72D-02 at cycle   1 NSaved=   1.
 NSaved= 1 IEnMin= 1 EnMin= -150.765649284360     IErMin= 1 ErrMin= 3.72D-02
 ErrMax= 3.72D-02  0.00D+00 EMaxC= 1.00D-01 BMatC= 2.30D-01 BMatP= 2.30D-01
 IDIUse=3 WtCom= 6.28D-01 WtEn= 3.72D-01
 Coeff-Com:  0.100D+01
 Coeff-En:   0.100D+01
 Coeff:      0.100D+01
 Gap=     0.695 Goal=   None    Shift=    0.000
 GapD=    0.695 DampG=2.000 DampE=0.500 DampFc=1.0000 IDamp=-1.
 RMSDP=1.28D-03 MaxDP=2.86D-02              OVMax= 6.77D-02

 Cycle   2  Pass 1  IDiag  1:
 E= -150.820300820594     Delta-E=       -0.054651536234 Rises=F Damp=F
 DIIS: error= 1.07D-02 at cycle   2 NSaved=   2.
 NSaved= 2 IEnMin= 2 EnMin= -150.820300820594     IErMin= 2 ErrMin= 1.07D-02
 ErrMax= 1.07D-02  0.00D+00 EMaxC= 1.00D-01 BMatC= 1.75D-02 BMatP= 2.30D-01
 IDIUse=3 WtCom= 8.93D-01 WtEn= 1.07D-01
 Coeff-Com:  0.115D+00 0.885D+00
 Coeff-En:   0.000D+00 0.100D+01
 Coeff:      0.102D+00 0.898D+00
 Gap=     0.526 Goal=   None    Shift=    0.000
 RMSDP=7.56D-04 MaxDP=2.53D-02 DE=-5.47D-02 OVMax= 2.96D-02

 Cycle   3  Pass 1  IDiag  1:
 E= -150.829211963628     Delta-E=       -0.008911143034 Rises=F Damp=F
 DIIS: error= 4.35D-03 at cycle   3 NSaved=   3.
 NSaved= 3 IEnMin= 3 EnMin= -150.829211963628     IErMin= 3 ErrMin= 4.35D-03
 ErrMax= 4.35D-03  0.00D+00 EMaxC= 1.00D-01 BMatC= 2.54D-03 BMatP= 1.75D-02
 IDIUse=3 WtCom= 9.57D-01 WtEn= 4.35D-02
 Coeff-Com: -0.212D-01 0.255D+00 0.766D+00
 Coeff-En:   0.000D+00 0.000D+00 0.100D+01
 Coeff:     -0.202D-01 0.244D+00 0.776D+00
 Gap=     0.496 Goal=   None    Shift=    0.000
 RMSDP=1.75D-04 MaxDP=4.52D-03 DE=-8.91D-03 OVMax= 9.91D-03

 Cycle   4  Pass 1  IDiag  1:
 E= -150.830803698503     Delta-E=       -0.001591734875 Rises=F Damp=F
 DIIS: error= 4.13D-04 at cycle   4 NSaved=   4.
 NSaved= 4 IEnMin= 4 EnMin= -150.830803698503     IErMin= 4 ErrMin= 4.13D-04
 ErrMax= 4.13D-04  0.00D+00 EMaxC= 1.00D-01 BMatC= 1.71D-05 BMatP= 2.54D-03
 IDIUse=3 WtCom= 9.96D-01 WtEn= 4.13D-03
 Coeff-Com: -0.186D-02-0.119D-01 0.118D-01 0.100D+01
 Coeff-En:   0.000D+00 0.000D+00 0.000D+00 0.100D+01
 Coeff:     -0.185D-02-0.118D-01 0.117D-01 0.100D+01
 Gap=     0.497 Goal=   None    Shift=    0.000
 RMSDP=2.50D-05 MaxDP=4.40D-04 DE=-1.59D-03 OVMax= 1.39D-03

 Cycle   5  Pass 1  IDiag  1:
 E= -150.830827478258     Delta-E=       -0.000023779755 Rises=F Damp=F
 DIIS: error= 1.34D-04 at cycle   5 NSaved=   5.
 NSaved= 5 IEnMin= 5 EnMin= -150.830827478258     IErMin= 5 ErrMin= 1.34D-04
 ErrMax= 1.34D-04  0.00D+00 EMaxC= 1.00D-01 BMatC= 1.60D-06 BMatP= 1.71D-05
 IDIUse=3 WtCom= 9.99D-01 WtEn= 1.34D-03
 Coeff-Com:  0.176D-02-0.169D-01-0.594D-01-0.159D+00 0.123D+01
 Coeff-En:   0.000D+00 0.000D+00 0.000D+00 0.000D+00 0.100D+01
 Coeff:      0.175D-02-0.169D-01-0.594D-01-0.159D+00 0.123D+01
 Gap=     0.498 Goal=   None    Shift=    0.000
 RMSDP=1.35D-05 MaxDP=2.81D-04 DE=-2.38D-05 OVMax= 8.88D-04

 Cycle   6  Pass 1  IDiag  1:
[...]
         NMat0=    1 NMatS0=   9591 NMatT0=    0 NMatD0=    1 NMtDS0=    0 NMtDT0=    0
 Symmetry not used in FoFCou.
 Two-electron integral symmetry not used.
 Closed shell SCF:
 Using DIIS extrapolation, IDIIS=  1040.
 NGot=  2147483648 LenX=  2101430001 LenY=  2101403960
 Requested convergence on RMS density matrix=1.00D-08 within 128 cycles.
 Requested convergence on MAX density matrix=1.00D-06.
 Requested convergence on             energy=1.00D-06.
 No special actions if energy rises.

 Cycle   1  Pass 1  IDiag  1:
 E= -150.830831624487    
 DIIS: error= 3.89D-11 at cycle   1 NSaved=   1.
 NSaved= 1 IEnMin= 1 EnMin= -150.830831624487     IErMin= 1 ErrMin= 3.89D-11
 ErrMax= 3.89D-11  0.00D+00 EMaxC= 1.00D-01 BMatC= 2.23D-19 BMatP= 2.23D-19
 IDIUse=1 WtCom= 1.00D+00 WtEn= 0.00D+00
 Coeff-Com:  0.100D+01
 Coeff:      0.100D+01
 Gap=     0.866 Goal=   None    Shift=    0.000
 RMSDP=2.68D-12 MaxDP=7.72D-11              OVMax= 1.91D-10

 SCF Done:  E(RHF) =  -150.830831624     A.U. after    1 cycles
            NFock=  1  Conv=0.27D-11     -V/T= 2.0019
 KE= 1.505396163004D+02 PE=-4.315016881103D+02 EE= 9.347587141690D+01
 Leave Link  502 at Mon Mar 30 18:12:56 2020, MaxMem=  2147483648 cpu:               7.1 elap:               0.5
 (Enter /usr/local/g16/g16/l801.exe)
 Windowed orbitals will be sorted by symmetry type.
 ExpMin= 2.53D-02 ExpMax= 1.53D+04 ExpMxC= 5.22D+02 IAcc=3 IRadAn=         5 AccDes= 0.00D+00
 HarFok:  IExCor=  205 AccDes= 0.00D+00 IRadAn=         5 IDoV=-2 UseB2=F ITyADJ=14
 ICtDFT= 12500011 ScaDFX=  1.000000  1.000000  1.000000  1.000000
 Largest valence mixing into a core orbital is  1.19D-04
 Largest core mixing into a valence orbital is  2.08D-05
 Range of M.O.s used for correlation:     3   138
 NBasis=   138 NAE=     9 NBE=     9 NFC=     2 NFV=     0
 NROrb=    136 NOA=     7 NOB=     7 NVA=   129 NVB=   129

 **** Warning!!: The largest alpha MO coefficient is  0.15937195D+02

 Leave Link  801 at Mon Mar 30 18:12:56 2020, MaxMem=  2147483648 cpu:               0.5 elap:               0.0
 (Enter /usr/local/g16/g16/l804.exe)
 Closed-shell transformation, MDV=  2147483648 ITran=4 ISComp=1.
 Semi-Direct transformation.
 ModeAB=           2 MOrb=             7 LenV=    2146849405
 LASXX=      8463147 LTotXX=     8463147 LenRXX=     8463147
 LTotAB=     8647912 MaxLAS=    12261760 LenRXY=    12261760
 NonZer=    16926294 LenScr=    26146816 LnRSAI=           0
 LnScr1=           0 LExtra=           0 Total=     46871723
 MaxDsk=          -1 SrtSym=           F ITran=            4
 DoSDTr:  NPSUse= 16
 JobTyp=0 Pass  1:  I=   1 to   7.
 (rs|ai) integrals will be sorted in core.
 Complete sort for first half transformation.
 First half transformation complete.
 Complete sort for second half transformation.
 Second half transformation complete.
 SymMOI:  orbitals are not symmetric.
 Spin components of T(2) and E(2):
     alpha-alpha T2 =       0.1606124427D-01 E2=     -0.6286948768D-01
     alpha-beta  T2 =       0.9338477268D-01 E2=     -0.3819608320D+00
     beta-beta   T2 =       0.1606124427D-01 E2=     -0.6286948768D-01
 ANorm=    0.1060899270D+01
 E2 =    -0.5076998073D+00 EUMP2 =    -0.15133853143182D+03
 Leave Link  804 at Mon Mar 30 18:12:58 2020, MaxMem=  2147483648 cpu:              27.9 elap:               1.7
 (Enter /usr/local/g16/g16/l913.exe)
 CIDS:  MDV=  2147483648.
 Frozen-core window:  NFC=   2 NFV=   0.
 IFCWin=0 IBDFC=1 NFBD=     0     0 NFCmp=     0     0 NFFFC=     0     0
 Using DD3R+UMP44R for 1st iteration.
 Using DD4RQ for 2nd and later iterations.
 Keep R2 and R3 ints in memory in canonical form, NReq=99863705.
 FoFCou: FMM=F IPFlag=           0 FMFlag=           0 FMFlg1=           0
         NFxFlg=           0 DoJE=F BraDBF=F KetDBF=F FulRan=T
         wScrn=  0.000000 ICntrl=       600 IOpCl=  0 I1Cent=           0 NGrid=           0
         NMat0=    1 NMatS0=   9591 NMatT0=    0 NMatD0=    1 NMtDS0=    0 NMtDT0=    0
 Symmetry not used in FoFCou.
 Two-electron integral symmetry not used.
 CIDS: In Core Option IDoMem=           1.
 MP4(SDTQ)
 =========
 Produce multiple copies of IABC intergrals
 DD1Dir will call FoFMem   1 times, MxPair=        56
 NAB=    28 NAA=     0 NBB=     0.
 MP4(D)= -0.11233823D-01
 MP4(S)= -0.52186243D-02
 MP4(R+Q)=  0.10812636D-01
 T4(AAA)= -0.66412384D-03
 T4(AAB)= -0.10310280D-01
 Time for triples=       92.73 seconds.
 MP4(T)=   -0.21948807D-01
 E3=       -0.20343152D-02        EUMP3=      -0.15134056575D+03
 E4(DQ)=   -0.42118720D-03        UMP4(DQ)=   -0.15134098693D+03
 E4(SDQ)=  -0.56398115D-02        UMP4(SDQ)=  -0.15134620556D+03
 E4(SDTQ)= -0.27588618D-01        UMP4(SDTQ)= -0.15136815437D+03
 VARIATIONAL ENERGIES WITH THE FIRST-ORDER WAVEFUNCTION:
 E(VAR1)=  -0.15128372441D+03     E(CISD,4)=  -0.15129329818D+03
 Largest amplitude= 4.86D-02
 Discarding MO integrals.
 Leave Link  913 at Mon Mar 30 18:13:05 2020, MaxMem=  2147483648 cpu:             116.4 elap:               7.3
 (Enter /usr/local/g16/g16/l122.exe)
 CPIOFr:  IOpCl= 0 IRwI=-1 IRwCP=  731 ICalc=  3 LCPTot=       59414 Len1MO=      159453 IndFrg=      697226
 Restoring MOs from calculation   5 to rwf and chk.
 CPIOFr:  IOpCl= 0 IRwI=-2 IRwCP=20731 ICalc=  4 LCPTot=       59414 Len1MO=      159453 IndFrg=      856679
 CPIOFr:  IOpCl= 0 IRwI= 4 IRwCP=20731 ICalc=  4 LCPTot=       59414 Len1MO=      159453 IndFrg=      856679
 Counterpoise: doing calculation for fragment   2 using the basis set of the fragment.
 Leave Link  122 at Mon Mar 30 18:13:05 2020, MaxMem=  2147483648 cpu:               0.0 elap:               0.0
 (Enter /usr/local/g16/g16/l301.exe)
 Basis read from rwf:  (5D, 7F)
 No pseudopotential information found on rwf file.
 There are    69 symmetry adapted cartesian basis functions of A   symmetry.
 There are    59 symmetry adapted basis functions of A   symmetry.
    59 basis functions,   217 primitive gaussians,    69 cartesian basis functions
    18 alpha electrons       18 beta electrons
       nuclear repulsion energy         0.0000000000 Hartrees.
 IExCor=    0 DFT=F Ex=HF Corr=None ExCW=0 ScaHFX=  1.000000
 ScaDFX=  1.000000  1.000000  1.000000  1.000000 ScalE2=  1.000000  1.000000
 IRadAn=      5 IRanWt=     -1 IRanGd=            0 ICorTp=0 IEmpDi=  4
 NAtoms=    5 NActive=    1 NUniq=    1 SFac= 1.00D+00 NAtFMM=   60 NAOKFM=F Big=F
 Integral buffers will be    131072 words long.
 Raffenetti 1 integral format.
 Two-electron integral symmetry is turned on.
 No density basis found on file   718.
 Leave Link  301 at Mon Mar 30 18:13:05 2020, MaxMem=  2147483648 cpu:               0.4 elap:               0.0
 (Enter /usr/local/g16/g16/l302.exe)
 NPDir=0 NMtPBC=     1 NCelOv=     1 NCel=       1 NClECP=     1 NCelD=      1
         NCelK=      1 NCelE2=     1 NClLst=     1 CellRange=     0.0.
 One-electron integrals computed using PRISM.
 One-electron integral symmetry used in STVInt
 NBasis=    59 RedAO= T EigKep=  1.06D-02  NBF=    59
 NBsUse=    59 1.00D-06 EigRej= -1.00D+00 NBFU=    59
 Leave Link  302 at Mon Mar 30 18:13:05 2020, MaxMem=  2147483648 cpu:               1.3 elap:               0.1
 (Enter /usr/local/g16/g16/l303.exe)
 DipDrv:  MaxL=1.
 Leave Link  303 at Mon Mar 30 18:13:05 2020, MaxMem=  2147483648 cpu:               0.3 elap:               0.0
 (Enter /usr/local/g16/g16/l401.exe)
 Initial guess from the checkpoint file:  "/mnt/driveB/scratch/matheus/Gau-8778.chk"
 B after Tr=    -0.062990    0.000050    0.000085
         Rot=    1.000000    0.000000    0.000000    0.000000 Ang=   0.00 deg.
 Guess basis will be translated and rotated to current coordinates.
 JPrj=2 DoOrth=T DoCkMO=T.
 Generating alternative initial guess.
 ExpMin= 4.00D-02 ExpMax= 1.17D+07 ExpMxC= 1.33D+04 IAcc=3 IRadAn=         5 AccDes= 0.00D+00
 Harris functional with IExCor=  205 and IRadAn=       5 diagonalized for initial guess.
 HarFok:  IExCor=  205 AccDes= 0.00D+00 IRadAn=         5 IDoV= 1 UseB2=F ITyADJ=14
 ICtDFT=  3500011 ScaDFX=  1.000000  1.000000  1.000000  1.000000
 FoFCou: FMM=F IPFlag=           0 FMFlag=      100000 FMFlg1=           0
         NFxFlg=           0 DoJE=T BraDBF=F KetDBF=T FulRan=T
         wScrn=  0.000000 ICntrl=       500 IOpCl=  0 I1Cent=   200000004 NGrid=           0
         NMat0=    1 NMatS0=      1 NMatT0=    0 NMatD0=    1 NMtDS0=    0 NMtDT0=    0
 Petite list used in FoFCou.
 Harris En= -2751.05937170533    
 Leave Link  401 at Mon Mar 30 18:13:05 2020, MaxMem=  2147483648 cpu:               2.3 elap:               0.1
 (Enter /usr/local/g16/g16/l502.exe)
 Keep R1 ints in memory in canonical form, NReq=14291944.
 FoFCou: FMM=F IPFlag=           0 FMFlag=           0 FMFlg1=           0
         NFxFlg=           0 DoJE=F BraDBF=F KetDBF=F FulRan=T
         wScrn=  0.000000 ICntrl=       600 IOpCl=  0 I1Cent=           0 NGrid=           0
         NMat0=    1 NMatS0=   1770 NMatT0=    0 NMatD0=    1 NMtDS0=    0 NMtDT0=    0
 Symmetry not used in FoFCou.
 Two-electron integral symmetry not used.
 Closed shell SCF:
 Using DIIS extrapolation, IDIIS=  1040.
 NGot=  2147483648 LenX=  2145904888 LenY=  2145899686
 Requested convergence on RMS density matrix=1.00D-08 within 128 cycles.
 Requested convergence on MAX density matrix=1.00D-06.
 Requested convergence on             energy=1.00D-06.
 No special actions if energy rises.

 Cycle   1  Pass 1  IDiag  1:
 E= -2752.05222307625    
 DIIS: error= 2.61D-13 at cycle   1 NSaved=   1.
 NSaved= 1 IEnMin= 1 EnMin= -2752.05222307625     IErMin= 1 ErrMin= 2.61D-13
 ErrMax= 2.61D-13  0.00D+00 EMaxC= 1.00D-01 BMatC= 1.48D-24 BMatP= 1.48D-24
 IDIUse=1 WtCom= 1.00D+00 WtEn= 0.00D+00
 Coeff-Com:  0.100D+01
 Coeff:      0.100D+01
 Gap=     0.719 Goal=   None    Shift=    0.000
 RMSDP=1.77D-14 MaxDP=3.72D-13              OVMax= 1.14D-13

 SCF Done:  E(RHF) =  -2752.05222308     A.U. after    1 cycles
            NFock=  1  Conv=0.18D-13     -V/T= 2.0000
 KE= 2.752048106937D+03 PE=-6.582565276257D+03 EE= 1.078464946243D+03
 Leave Link  502 at Mon Mar 30 18:13:06 2020, MaxMem=  2147483648 cpu:               8.8 elap:               0.6
 (Enter /usr/local/g16/g16/l801.exe)
 Windowed orbitals will be sorted by symmetry type.
 ExpMin= 4.00D-02 ExpMax= 1.17D+07 ExpMxC= 1.33D+04 IAcc=3 IRadAn=         5 AccDes= 0.00D+00
 HarFok:  IExCor=  205 AccDes= 0.00D+00 IRadAn=         5 IDoV=-2 UseB2=F ITyADJ=14
 ICtDFT= 12500011 ScaDFX=  1.000000  1.000000  1.000000  1.000000
 Largest valence mixing into a core orbital is  9.79D-05
 Largest core mixing into a valence orbital is  3.83D-05
 Range of M.O.s used for correlation:    10    59
 NBasis=    59 NAE=    18 NBE=    18 NFC=     9 NFV=     0
 NROrb=     50 NOA=     9 NOB=     9 NVA=    41 NVB=    41
 Leave Link  801 at Mon Mar 30 18:13:06 2020, MaxMem=  2147483648 cpu:               0.5 elap:               0.0
 (Enter /usr/local/g16/g16/l804.exe)
 Closed-shell transformation, MDV=  2147483648 ITran=4 ISComp=1.
 Semi-Direct transformation.
 ModeAB=           2 MOrb=             9 LenV=    2147140326
 LASXX=       482211 LTotXX=      482211 LenRXX=      482211
 LTotAB=      511245 MaxLAS=     1086750 LenRXY=     1086750
 NonZer=     1162350 LenScr=     2357760 LnRSAI=           0
 LnScr1=           0 LExtra=           0 Total=      3926721
 MaxDsk=          -1 SrtSym=           F ITran=            4
 DoSDTr:  NPSUse= 16
 JobTyp=0 Pass  1:  I=   1 to   9.
 (rs|ai) integrals will be sorted in core.
 Complete sort for first half transformation.
 First half transformation complete.
 Complete sort for second half transformation.
 Second half transformation complete.
 SymMOI:  orbitals are not symmetric.
 Spin components of T(2) and E(2):
     alpha-alpha T2 =       0.9484485167D-02 E2=     -0.3552398032D-01
     alpha-beta  T2 =       0.4799866946D-01 E2=     -0.1708433112D+00
     beta-beta   T2 =       0.9484485167D-02 E2=     -0.3552398032D-01
 ANorm=    0.1032941257D+01
 E2 =    -0.2418912719D+00 EUMP2 =    -0.27522941143481D+04
 Leave Link  804 at Mon Mar 30 18:13:06 2020, MaxMem=  2147483648 cpu:               5.1 elap:               0.3
 (Enter /usr/local/g16/g16/l913.exe)
 CIDS:  MDV=  2147483648.
 Frozen-core window:  NFC=   9 NFV=   0.
 IFCWin=0 IBDFC=1 NFBD=     0     0 NFCmp=     0     0 NFFFC=     0     0
 Using DD3R+UMP44R for 1st iteration.
 Using DD4RQ for 2nd and later iterations.
 Keep R2 and R3 ints in memory in canonical form, NReq=15862484.
 FoFCou: FMM=F IPFlag=           0 FMFlag=           0 FMFlg1=           0
         NFxFlg=           0 DoJE=F BraDBF=F KetDBF=F FulRan=T
         wScrn=  0.000000 ICntrl=       600 IOpCl=  0 I1Cent=           0 NGrid=           0
         NMat0=    1 NMatS0=   1770 NMatT0=    0 NMatD0=    1 NMtDS0=    0 NMtDT0=    0
 Symmetry not used in FoFCou.
 Two-electron integral symmetry not used.
 CIDS: In Core Option IDoMem=           1.
 MP4(SDTQ)
 =========
 Produce multiple copies of IABC intergrals
 DD1Dir will call FoFMem   1 times, MxPair=        90
 NAB=    45 NAA=     0 NBB=     0.
 MP4(D)= -0.36913093D-02
 MP4(S)= -0.10734540D-02
 MP4(R+Q)=  0.42077927D-02
 T4(AAA)= -0.32336090D-03
 T4(AAB)= -0.35259699D-02
 Time for triples=        3.35 seconds.
 MP4(T)=   -0.76986616D-02
 E3=       -0.99406389D-02        EUMP3=      -0.27523040550D+04
 E4(DQ)=    0.51648341D-03        UMP4(DQ)=   -0.27523035385D+04
 E4(SDQ)=  -0.55697064D-03        UMP4(SDQ)=  -0.27523046120D+04
 E4(SDTQ)= -0.82556322D-02        UMP4(SDTQ)= -0.27523123106D+04
 VARIATIONAL ENERGIES WITH THE FIRST-ORDER WAVEFUNCTION:
 E(VAR1)=  -0.27522882489D+04     E(CISD,4)=  -0.27522926209D+04
 Largest amplitude= 1.86D-02
 Discarding MO integrals.
 Leave Link  913 at Mon Mar 30 18:13:07 2020, MaxMem=  2147483648 cpu:              14.0 elap:               0.9
 (Enter /usr/local/g16/g16/l122.exe)
 CPIOFr:  IOpCl= 0 IRwI=-1 IRwCP=  731 ICalc=  4 LCPTot=       59414 Len1MO=      159453 IndFrg=      856679
 Restoring MOs from calculation   1 to rwf.
 CPIOFr:  IOpCl= 0 IRwI=-2 IRwCP=  731 ICalc=  0 LCPTot=       59414 Len1MO=      159453 IndFrg=      218867
 Counterpoise corrected energy =   -2903.680806635365
                   BSSE energy =       0.000253088656
              sum of fragments =   -2903.680464984711
           complexation energy =      -0.37 kcal/mole (raw)
           complexation energy =      -0.21 kcal/mole (corrected)
 Leave Link  122 at Mon Mar 30 18:13:07 2020, MaxMem=  2147483648 cpu:               0.0 elap:               0.0
 (Enter /usr/local/g16/g16/l108.exe)
 Scan completed.
 
 Summary of the potential surface scan, energies are +2752 a.u.:
   N      R1          SCF          MP2          MP3         MP4DQ       MP4SDQ       MP4SDTQ  
 ----  ---------  -----------  -----------  -----------  -----------  -----------  -----------
    1     3.0000     -0.05222     -0.29411     -0.30405     -0.30354     -0.30461     -0.31231
    2     3.1000     -0.05222     -0.29411     -0.30405     -0.30354     -0.30461     -0.31231
    3     3.2000     -0.05222     -0.29411     -0.30405     -0.30354     -0.30461     -0.31231
    4     3.3000     -0.05222     -0.29411     -0.30405     -0.30354     -0.30461     -0.31231
    5     3.4000     -0.05222     -0.29411     -0.30405     -0.30354     -0.30461     -0.31231
    6     3.5000     -0.05222     -0.29411     -0.30405     -0.30354     -0.30461     -0.31231
    7     3.6000     -0.05222     -0.29411     -0.30405     -0.30354     -0.30461     -0.31231
    8     3.7000     -0.05222     -0.29411     -0.30405     -0.30354     -0.30461     -0.31231
    9     3.8000     -0.05222     -0.29411     -0.30405     -0.30354     -0.30461     -0.31231
   10     3.9000     -0.05222     -0.29411     -0.30405     -0.30354     -0.30461     -0.31231
   11     4.0000     -0.05222     -0.29411     -0.30405     -0.30354     -0.30461     -0.31231
   12     4.1000     -0.05222     -0.29411     -0.30405     -0.30354     -0.30461     -0.31231
   13     4.2000     -0.05222     -0.29411     -0.30405     -0.30354     -0.30461     -0.31231
   14     4.3000     -0.05222     -0.29411     -0.30405     -0.30354     -0.30461     -0.31231
   15     4.4000     -0.05222     -0.29411     -0.30405     -0.30354     -0.30461     -0.31231
   16     4.5000     -0.05222     -0.29411     -0.30405     -0.30354     -0.30461     -0.31231
   17     4.6000     -0.05222     -0.29411     -0.30405     -0.30354     -0.30461     -0.31231
   18     4.7000     -0.05222     -0.29411     -0.30405     -0.30354     -0.30461     -0.31231
   19     4.8000     -0.05222     -0.29411     -0.30405     -0.30354     -0.30461     -0.31231
   20     4.9000     -0.05222     -0.29411     -0.30405     -0.30354     -0.30461     -0.31231
   21     5.0000     -0.05222     -0.29411     -0.30405     -0.30354     -0.30461     -0.31231
 ----  ---------  -----------  -----------  -----------  -----------  -----------  -----------
  
 Leave Link  108 at Mon Mar 30 18:13:07 2020, MaxMem=  2147483648 cpu:               0.1 elap:               0.0
 (Enter /usr/local/g16/g16/l9999.exe)
 1\1\GINC-ARTHUR-MS-7B09\Scan\RMP4SDTQ-FC\Aug-CC-pVTZ\H2Kr1O2\MATHEUS\3
 0-Mar-2020\1\\#p mp4/aug-cc-PVTz int=ultrafine counterpoise=2 Scan\\PT
 CC\\0,1\O,0,0.,0.,0.725\O,0,0.,0.,-0.725\H,0,0.5905422151,0.7037808064
 ,1.0235104166\H,0,0.,0.9187205947,-1.0235104166\Kr,0,0.,R1,0.\\R1=3.,s
 ,20,0.1\\Version=ES64L-G16RevA.03\HF=-2752.0522231,-2752.0522231,-2752
 .0522231,-2752.0522231,-2752.0522231,-2752.0522231,-2752.0522231,-2752
 .0522231,-2752.0522231,-2752.0522231,-2752.0522231,-2752.0522231,-2752
 .0522231,-2752.0522231,-2752.0522231,-2752.0522231,-2752.0522231,-2752
 .0522231,-2752.0522231,-2752.0522231,-2752.0522231\MP2=-2752.2941143,-
 2752.2941143,-2752.2941143,-2752.2941143,-2752.2941143,-2752.2941143,-
 2752.2941143,-2752.2941143,-2752.2941143,-2752.2941143,-2752.2941143,-
 2752.2941143,-2752.2941143,-2752.2941143,-2752.2941143,-2752.2941143,-
 2752.2941143,-2752.2941143,-2752.2941143,-2752.2941143,-2752.2941143\M
 P3=-2752.304055,-2752.304055,-2752.304055,-2752.304055,-2752.304055,-2
 752.304055,-2752.304055,-2752.304055,-2752.304055,-2752.304055,-2752.3
 04055,-2752.304055,-2752.304055,-2752.304055,-2752.304055,-2752.304055
 ,-2752.304055,-2752.304055,-2752.304055,-2752.304055,-2752.304055\MP4D
 =-2752.3077463,-2752.3077463,-2752.3077463,-2752.3077463,-2752.3077463
 ,-2752.3077463,-2752.3077463,-2752.3077463,-2752.3077463,-2752.3077463
 ,-2752.3077463,-2752.3077463,-2752.3077463,-2752.3077463,-2752.3077463
 ,-2752.3077463,-2752.3077463,-2752.3077463,-2752.3077463,-2752.3077463
 ,-2752.3077463\MP4DQ=-2752.3035385,-2752.3035385,-2752.3035385,-2752.3
 035385,-2752.3035385,-2752.3035385,-2752.3035385,-2752.3035385,-2752.3
 035385,-2752.3035385,-2752.3035385,-2752.3035385,-2752.3035385,-2752.3
 035385,-2752.3035385,-2752.3035385,-2752.3035385,-2752.3035385,-2752.3
 035385,-2752.3035385,-2752.3035385\MP4SDQ=-2752.304612,-2752.304612,-2
 752.304612,-2752.304612,-2752.304612,-2752.304612,-2752.304612,-2752.3
 04612,-2752.304612,-2752.304612,-2752.304612,-2752.304612,-2752.304612
 ,-2752.304612,-2752.304612,-2752.304612,-2752.304612,-2752.304612,-275
 2.304612,-2752.304612,-2752.304612\MP4SDTQ=-2752.3123106,-2752.3123106
 ,-2752.3123106,-2752.3123106,-2752.3123106,-2752.3123106,-2752.3123106
 ,-2752.3123106,-2752.3123106,-2752.3123106,-2752.3123106,-2752.3123106
 ,-2752.3123106,-2752.3123106,-2752.3123106,-2752.3123106,-2752.3123106
 ,-2752.3123106,-2752.3123106,-2752.3123106,-2752.3123106\RMSD=9.887e-1
 0,1.149e-10,2.884e-11,7.212e-12,1.872e-12,4.658e-13,1.359e-13,3.228e-1
 4,1.308e-14,6.475e-15,6.578e-15,8.823e-15,8.016e-15,7.030e-15,1.301e-1
 4,1.478e-14,9.875e-15,5.560e-15,3.777e-15,3.652e-15,1.770e-14\PG=C01 [
 X(H2Kr1O2)]\\@


 LOGIC IS A SYSTEMATIC METHOD OF COMING TO THE
 WRONG CONCLUSION WITH CONFIDENCE.
 Job cpu time:       0 days 20 hours 47 minutes 11.1 seconds.
 Elapsed time:       0 days  1 hours 19 minutes 11.5 seconds.
 File lengths (MBytes):  RWF=   4068 Int=      0 D2E=      0 Chk=     12 Scr=      1
 Normal termination of Gaussian 16 at Mon Mar 30 18:13:08 2020.
