 Entering Gaussian System, Link 0=g16
 Input=Inputs/H2O2-Kr_1.com
 Output=Logs/H2O2-Kr_1.log
 Initial command:
 /usr/local/g16/g16/l1.exe "/mnt/driveB/scratch/matheus/Gau-92464.inp" -scrdir="/mnt/driveB/scratch/matheus/"
 Entering Link 1 = /usr/local/g16/g16/l1.exe PID=     92466.
  
 Copyright (c) 1988,1990,1992,1993,1995,1998,2003,2009,2016,
            Gaussian, Inc.  All Rights Reserved.
  
 This is part of the Gaussian(R) 16 program.  It is based on
 the Gaussian(R) 09 system (copyright 2009, Gaussian, Inc.),
 the Gaussian(R) 03 system (copyright 2003, Gaussian, Inc.),
 the Gaussian(R) 98 system (copyright 1998, Gaussian, Inc.),
 the Gaussian(R) 94 system (copyright 1995, Gaussian, Inc.),
 the Gaussian 92(TM) system (copyright 1992, Gaussian, Inc.),
 the Gaussian 90(TM) system (copyright 1990, Gaussian, Inc.),
 the Gaussian 88(TM) system (copyright 1988, Gaussian, Inc.),
 the Gaussian 86(TM) system (copyright 1986, Carnegie Mellon
 University), and the Gaussian 82(TM) system (copyright 1983,
 Carnegie Mellon University). Gaussian is a federally registered
 trademark of Gaussian, Inc.
  
 This software contains proprietary and confidential information,
 including trade secrets, belonging to Gaussian, Inc.
  
 This software is provided under written license and may be
 used, copied, transmitted, or stored only in accord with that
 written license.
  
 The following legend is applicable only to US Government
 contracts under FAR:
  
                    RESTRICTED RIGHTS LEGEND
  
 Use, reproduction and disclosure by the US Government is
 subject to restrictions as set forth in subparagraphs (a)
 and (c) of the Commercial Computer Software - Restricted
 Rights clause in FAR 52.227-19.
  
 Gaussian, Inc.
 340 Quinnipiac St., Bldg. 40, Wallingford CT 06492
  
  
 ---------------------------------------------------------------
 Warning -- This program may not be used in any manner that
 competes with the business of Gaussian, Inc. or will provide
 assistance to any competitor of Gaussian, Inc.  The licensee
 of this program is prohibited from giving any competitor of
 Gaussian, Inc. access to this program.  By using this program,
 the user acknowledges that Gaussian, Inc. is engaged in the
 business of creating and licensing software in the field of
 computational chemistry and represents and warrants to the
 licensee that it is not a competitor of Gaussian, Inc. and that
 it will not use this program in any manner prohibited above.
 ---------------------------------------------------------------
  

 Cite this work as:
 Gaussian 16, Revision A.03,
 M. J. Frisch, G. W. Trucks, H. B. Schlegel, G. E. Scuseria, 
 M. A. Robb, J. R. Cheeseman, G. Scalmani, V. Barone, 
 G. A. Petersson, H. Nakatsuji, X. Li, M. Caricato, A. V. Marenich, 
 J. Bloino, B. G. Janesko, R. Gomperts, B. Mennucci, H. P. Hratchian, 
 J. V. Ortiz, A. F. Izmaylov, J. L. Sonnenberg, D. Williams-Young, 
 F. Ding, F. Lipparini, F. Egidi, J. Goings, B. Peng, A. Petrone, 
 T. Henderson, D. Ranasinghe, V. G. Zakrzewski, J. Gao, N. Rega, 
 G. Zheng, W. Liang, M. Hada, M. Ehara, K. Toyota, R. Fukuda, 
 J. Hasegawa, M. Ishida, T. Nakajima, Y. Honda, O. Kitao, H. Nakai, 
 T. Vreven, K. Throssell, J. A. Montgomery, Jr., J. E. Peralta, 
 F. Ogliaro, M. J. Bearpark, J. J. Heyd, E. N. Brothers, K. N. Kudin, 
 V. N. Staroverov, T. A. Keith, R. Kobayashi, J. Normand, 
 K. Raghavachari, A. P. Rendell, J. C. Burant, S. S. Iyengar, 
 J. Tomasi, M. Cossi, J. M. Millam, M. Klene, C. Adamo, R. Cammi, 
 J. W. Ochterski, R. L. Martin, K. Morokuma, O. Farkas, 
 J. B. Foresman, and D. J. Fox, Gaussian, Inc., Wallingford CT, 2016.
 
 ******************************************
 Gaussian 16:  ES64L-G16RevA.03 25-Dec-2016
                30-Mar-2020 
 ******************************************
 %mem=16GB
 %nproc=16
 Will use up to   16 processors via shared memory.
 ----------------------------------------------------
 #p mp4/aug-cc-PVTz int=ultrafine counterpoise=2 Scan
 ----------------------------------------------------
 1/38=1,60=1,62=2,172=1/1,8;
 2/12=2,17=6,18=5,29=3,40=1/2;
 1/38=1,53=2,62=2,63=1/22;
 3/5=16,6=1,7=10,11=9,25=1,30=1,75=-5/1,2,3;
 4//1;
 5/5=2,38=5/2;
 8/6=4,9=120000,10=1/1,4;
 9/5=5/13;
 6/7=2,8=2,9=2,10=2,18=1/1;
 1/53=2,62=2,63=1/22;
 3/5=7,6=11,7=10,11=9,25=1,30=1,75=-5,82=7/1,2,3;
 4//1;
 5/5=2,38=5/2;
 8/6=4,9=120000,10=1/1,4;
 9/5=5/13;
 6/7=2,8=2,9=2,10=2,18=1/1;
 1/53=2,62=2,63=1/22(-6);
 1/60=1,62=2/8(1);
 99/9=1/99;
 2/29=3/2;
 1/53=3,62=2,63=1/22;
 3/5=7,6=11,7=10,11=9,25=1,30=1,75=-5,82=7/1,2,3;
 4/5=5,16=3,69=1/1;
 5/5=2,38=5/2;
 8/6=4,9=120000,10=1/1,4;
 9/5=5/13;
 1/53=3,62=2,63=1/22(-5);
 1/60=1,62=2/8(-8);
 99/9=1/99;
 Leave Link    1 at Mon Mar 30 12:36:04 2020, MaxMem=  2147483648 cpu:               0.3 elap:               0.0
 (Enter /usr/local/g16/g16/l101.exe)
 ----
 PTCC
 ----
 Symbolic Z-matrix:
 Charge =  0 Multiplicity = 1 in supermolecule
 Charge =  0 Multiplicity = 1 in fragment      1.
 Charge =  0 Multiplicity = 1 in fragment      2.
 O(Fragment=1)         0.        0.        0.725 
 O(Fragment=1)         0.        0.       -0.725 
 H(Fragment=1)         0.15953   0.90476   1.02351 
 H(Fragment=1)         0.        0.91872  -1.02351 
 Kr(Fragment=2)        0.       R1        0. 
       Variables:
  R1                    3.     Scan 20    0.1    
 
 ITRead=  0  0  0  0  0
 MicOpt= -1 -1 -1 -1 -1
 NAtoms=      5 NQM=        5 NQMF=       0 NMMI=      0 NMMIF=      0
                NMic=       0 NMicF=      0.
                    Isotopes and Nuclear Properties:
 (Nuclear quadrupole moments (NQMom) in fm**2, nuclear magnetic moments (NMagM)
  in nuclear magnetons)

  Atom         1           2           3           4           5
 IAtWgt=          16          16           1           1          84
 AtmWgt=  15.9949146  15.9949146   1.0078250   1.0078250  83.9115064
 NucSpn=           0           0           1           1           0
 AtZEff=  -0.0000000  -0.0000000  -0.0000000  -0.0000000  -0.0000000
 NQMom=    0.0000000   0.0000000   0.0000000   0.0000000   0.0000000
 NMagM=    0.0000000   0.0000000   2.7928460   2.7928460   0.0000000
 AtZNuc=   8.0000000   8.0000000   1.0000000   1.0000000  36.0000000
 Leave Link  101 at Mon Mar 30 12:36:04 2020, MaxMem=  2147483648 cpu:               1.3 elap:               0.1
 (Enter /usr/local/g16/g16/l108.exe)
 Scan the potential surface.
 Variable   Value     No. Steps Step-Size
 -------- ----------- --------- ---------
     1       3.000000      20      0.1000
 A total of     21 points will be computed.
 Leave Link  108 at Mon Mar 30 12:36:04 2020, MaxMem=  2147483648 cpu:               0.0 elap:               0.0
 (Enter /usr/local/g16/g16/l202.exe)
 ---------------------------------------------------------------------------------------------------
                            Z-MATRIX (ANGSTROMS AND DEGREES)
   CD    Cent   Atom    N1       Length/X        N2       Alpha/Y        N3        Beta/Z          J
 ---------------------------------------------------------------------------------------------------
      1      1  O        0   0.000000          0.000000          0.725000
      2      2  O        0   0.000000          0.000000         -0.725000
      3      3  H        0   0.159534          0.904763          1.023510
      4      4  H        0   0.000000          0.918721         -1.023510
      5      5  Kr       0   0.000000          3.000000          0.000000
 ---------------------------------------------------------------------------------------------------
                         Z-Matrix orientation:                         
 ---------------------------------------------------------------------
 Center     Atomic      Atomic             Coordinates (Angstroms)
 Number     Number       Type             X           Y           Z
 ---------------------------------------------------------------------
      1          8           0        0.000000    0.000000    0.725000
      2          8           0        0.000000    0.000000   -0.725000
      3          1           0        0.159534    0.904763    1.023510
      4          1           0        0.000000    0.918721   -1.023510
      5         36           0        0.000000    3.000000    0.000000
 ---------------------------------------------------------------------
                    Distance matrix (angstroms):
                    1          2          3          4          5
     1  O    0.000000
     2  O    1.450000   0.000000
     3  H    0.966000   1.975180   0.000000
     4  H    1.975180   0.966000   2.053275   0.000000
     5  Kr   3.086361   3.086361   2.337315   2.319331   0.000000
 Stoichiometry    H2KrO2
 Framework group  C1[X(H2KrO2)]
 Deg. of freedom     9
 Full point group                 C1      NOp   1
 Largest Abelian subgroup         C1      NOp   1
 Largest concise Abelian subgroup C1      NOp   1
                         Standard orientation:                         
 ---------------------------------------------------------------------
 Center     Atomic      Atomic             Coordinates (Angstroms)
 Number     Number       Type             X           Y           Z
 ---------------------------------------------------------------------
      1          8           0        2.033875   -0.724487   -0.017820
      2          8           0        2.033645    0.725337    0.004759
      3          1           0        1.129442   -1.025614    0.138637
      4          1           0        1.114878    1.023640    0.011023
      5         36           0       -0.966235   -0.000134   -0.001255
 ---------------------------------------------------------------------
 Rotational constants (GHZ):          26.6670560           2.3882151           2.1923672
 Leave Link  202 at Mon Mar 30 12:36:04 2020, MaxMem=  2147483648 cpu:               0.0 elap:               0.0
 (Enter /usr/local/g16/g16/l122.exe)
 Counterpoise: doing full-system calculation.
 Leave Link  122 at Mon Mar 30 12:36:04 2020, MaxMem=  2147483648 cpu:               0.0 elap:               0.0
 (Enter /usr/local/g16/g16/l301.exe)
 Standard basis: Aug-CC-pVTZ (5D, 7F)
 Ernie: Thresh=  0.10000D-02 Tol=  0.10000D-05 Strict=F.
 Ernie:  38 primitive shells out of 205 were deleted.
 There are   229 symmetry adapted cartesian basis functions of A   symmetry.
 There are   197 symmetry adapted basis functions of A   symmetry.
   197 basis functions,   415 primitive gaussians,   229 cartesian basis functions
    27 alpha electrons       27 beta electrons
       nuclear repulsion energy       151.7892864884 Hartrees.
 IExCor=    0 DFT=F Ex=HF Corr=None ExCW=0 ScaHFX=  1.000000
 ScaDFX=  1.000000  1.000000  1.000000  1.000000 ScalE2=  1.000000  1.000000
 IRadAn=      5 IRanWt=     -1 IRanGd=            0 ICorTp=0 IEmpDi=  4
 NAtoms=    5 NActive=    5 NUniq=    5 SFac= 1.00D+00 NAtFMM=   60 NAOKFM=F Big=F
 Integral buffers will be    131072 words long.
 Raffenetti 1 integral format.
 Two-electron integral symmetry is turned on.
 Leave Link  301 at Mon Mar 30 12:36:04 2020, MaxMem=  2147483648 cpu:               0.3 elap:               0.0
 (Enter /usr/local/g16/g16/l302.exe)
 NPDir=0 NMtPBC=     1 NCelOv=     1 NCel=       1 NClECP=     1 NCelD=      1
         NCelK=      1 NCelE2=     1 NClLst=     1 CellRange=     0.0.
 One-electron integrals computed using PRISM.
 One-electron integral symmetry used in STVInt
 NBasis=   197 RedAO= T EigKep=  1.46D-04  NBF=   197
 NBsUse=   197 1.00D-06 EigRej= -1.00D+00 NBFU=   197
 Leave Link  302 at Mon Mar 30 12:36:04 2020, MaxMem=  2147483648 cpu:               1.6 elap:               0.1
 (Enter /usr/local/g16/g16/l303.exe)
 DipDrv:  MaxL=1.
 Leave Link  303 at Mon Mar 30 12:36:04 2020, MaxMem=  2147483648 cpu:               0.4 elap:               0.0
 (Enter /usr/local/g16/g16/l401.exe)
 ExpMin= 2.53D-02 ExpMax= 1.17D+07 ExpMxC= 1.33D+04 IAcc=3 IRadAn=         5 AccDes= 0.00D+00
 Harris functional with IExCor=  205 and IRadAn=       5 diagonalized for initial guess.
 HarFok:  IExCor=  205 AccDes= 0.00D+00 IRadAn=         5 IDoV= 1 UseB2=F ITyADJ=14
 ICtDFT=  3500011 ScaDFX=  1.000000  1.000000  1.000000  1.000000
 FoFCou: FMM=F IPFlag=           0 FMFlag=      100000 FMFlg1=           0
         NFxFlg=           0 DoJE=T BraDBF=F KetDBF=T FulRan=T
         wScrn=  0.000000 ICntrl=       500 IOpCl=  0 I1Cent=   200000004 NGrid=           0
         NMat0=    1 NMatS0=      1 NMatT0=    0 NMatD0=    1 NMtDS0=    0 NMtDT0=    0
 Petite list used in FoFCou.
 Harris En= -2901.98494269552    
 JPrj=0 DoOrth=F DoCkMO=F.
 Leave Link  401 at Mon Mar 30 12:36:04 2020, MaxMem=  2147483648 cpu:               3.1 elap:               0.2
 (Enter /usr/local/g16/g16/l502.exe)
 Keep R1 ints in memory in canonical form, NReq=203140061.
 FoFCou: FMM=F IPFlag=           0 FMFlag=           0 FMFlg1=           0
         NFxFlg=           0 DoJE=F BraDBF=F KetDBF=F FulRan=T
         wScrn=  0.000000 ICntrl=       600 IOpCl=  0 I1Cent=           0 NGrid=           0
         NMat0=    1 NMatS0=  19503 NMatT0=    0 NMatD0=    1 NMtDS0=    0 NMtDT0=    0
 Symmetry not used in FoFCou.
 Two-electron integral symmetry not used.
 Closed shell SCF:
 Using DIIS extrapolation, IDIIS=  1040.
 NGot=  2147483648 LenX=  1957179903 LenY=  1957127021
 Requested convergence on RMS density matrix=1.00D-08 within 128 cycles.
 Requested convergence on MAX density matrix=1.00D-06.
 Requested convergence on             energy=1.00D-06.
 No special actions if energy rises.

 Cycle   1  Pass 1  IDiag  1:
 E= -2902.75283507379    
 DIIS: error= 6.39D-02 at cycle   1 NSaved=   1.
 NSaved= 1 IEnMin= 1 EnMin= -2902.75283507379     IErMin= 1 ErrMin= 6.39D-02
 ErrMax= 6.39D-02  0.00D+00 EMaxC= 1.00D-01 BMatC= 6.71D-01 BMatP= 6.71D-01
 IDIUse=3 WtCom= 3.61D-01 WtEn= 6.39D-01
 Coeff-Com:  0.100D+01
 Coeff-En:   0.100D+01
 Coeff:      0.100D+01
 Gap=     0.682 Goal=   None    Shift=    0.000
 GapD=    0.682 DampG=2.000 DampE=0.500 DampFc=1.0000 IDamp=-1.
 RMSDP=2.06D-03 MaxDP=1.34D-01              OVMax= 6.03D-02

 Cycle   2  Pass 1  IDiag  1:
 E= -2902.85178255209     Delta-E=       -0.098947478293 Rises=F Damp=F
 DIIS: error= 9.13D-03 at cycle   2 NSaved=   2.
 NSaved= 2 IEnMin= 2 EnMin= -2902.85178255209     IErMin= 2 ErrMin= 9.13D-03
 ErrMax= 9.13D-03  0.00D+00 EMaxC= 1.00D-01 BMatC= 3.99D-02 BMatP= 6.71D-01
 IDIUse=3 WtCom= 9.09D-01 WtEn= 9.13D-02
 Coeff-Com:  0.145D+00 0.855D+00
 Coeff-En:   0.000D+00 0.100D+01
 Coeff:      0.132D+00 0.868D+00
 Gap=     0.516 Goal=   None    Shift=    0.000
 RMSDP=8.45D-04 MaxDP=3.86D-02 DE=-9.89D-02 OVMax= 2.80D-02

 Cycle   3  Pass 1  IDiag  1:
 E= -2902.86685321893     Delta-E=       -0.015070666842 Rises=F Damp=F
 DIIS: error= 3.57D-03 at cycle   3 NSaved=   3.
 NSaved= 3 IEnMin= 3 EnMin= -2902.86685321893     IErMin= 3 ErrMin= 3.57D-03
 ErrMax= 3.57D-03  0.00D+00 EMaxC= 1.00D-01 BMatC= 3.14D-03 BMatP= 3.99D-02
 IDIUse=3 WtCom= 9.64D-01 WtEn= 3.57D-02
 Coeff-Com: -0.594D-02 0.199D+00 0.807D+00
 Coeff-En:   0.000D+00 0.000D+00 0.100D+01
 Coeff:     -0.572D-02 0.192D+00 0.814D+00
 Gap=     0.487 Goal=   None    Shift=    0.000
 RMSDP=1.51D-04 MaxDP=5.17D-03 DE=-1.51D-02 OVMax= 8.69D-03

 Cycle   4  Pass 1  IDiag  1:
 E= -2902.86847776562     Delta-E=       -0.001624546689 Rises=F Damp=F
 DIIS: error= 6.60D-04 at cycle   4 NSaved=   4.
 NSaved= 4 IEnMin= 4 EnMin= -2902.86847776562     IErMin= 4 ErrMin= 6.60D-04
 ErrMax= 6.60D-04  0.00D+00 EMaxC= 1.00D-01 BMatC= 5.44D-05 BMatP= 3.14D-03
 IDIUse=3 WtCom= 9.93D-01 WtEn= 6.60D-03
 Coeff-Com: -0.434D-02 0.157D-01 0.150D+00 0.839D+00
 Coeff-En:   0.000D+00 0.000D+00 0.000D+00 0.100D+01
 Coeff:     -0.431D-02 0.156D-01 0.149D+00 0.840D+00
 Gap=     0.491 Goal=   None    Shift=    0.000
 RMSDP=2.52D-05 MaxDP=6.55D-04 DE=-1.62D-03 OVMax= 1.79D-03

 Cycle   5  Pass 1  IDiag  1:
 E= -2902.86852212609     Delta-E=       -0.000044360469 Rises=F Damp=F
 DIIS: error= 1.74D-04 at cycle   5 NSaved=   5.
 NSaved= 5 IEnMin= 5 EnMin= -2902.86852212609     IErMin= 5 ErrMin= 1.74D-04
 ErrMax= 1.74D-04  0.00D+00 EMaxC= 1.00D-01 BMatC= 3.57D-06 BMatP= 5.44D-05
 IDIUse=3 WtCom= 9.98D-01 WtEn= 1.74D-03
 Coeff-Com:  0.870D-03-0.165D-01-0.690D-01-0.889D-03 0.109D+01
 Coeff-En:   0.000D+00 0.000D+00 0.000D+00 0.000D+00 0.100D+01
 Coeff:      0.869D-03-0.165D-01-0.689D-01-0.888D-03 0.109D+01
 Gap=     0.491 Goal=   None    Shift=    0.000
 RMSDP=1.09D-05 MaxDP=3.27D-04 DE=-4.44D-05 OVMax= 7.05D-04

 Cycle   6  Pass 1  IDiag  1:
 E= -2902.86852714206     Delta-E=       -0.000005015977 Rises=F Damp=F
 DIIS: error= 2.99D-05 at cycle   6 NSaved=   6.
 NSaved= 6 IEnMin= 6 EnMin= -2902.86852714206     IErMin= 6 ErrMin= 2.99D-05
 ErrMax= 2.99D-05  0.00D+00 EMaxC= 1.00D-01 BMatC= 1.70D-07 BMatP= 3.57D-06
 IDIUse=1 WtCom= 1.00D+00 WtEn= 0.00D+00
 Coeff-Com:  0.143D-03 0.291D-03-0.434D-02-0.460D-01-0.507D-01 0.110D+01
 Coeff:      0.143D-03 0.291D-03-0.434D-02-0.460D-01-0.507D-01 0.110D+01
 Gap=     0.491 Goal=   None    Shift=    0.000
 RMSDP=2.88D-06 MaxDP=8.50D-05 DE=-5.02D-06 OVMax= 1.84D-04

 Cycle   7  Pass 1  IDiag  1:
 E= -2902.86852749529     Delta-E=       -0.000000353232 Rises=F Damp=F
 DIIS: error= 8.63D-06 at cycle   7 NSaved=   7.
 NSaved= 7 IEnMin= 7 EnMin= -2902.86852749529     IErMin= 7 ErrMin= 8.63D-06
 ErrMax= 8.63D-06  0.00D+00 EMaxC= 1.00D-01 BMatC= 1.09D-08 BMatP= 1.70D-07
 IDIUse=1 WtCom= 1.00D+00 WtEn= 0.00D+00
 Coeff-Com: -0.509D-04 0.851D-03 0.411D-02 0.525D-02-0.578D-01-0.160D+00
 Coeff-Com:  0.121D+01
 Coeff:     -0.509D-04 0.851D-03 0.411D-02 0.525D-02-0.578D-01-0.160D+00
 Coeff:      0.121D+01
 Gap=     0.491 Goal=   None    Shift=    0.000
 RMSDP=1.12D-06 MaxDP=3.89D-05 DE=-3.53D-07 OVMax= 7.20D-05

 Cycle   8  Pass 1  IDiag  1:
 E= -2902.86852752709     Delta-E=       -0.000000031797 Rises=F Damp=F
 DIIS: error= 2.90D-06 at cycle   8 NSaved=   8.
 NSaved= 8 IEnMin= 8 EnMin= -2902.86852752709     IErMin= 8 ErrMin= 2.90D-06
 ErrMax= 2.90D-06  0.00D+00 EMaxC= 1.00D-01 BMatC= 9.18D-10 BMatP= 1.09D-08
 IDIUse=1 WtCom= 1.00D+00 WtEn= 0.00D+00
 Coeff-Com: -0.364D-05-0.120D-03-0.177D-03 0.236D-02 0.707D-02-0.451D-01
 Coeff-Com: -0.879D-01 0.112D+01
 Coeff:     -0.364D-05-0.120D-03-0.177D-03 0.236D-02 0.707D-02-0.451D-01
 Coeff:     -0.879D-01 0.112D+01
 Gap=     0.491 Goal=   None    Shift=    0.000
 RMSDP=2.63D-07 MaxDP=7.14D-06 DE=-3.18D-08 OVMax= 2.09D-05

 Cycle   9  Pass 1  IDiag  1:
 E= -2902.86852752935     Delta-E=       -0.000000002256 Rises=F Damp=F
 DIIS: error= 1.21D-06 at cycle   9 NSaved=   9.
 NSaved= 9 IEnMin= 9 EnMin= -2902.86852752935     IErMin= 9 ErrMin= 1.21D-06
 ErrMax= 1.21D-06  0.00D+00 EMaxC= 1.00D-01 BMatC= 2.54D-10 BMatP= 9.18D-10
 IDIUse=1 WtCom= 1.00D+00 WtEn= 0.00D+00
 Coeff-Com:  0.513D-05-0.143D-03-0.574D-03 0.172D-04 0.949D-02 0.602D-02
 Coeff-Com: -0.177D+00 0.342D+00 0.820D+00
 Coeff:      0.513D-05-0.143D-03-0.574D-03 0.172D-04 0.949D-02 0.602D-02
 Coeff:     -0.177D+00 0.342D+00 0.820D+00
 Gap=     0.491 Goal=   None    Shift=    0.000
 RMSDP=8.96D-08 MaxDP=2.78D-06 DE=-2.26D-09 OVMax= 7.83D-06

 Cycle  10  Pass 1  IDiag  1:
 E= -2902.86852752977     Delta-E=       -0.000000000426 Rises=F Damp=F
 DIIS: error= 5.89D-07 at cycle  10 NSaved=  10.
 NSaved=10 IEnMin=10 EnMin= -2902.86852752977     IErMin=10 ErrMin= 5.89D-07
 ErrMax= 5.89D-07  0.00D+00 EMaxC= 1.00D-01 BMatC= 3.38D-11 BMatP= 2.54D-10
 IDIUse=1 WtCom= 1.00D+00 WtEn= 0.00D+00
 Coeff-Com:  0.899D-06 0.372D-04 0.605D-04-0.676D-03-0.201D-02 0.110D-01
 Coeff-Com:  0.318D-01-0.287D+00-0.509D-01 0.130D+01
 Coeff:      0.899D-06 0.372D-04 0.605D-04-0.676D-03-0.201D-02 0.110D-01
 Coeff:      0.318D-01-0.287D+00-0.509D-01 0.130D+01
 Gap=     0.491 Goal=   None    Shift=    0.000
 RMSDP=5.85D-08 MaxDP=1.41D-06 DE=-4.26D-10 OVMax= 5.67D-06

 Cycle  11  Pass 1  IDiag  1:
 E= -2902.86852752987     Delta-E=       -0.000000000102 Rises=F Damp=F
 DIIS: error= 1.63D-07 at cycle  11 NSaved=  11.
 NSaved=11 IEnMin=11 EnMin= -2902.86852752987     IErMin=11 ErrMin= 1.63D-07
 ErrMax= 1.63D-07  0.00D+00 EMaxC= 1.00D-01 BMatC= 1.92D-12 BMatP= 3.38D-11
 IDIUse=1 WtCom= 1.00D+00 WtEn= 0.00D+00
 Coeff-Com: -0.519D-06 0.409D-05 0.336D-04 0.142D-03-0.471D-03-0.244D-02
 Coeff-Com:  0.111D-01 0.792D-02-0.557D-01-0.146D+00 0.119D+01
 Coeff:     -0.519D-06 0.409D-05 0.336D-04 0.142D-03-0.471D-03-0.244D-02
 Coeff:      0.111D-01 0.792D-02-0.557D-01-0.146D+00 0.119D+01
 Gap=     0.491 Goal=   None    Shift=    0.000
 RMSDP=1.30D-08 MaxDP=3.17D-07 DE=-1.02D-10 OVMax= 1.26D-06

 Cycle  12  Pass 1  IDiag  1:
 E= -2902.86852752987     Delta-E=        0.000000000008 Rises=F Damp=F
 DIIS: error= 4.23D-08 at cycle  12 NSaved=  12.
 NSaved=12 IEnMin=11 EnMin= -2902.86852752987     IErMin=12 ErrMin= 4.23D-08
 ErrMax= 4.23D-08  0.00D+00 EMaxC= 1.00D-01 BMatC= 2.40D-13 BMatP= 1.92D-12
 IDIUse=1 WtCom= 1.00D+00 WtEn= 0.00D+00
 Coeff-Com: -0.974D-07-0.538D-05-0.104D-04 0.986D-04 0.279D-03-0.168D-02
 Coeff-Com: -0.344D-02 0.353D-01 0.764D-02-0.155D+00-0.904D-01 0.121D+01
 Coeff:     -0.974D-07-0.538D-05-0.104D-04 0.986D-04 0.279D-03-0.168D-02
 Coeff:     -0.344D-02 0.353D-01 0.764D-02-0.155D+00-0.904D-01 0.121D+01
 Gap=     0.491 Goal=   None    Shift=    0.000
 RMSDP=4.93D-09 MaxDP=1.04D-07 DE= 7.73D-12 OVMax= 4.24D-07

 SCF Done:  E(RHF) =  -2902.86852753     A.U. after   12 cycles
            NFock= 12  Conv=0.49D-08     -V/T= 2.0001
 KE= 2.902673751891D+03 PE=-7.243053740469D+03 EE= 1.285722174560D+03
 Leave Link  502 at Mon Mar 30 12:36:08 2020, MaxMem=  2147483648 cpu:              27.8 elap:               3.5
 (Enter /usr/local/g16/g16/l801.exe)
 Windowed orbitals will be sorted by symmetry type.
 ExpMin= 2.53D-02 ExpMax= 1.17D+07 ExpMxC= 1.33D+04 IAcc=3 IRadAn=         5 AccDes= 0.00D+00
 HarFok:  IExCor=  205 AccDes= 0.00D+00 IRadAn=         5 IDoV=-2 UseB2=F ITyADJ=14
 ICtDFT= 12500011 ScaDFX=  1.000000  1.000000  1.000000  1.000000
 Largest valence mixing into a core orbital is  1.19D-04
 Largest core mixing into a valence orbital is  3.83D-05
 Range of M.O.s used for correlation:    12   197
 NBasis=   197 NAE=    27 NBE=    27 NFC=    11 NFV=     0
 NROrb=    186 NOA=    16 NOB=    16 NVA=   170 NVB=   170

 **** Warning!!: The largest alpha MO coefficient is  0.17310888D+02

 Leave Link  801 at Mon Mar 30 12:36:08 2020, MaxMem=  2147483648 cpu:               0.6 elap:               0.0
 (Enter /usr/local/g16/g16/l804.exe)
 Closed-shell transformation, MDV=  2147483648 ITran=4 ISComp=1.
 Unit  1 TFree=       1248993 TCopy=        808885.
 Semi-Direct transformation.
 ModeAB=           2 MOrb=            16 LenV=    2146358598
 LASXX=     48528660 LTotXX=    48528660 LenRXX=    48528660
 LTotAB=    49298776 MaxLAS=    78372960 LenRXY=    78372960
 NonZer=    97057320 LenScr=   146313216 LnRSAI=           0
 LnScr1=           0 LExtra=           0 Total=    273214836
 MaxDsk=          -1 SrtSym=           F ITran=            4
 DoSDTr:  NPSUse= 16
 JobTyp=0 Pass  1:  I=   1 to  16.
 (rs|ai) integrals will be sorted in core.
 Complete sort for first half transformation.
 First half transformation complete.
 Begin second half transformation for I=  10.
 Begin second half transformation for I=  10.
 Complete sort for second half transformation.
 Second half transformation complete.
 SymMOI:  orbitals are not symmetric.
 Spin components of T(2) and E(2):
     alpha-alpha T2 =       0.2624330013D-01 E2=     -0.1006406495D+00
     alpha-beta  T2 =       0.1424985025D+00 E2=     -0.5583455042D+00
     beta-beta   T2 =       0.2624330013D-01 E2=     -0.1006406495D+00
 ANorm=    0.1093153742D+01
 E2 =    -0.7596268032D+00 EUMP2 =    -0.29036281543331D+04
 Leave Link  804 at Mon Mar 30 12:36:19 2020, MaxMem=  2147483648 cpu:             174.1 elap:              10.9
 (Enter /usr/local/g16/g16/l913.exe)
 CIDS:  MDV=  2147483648.
 Frozen-core window:  NFC=  11 NFV=   0.
 IFCWin=0 IBDFC=1 NFBD=     0     0 NFCmp=     0     0 NFFFC=     0     0
 Using DD3R+UMP44R for 1st iteration.
 Using DD4RQ for 2nd and later iterations.
 Keep R2 and R3 ints in memory in canonical form, NReq=393341546.
 FoFCou: FMM=F IPFlag=           0 FMFlag=           0 FMFlg1=           0
         NFxFlg=           0 DoJE=F BraDBF=F KetDBF=F FulRan=T
         wScrn=  0.000000 ICntrl=       600 IOpCl=  0 I1Cent=           0 NGrid=           0
         NMat0=    1 NMatS0=  19503 NMatT0=    0 NMatD0=    1 NMtDS0=    0 NMtDT0=    0
 Symmetry not used in FoFCou.
 Two-electron integral symmetry not used.
 CIDS: In Core Option IDoMem=           1.
 MP4(SDTQ)
 =========
 Produce multiple copies of IABC intergrals
 DD1Dir will call FoFMem   1 times, MxPair=       272
 NAB=   136 NAA=     0 NBB=     0.
 MP4(D)= -0.14913657D-01
 MP4(S)= -0.65920484D-02
 MP4(R+Q)=  0.15697218D-01
 T4(AAA)= -0.10759425D-02
 T4(AAB)= -0.14433095D-01
 Time for triples=     1738.12 seconds.
 MP4(T)=   -0.31018075D-01
 E3=       -0.10915215D-01        EUMP3=      -0.29036390695D+04
 E4(DQ)=    0.78356097D-03        UMP4(DQ)=   -0.29036382860D+04
 E4(SDQ)=  -0.58084874D-02        UMP4(SDQ)=  -0.29036448780D+04
 E4(SDTQ)= -0.36826562D-01        UMP4(SDTQ)= -0.29036758961D+04
 VARIATIONAL ENERGIES WITH THE FIRST-ORDER WAVEFUNCTION:
 E(VAR1)=  -0.29035133406D+04     E(CISD,4)=  -0.29035124593D+04
 Largest amplitude= 2.69D-02
 Discarding MO integrals.
 Leave Link  913 at Mon Mar 30 12:38:15 2020, MaxMem=  2147483648 cpu:            1857.8 elap:             116.3
 (Enter /usr/local/g16/g16/l601.exe)
 Copying SCF densities to generalized density rwf, IOpCl= 0 IROHF=0.

 **********************************************************************

            Population analysis using the SCF density.

 **********************************************************************

 Orbital symmetries:
       Occupied  (A) (A) (A) (A) (A) (A) (A) (A) (A) (A) (A) (A)
                 (A) (A) (A) (A) (A) (A) (A) (A) (A) (A) (A) (A)
                 (A) (A) (A)
       Virtual   (A) (A) (A) (A) (A) (A) (A) (A) (A) (A) (A) (A)
                 (A) (A) (A) (A) (A) (A) (A) (A) (A) (A) (A) (A)
                 (A) (A) (A) (A) (A) (A) (A) (A) (A) (A) (A) (A)
                 (A) (A) (A) (A) (A) (A) (A) (A) (A) (A) (A) (A)
                 (A) (A) (A) (A) (A) (A) (A) (A) (A) (A) (A) (A)
                 (A) (A) (A) (A) (A) (A) (A) (A) (A) (A) (A) (A)
                 (A) (A) (A) (A) (A) (A) (A) (A) (A) (A) (A) (A)
                 (A) (A) (A) (A) (A) (A) (A) (A) (A) (A) (A) (A)
                 (A) (A) (A) (A) (A) (A) (A) (A) (A) (A) (A) (A)
                 (A) (A) (A) (A) (A) (A) (A) (A) (A) (A) (A) (A)
                 (A) (A) (A) (A) (A) (A) (A) (A) (A) (A) (A) (A)
                 (A) (A) (A) (A) (A) (A) (A) (A) (A) (A) (A) (A)
                 (A) (A) (A) (A) (A) (A) (A) (A) (A) (A) (A) (A)
                 (A) (A) (A) (A) (A) (A) (A) (A) (A) (A) (A) (A)
                 (A) (A)
 The electronic state is 1-A.
 Alpha  occ. eigenvalues -- -520.20549 -69.94308 -63.04964 -63.04963 -63.04961
 Alpha  occ. eigenvalues --  -20.62531 -20.62498 -10.88973  -8.37189  -8.37175
 Alpha  occ. eigenvalues --   -8.37158  -3.86564  -3.86563  -3.86543  -3.86535
 Alpha  occ. eigenvalues --   -3.86531  -1.46675  -1.21400  -1.19706  -0.77020
 Alpha  occ. eigenvalues --   -0.62593  -0.59862  -0.59033  -0.56281  -0.55767
 Alpha  occ. eigenvalues --   -0.54941  -0.45498
 Alpha virt. eigenvalues --    0.03642   0.04617   0.08504   0.09253   0.11298
 Alpha virt. eigenvalues --    0.13550   0.14747   0.17493   0.18171   0.18812
 Alpha virt. eigenvalues --    0.19607   0.19873   0.23841   0.25392   0.25717
 Alpha virt. eigenvalues --    0.26572   0.28548   0.28970   0.33950   0.35855
 Alpha virt. eigenvalues --    0.36340   0.39887   0.40736   0.41350   0.42116
 Alpha virt. eigenvalues --    0.46768   0.49910   0.52386   0.55971   0.57290
 Alpha virt. eigenvalues --    0.64439   0.65742   0.67189   0.68820   0.69545
 Alpha virt. eigenvalues --    0.74576   0.75015   0.76896   0.78519   0.81828
 Alpha virt. eigenvalues --    0.82188   0.82802   0.86360   0.89272   0.91169
 Alpha virt. eigenvalues --    0.91389   0.92428   0.94867   0.97675   0.98170
 Alpha virt. eigenvalues --    1.00076   1.03340   1.04132   1.05128   1.07707
 Alpha virt. eigenvalues --    1.10866   1.13047   1.14298   1.16616   1.17736
 Alpha virt. eigenvalues --    1.20410   1.25612   1.29887   1.35181   1.37003
 Alpha virt. eigenvalues --    1.39003   1.42906   1.47390   1.49400   1.54156
 Alpha virt. eigenvalues --    1.56683   1.59945   1.63759   1.67381   1.69110
 Alpha virt. eigenvalues --    1.74095   1.79166   1.94226   2.06746   2.08449
 Alpha virt. eigenvalues --    2.13052   2.15571   2.26815   2.28370   2.33095
 Alpha virt. eigenvalues --    2.35795   2.38112   2.39236   2.41450   2.45215
 Alpha virt. eigenvalues --    2.48301   2.48812   2.51981   2.52850   2.55040
 Alpha virt. eigenvalues --    2.56196   2.58862   2.60858   2.64615   2.65950
 Alpha virt. eigenvalues --    2.67783   2.69687   2.76846   2.77984   2.80799
 Alpha virt. eigenvalues --    2.81954   2.83963   2.87763   2.88567   2.89951
 Alpha virt. eigenvalues --    2.92926   2.95522   2.99033   3.06581   3.11462
 Alpha virt. eigenvalues --    3.13561   3.31359   3.32552   3.34686   3.76259
 Alpha virt. eigenvalues --    3.97347   4.10376   4.19545   4.28032   4.30254
 Alpha virt. eigenvalues --    4.33243   4.37952   4.40152   4.41206   4.51275
 Alpha virt. eigenvalues --    4.61250   4.77597   4.77655   5.02629   5.04192
 Alpha virt. eigenvalues --    5.22246   5.26693   5.30061   5.33079   5.40644
 Alpha virt. eigenvalues --    5.46650   5.88512   6.14967   6.32420   6.41400
 Alpha virt. eigenvalues --    6.46428   6.67233   6.72688   6.83501   6.93140
 Alpha virt. eigenvalues --    7.04955   7.10961   7.12752   7.18139   7.19113
 Alpha virt. eigenvalues --    7.25834   7.26736   7.27377   7.30813   7.48294
 Alpha virt. eigenvalues --    7.53309   7.60687   7.68509   7.70153   7.99795
 Alpha virt. eigenvalues --    8.37890   8.46259   8.61241  14.45705  15.42104
          Condensed to atoms (all electrons):
               1          2          3          4          5
     1  O    8.143530  -0.112630   0.232630   0.019519  -0.014983
     2  O   -0.112630   8.140530   0.021122   0.236427  -0.013849
     3  H    0.232630   0.021122   0.510986  -0.017091  -0.009338
     4  H    0.019519   0.236427  -0.017091   0.508679  -0.011326
     5  Kr  -0.014983  -0.013849  -0.009338  -0.011326  36.035312
 Mulliken charges:
               1
     1  O   -0.268066
     2  O   -0.271600
     3  H    0.261690
     4  H    0.263792
     5  Kr   0.014184
 Sum of Mulliken charges =  -0.00000
 Mulliken charges with hydrogens summed into heavy atoms:
               1
     1  O   -0.006376
     2  O   -0.007808
     5  Kr   0.014184
         Mulliken charges condensed to fragments:
      1     -0.014184
      2      0.014184
 Electronic spatial extent (au):  <R**2>=            475.5762
 Charge=             -0.0000 electrons
 Dipole moment (field-independent basis, Debye):
    X=             -3.7935    Y=             -0.0113    Z=              0.2382  Tot=              3.8010
 Quadrupole moment (field-independent basis, Debye-Ang):
   XX=            -39.2532   YY=            -28.1001   ZZ=            -30.3325
   XY=             -0.0344   XZ=              0.2671   YZ=             -0.3156
 Traceless Quadrupole moment (field-independent basis, Debye-Ang):
   XX=             -6.6913   YY=              4.4618   ZZ=              2.2294
   XY=             -0.0344   XZ=              0.2671   YZ=             -0.3156
 Octapole moment (field-independent basis, Debye-Ang**2):
  XXX=            -45.0062  YYY=             -0.0273  ZZZ=              0.0003  XYY=             -7.9768
  XXY=             -0.0796  XXZ=             -0.0118  XZZ=             -8.4556  YZZ=             -0.0559
  YYZ=              0.3599  XYZ=             -0.3451
 Hexadecapole moment (field-independent basis, Debye-Ang**3):
 XXXX=           -455.3841 YYYY=            -62.5562 ZZZZ=            -28.2556 XXXY=             -0.0779
 XXXZ=             -0.4579 YYYX=             -0.0634 YYYZ=             -0.4271 ZZZX=              0.1185
 ZZZY=             -0.1653 XXYY=            -86.4258 XXZZ=            -75.6810 YYZZ=            -16.9728
 XXYZ=             -0.3660 YYXZ=              0.4125 ZZXY=             -0.0707
 N-N= 1.517892864884D+02 E-N=-7.243053739812D+03  KE= 2.902673751891D+03
 Leave Link  601 at Mon Mar 30 12:38:16 2020, MaxMem=  2147483648 cpu:               0.4 elap:               0.0
 (Enter /usr/local/g16/g16/l122.exe)
 CPIOFr:  IOpCl= 0 IRwI=-1 IRwCP=  731 ICalc= -1 LCPTot=       59414 Len1MO=      159453 IndFrg=       59414
 CPIOFr:  IOpCl= 0 IRwI=-1 IRwCP=  731 ICalc=  0 LCPTot=       59414 Len1MO=      159453 IndFrg=      218867
 Counterpoise: doing calculation for fragment   1 using the basis set of the full-system, NewBq=T
 Leave Link  122 at Mon Mar 30 12:38:16 2020, MaxMem=  2147483648 cpu:               0.0 elap:               0.0
 (Enter /usr/local/g16/g16/l301.exe)
 Basis read from rwf:  (5D, 7F)
 No pseudopotential information found on rwf file.
 There are   229 symmetry adapted cartesian basis functions of A   symmetry.
 There are   197 symmetry adapted basis functions of A   symmetry.
   197 basis functions,   415 primitive gaussians,   229 cartesian basis functions
     9 alpha electrons        9 beta electrons
       nuclear repulsion energy        36.6659650848 Hartrees.
 IExCor=    0 DFT=F Ex=HF Corr=None ExCW=0 ScaHFX=  1.000000
 ScaDFX=  1.000000  1.000000  1.000000  1.000000 ScalE2=  1.000000  1.000000
 IRadAn=      5 IRanWt=     -1 IRanGd=            0 ICorTp=0 IEmpDi=  4
 NAtoms=    5 NActive=    5 NUniq=    5 SFac= 1.00D+00 NAtFMM=   60 NAOKFM=F Big=F
 Integral buffers will be    131072 words long.
 Raffenetti 1 integral format.
 Two-electron integral symmetry is turned on.
 No density basis found on file   718.
 Leave Link  301 at Mon Mar 30 12:38:16 2020, MaxMem=  2147483648 cpu:               0.3 elap:               0.0
 (Enter /usr/local/g16/g16/l302.exe)
 NPDir=0 NMtPBC=     1 NCelOv=     1 NCel=       1 NClECP=     1 NCelD=      1
         NCelK=      1 NCelE2=     1 NClLst=     1 CellRange=     0.0.
 One-electron integrals computed using PRISM.
 One-electron integral symmetry used in STVInt
 NBasis=   197 RedAO= T EigKep=  1.46D-04  NBF=   197
 NBsUse=   197 1.00D-06 EigRej= -1.00D+00 NBFU=   197
 Leave Link  302 at Mon Mar 30 12:38:16 2020, MaxMem=  2147483648 cpu:               1.6 elap:               0.1
 (Enter /usr/local/g16/g16/l303.exe)
 DipDrv:  MaxL=1.
 Leave Link  303 at Mon Mar 30 12:38:16 2020, MaxMem=  2147483648 cpu:               0.4 elap:               0.0
 (Enter /usr/local/g16/g16/l401.exe)
 ExpMin= 2.53D-02 ExpMax= 1.17D+07 ExpMxC= 1.33D+04 IAcc=3 IRadAn=         5 AccDes= 0.00D+00
 Harris functional with IExCor=  205 and IRadAn=       5 diagonalized for initial guess.
 HarFok:  IExCor=  205 AccDes= 0.00D+00 IRadAn=         5 IDoV= 1 UseB2=F ITyADJ=14
 ICtDFT=  3500011 ScaDFX=  1.000000  1.000000  1.000000  1.000000
 FoFCou: FMM=F IPFlag=           0 FMFlag=      100000 FMFlg1=           0
         NFxFlg=           0 DoJE=T BraDBF=F KetDBF=T FulRan=T
         wScrn=  0.000000 ICntrl=       500 IOpCl=  0 I1Cent=   200000004 NGrid=           0
         NMat0=    1 NMatS0=      1 NMatT0=    0 NMatD0=    1 NMtDS0=    0 NMtDT0=    0
 Petite list used in FoFCou.
 Harris En= -150.932397610204    
 JPrj=0 DoOrth=F DoCkMO=F.
 Leave Link  401 at Mon Mar 30 12:38:16 2020, MaxMem=  2147483648 cpu:               3.0 elap:               0.2
 (Enter /usr/local/g16/g16/l502.exe)
 Keep R1 ints in memory in canonical form, NReq=203140061.
 FoFCou: FMM=F IPFlag=           0 FMFlag=           0 FMFlg1=           0
         NFxFlg=           0 DoJE=F BraDBF=F KetDBF=F FulRan=T
         wScrn=  0.000000 ICntrl=       600 IOpCl=  0 I1Cent=           0 NGrid=           0
         NMat0=    1 NMatS0=  19503 NMatT0=    0 NMatD0=    1 NMtDS0=    0 NMtDT0=    0
 Symmetry not used in FoFCou.
 Two-electron integral symmetry not used.
 Closed shell SCF:
 Using DIIS extrapolation, IDIIS=  1040.
 NGot=  2147483648 LenX=  1957179903 LenY=  1957127021
 Requested convergence on RMS density matrix=1.00D-08 within 128 cycles.
 Requested convergence on MAX density matrix=1.00D-06.
 Requested convergence on             energy=1.00D-06.
 No special actions if energy rises.

 Cycle   1  Pass 1  IDiag  1:
 E= -150.761635629274    
 DIIS: error= 2.31D-02 at cycle   1 NSaved=   1.
 NSaved= 1 IEnMin= 1 EnMin= -150.761635629274     IErMin= 1 ErrMin= 2.31D-02
 ErrMax= 2.31D-02  0.00D+00 EMaxC= 1.00D-01 BMatC= 2.32D-01 BMatP= 2.32D-01
 IDIUse=3 WtCom= 7.69D-01 WtEn= 2.31D-01
 Coeff-Com:  0.100D+01
 Coeff-En:   0.100D+01
 Coeff:      0.100D+01
 Gap=     0.686 Goal=   None    Shift=    0.000
 GapD=    0.686 DampG=2.000 DampE=0.500 DampFc=1.0000 IDamp=-1.
 RMSDP=8.97D-04 MaxDP=2.90D-02              OVMax= 6.95D-02

 Cycle   2  Pass 1  IDiag  1:
 E= -150.817043196491     Delta-E=       -0.055407567217 Rises=F Damp=F
 DIIS: error= 9.35D-03 at cycle   2 NSaved=   2.
 NSaved= 2 IEnMin= 2 EnMin= -150.817043196491     IErMin= 2 ErrMin= 9.35D-03
 ErrMax= 9.35D-03  0.00D+00 EMaxC= 1.00D-01 BMatC= 1.80D-02 BMatP= 2.32D-01
 IDIUse=3 WtCom= 9.07D-01 WtEn= 9.35D-02
 Coeff-Com:  0.118D+00 0.882D+00
 Coeff-En:   0.000D+00 0.100D+01
 Coeff:      0.107D+00 0.893D+00
 Gap=     0.512 Goal=   None    Shift=    0.000
 RMSDP=5.57D-04 MaxDP=2.51D-02 DE=-5.54D-02 OVMax= 3.01D-02

 Cycle   3  Pass 1  IDiag  1:
 E= -150.826316766755     Delta-E=       -0.009273570264 Rises=F Damp=F
 DIIS: error= 3.96D-03 at cycle   3 NSaved=   3.
 NSaved= 3 IEnMin= 3 EnMin= -150.826316766755     IErMin= 3 ErrMin= 3.96D-03
 ErrMax= 3.96D-03  0.00D+00 EMaxC= 1.00D-01 BMatC= 2.57D-03 BMatP= 1.80D-02
 IDIUse=3 WtCom= 9.60D-01 WtEn= 3.96D-02
 Coeff-Com: -0.211D-01 0.253D+00 0.768D+00
 Coeff-En:   0.000D+00 0.000D+00 0.100D+01
 Coeff:     -0.203D-01 0.243D+00 0.778D+00
 Gap=     0.482 Goal=   None    Shift=    0.000
 RMSDP=1.29D-04 MaxDP=4.67D-03 DE=-9.27D-03 OVMax= 1.01D-02

 Cycle   4  Pass 1  IDiag  1:
 E= -150.827932885748     Delta-E=       -0.001616118993 Rises=F Damp=F
 DIIS: error= 3.89D-04 at cycle   4 NSaved=   4.
 NSaved= 4 IEnMin= 4 EnMin= -150.827932885748     IErMin= 4 ErrMin= 3.89D-04
 ErrMax= 3.89D-04  0.00D+00 EMaxC= 1.00D-01 BMatC= 1.69D-05 BMatP= 2.57D-03
 IDIUse=3 WtCom= 9.96D-01 WtEn= 3.89D-03
 Coeff-Com: -0.189D-02-0.117D-01 0.971D-02 0.100D+01
 Coeff-En:   0.000D+00 0.000D+00 0.000D+00 0.100D+01
 Coeff:     -0.189D-02-0.116D-01 0.967D-02 0.100D+01
 Gap=     0.483 Goal=   None    Shift=    0.000
 RMSDP=1.76D-05 MaxDP=4.84D-04 DE=-1.62D-03 OVMax= 1.33D-03

 Cycle   5  Pass 1  IDiag  1:
 E= -150.827956479751     Delta-E=       -0.000023594003 Rises=F Damp=F
 DIIS: error= 9.78D-05 at cycle   5 NSaved=   5.
 NSaved= 5 IEnMin= 5 EnMin= -150.827956479751     IErMin= 5 ErrMin= 9.78D-05
 ErrMax= 9.78D-05  0.00D+00 EMaxC= 1.00D-01 BMatC= 1.57D-06 BMatP= 1.69D-05
 IDIUse=1 WtCom= 1.00D+00 WtEn= 0.00D+00
 Coeff-Com:  0.175D-02-0.168D-01-0.591D-01-0.154D+00 0.123D+01
 Coeff:      0.175D-02-0.168D-01-0.591D-01-0.154D+00 0.123D+01
 Gap=     0.484 Goal=   None    Shift=    0.000
 RMSDP=9.45D-06 MaxDP=3.13D-04 DE=-2.36D-05 OVMax= 8.32D-04

 Cycle   6  Pass 1  IDiag  1:
 E= -150.827960141318     Delta-E=       -0.000003661567 Rises=F Damp=F
 DIIS: error= 2.46D-05 at cycle   6 NSaved=   6.
 NSaved= 6 IEnMin= 6 EnMin= -150.827960141318     IErMin= 6 ErrMin= 2.46D-05
 ErrMax= 2.46D-05  0.00D+00 EMaxC= 1.00D-01 BMatC= 6.33D-08 BMatP= 1.57D-06
 IDIUse=1 WtCom= 1.00D+00 WtEn= 0.00D+00
 Coeff-Com: -0.454D-03 0.531D-02 0.194D-01 0.289D-01-0.463D+00 0.141D+01
 Coeff:     -0.454D-03 0.531D-02 0.194D-01 0.289D-01-0.463D+00 0.141D+01
 Gap=     0.484 Goal=   None    Shift=    0.000
 RMSDP=2.57D-06 MaxDP=7.92D-05 DE=-3.66D-06 OVMax= 2.41D-04

 Cycle   7  Pass 1  IDiag  1:
 E= -150.827960320161     Delta-E=       -0.000000178843 Rises=F Damp=F
 DIIS: error= 3.78D-06 at cycle   7 NSaved=   7.
 NSaved= 7 IEnMin= 7 EnMin= -150.827960320161     IErMin= 7 ErrMin= 3.78D-06
 ErrMax= 3.78D-06  0.00D+00 EMaxC= 1.00D-01 BMatC= 1.82D-09 BMatP= 6.33D-08
 IDIUse=1 WtCom= 1.00D+00 WtEn= 0.00D+00
 Coeff-Com:  0.695D-04-0.977D-03-0.388D-02-0.155D-02 0.881D-01-0.368D+00
 Coeff-Com:  0.129D+01
 Coeff:      0.695D-04-0.977D-03-0.388D-02-0.155D-02 0.881D-01-0.368D+00
 Coeff:      0.129D+01
 Gap=     0.484 Goal=   None    Shift=    0.000
 RMSDP=4.12D-07 MaxDP=1.05D-05 DE=-1.79D-07 OVMax= 4.35D-05

 Cycle   8  Pass 1  IDiag  1:
 E= -150.827960325268     Delta-E=       -0.000000005107 Rises=F Damp=F
 DIIS: error= 1.47D-06 at cycle   8 NSaved=   8.
 NSaved= 8 IEnMin= 8 EnMin= -150.827960325268     IErMin= 8 ErrMin= 1.47D-06
 ErrMax= 1.47D-06  0.00D+00 EMaxC= 1.00D-01 BMatC= 1.92D-10 BMatP= 1.82D-09
 IDIUse=1 WtCom= 1.00D+00 WtEn= 0.00D+00
 Coeff-Com: -0.658D-05 0.167D-03 0.849D-03-0.156D-02-0.161D-01 0.104D+00
 Coeff-Com: -0.674D+00 0.159D+01
 Coeff:     -0.658D-05 0.167D-03 0.849D-03-0.156D-02-0.161D-01 0.104D+00
 Coeff:     -0.674D+00 0.159D+01
 Gap=     0.484 Goal=   None    Shift=    0.000
 RMSDP=1.51D-07 MaxDP=3.39D-06 DE=-5.11D-09 OVMax= 2.03D-05

 Cycle   9  Pass 1  IDiag  1:
 E= -150.827960325979     Delta-E=       -0.000000000711 Rises=F Damp=F
 DIIS: error= 4.16D-07 at cycle   9 NSaved=   9.
 NSaved= 9 IEnMin= 9 EnMin= -150.827960325979     IErMin= 9 ErrMin= 4.16D-07
 ErrMax= 4.16D-07  0.00D+00 EMaxC= 1.00D-01 BMatC= 1.34D-11 BMatP= 1.92D-10
 IDIUse=1 WtCom= 1.00D+00 WtEn= 0.00D+00
 Coeff-Com: -0.232D-05 0.231D-04 0.586D-04 0.448D-03-0.248D-02 0.590D-02
 Coeff-Com:  0.223D-01-0.247D+00 0.122D+01
 Coeff:     -0.232D-05 0.231D-04 0.586D-04 0.448D-03-0.248D-02 0.590D-02
 Coeff:      0.223D-01-0.247D+00 0.122D+01
 Gap=     0.484 Goal=   None    Shift=    0.000
 RMSDP=3.37D-08 MaxDP=1.26D-06 DE=-7.11D-10 OVMax= 4.71D-06

 Cycle  10  Pass 1  IDiag  1:
 E= -150.827960326017     Delta-E=       -0.000000000038 Rises=F Damp=F
 DIIS: error= 1.26D-07 at cycle  10 NSaved=  10.
 NSaved=10 IEnMin=10 EnMin= -150.827960326017     IErMin=10 ErrMin= 1.26D-07
 ErrMax= 1.26D-07  0.00D+00 EMaxC= 1.00D-01 BMatC= 3.95D-12 BMatP= 1.34D-11
 IDIUse=1 WtCom= 1.00D+00 WtEn= 0.00D+00
 Coeff-Com:  0.377D-06-0.213D-04-0.127D-03 0.471D-03 0.172D-02-0.151D-01
 Coeff-Com:  0.120D+00-0.357D+00 0.480D+00 0.770D+00
 Coeff:      0.377D-06-0.213D-04-0.127D-03 0.471D-03 0.172D-02-0.151D-01
 Coeff:      0.120D+00-0.357D+00 0.480D+00 0.770D+00
 Gap=     0.484 Goal=   None    Shift=    0.000
 RMSDP=1.08D-08 MaxDP=4.70D-07 DE=-3.77D-11 OVMax= 1.40D-06

 Cycle  11  Pass 1  IDiag  1:
 E= -150.827960326022     Delta-E=       -0.000000000005 Rises=F Damp=F
 DIIS: error= 3.81D-08 at cycle  11 NSaved=  11.
 NSaved=11 IEnMin=11 EnMin= -150.827960326022     IErMin=11 ErrMin= 3.81D-08
 ErrMax= 3.81D-08  0.00D+00 EMaxC= 1.00D-01 BMatC= 1.48D-13 BMatP= 3.95D-12
 IDIUse=1 WtCom= 1.00D+00 WtEn= 0.00D+00
 Coeff-Com:  0.310D-06-0.143D-05 0.653D-05-0.907D-04 0.318D-04 0.105D-02
 Coeff-Com: -0.170D-01 0.760D-01-0.217D+00-0.137D+00 0.129D+01
 Coeff:      0.310D-06-0.143D-05 0.653D-05-0.907D-04 0.318D-04 0.105D-02
 Coeff:     -0.170D-01 0.760D-01-0.217D+00-0.137D+00 0.129D+01
 Gap=     0.484 Goal=   None    Shift=    0.000
 RMSDP=4.00D-09 MaxDP=1.13D-07 DE=-5.03D-12 OVMax= 4.91D-07

 SCF Done:  E(RHF) =  -150.827960326     A.U. after   11 cycles
            NFock= 11  Conv=0.40D-08     -V/T= 2.0019
 KE= 1.505465824885D+02 PE=-4.315221229308D+02 EE= 9.348161503150D+01
 Leave Link  502 at Mon Mar 30 12:38:19 2020, MaxMem=  2147483648 cpu:              26.3 elap:               3.3
 (Enter /usr/local/g16/g16/l801.exe)
 Windowed orbitals will be sorted by symmetry type.
 ExpMin= 2.53D-02 ExpMax= 1.17D+07 ExpMxC= 1.33D+04 IAcc=3 IRadAn=         5 AccDes= 0.00D+00
 HarFok:  IExCor=  205 AccDes= 0.00D+00 IRadAn=         5 IDoV=-2 UseB2=F ITyADJ=14
 ICtDFT= 12500011 ScaDFX=  1.000000  1.000000  1.000000  1.000000
 Largest valence mixing into a core orbital is  1.19D-04
 Largest core mixing into a valence orbital is  2.08D-05
 Range of M.O.s used for correlation:     3   197
 NBasis=   197 NAE=     9 NBE=     9 NFC=     2 NFV=     0
 NROrb=    195 NOA=     7 NOB=     7 NVA=   188 NVB=   188

 **** Warning!!: The largest alpha MO coefficient is  0.17659524D+02

 Leave Link  801 at Mon Mar 30 12:38:19 2020, MaxMem=  2147483648 cpu:               0.5 elap:               0.0
 (Enter /usr/local/g16/g16/l804.exe)
 Closed-shell transformation, MDV=  2147483648 ITran=4 ISComp=1.
 Semi-Direct transformation.
 ModeAB=           2 MOrb=             7 LenV=    2146278615
 LASXX=     25261509 LTotXX=    25261509 LenRXX=    25261509
 LTotAB=    25646992 MaxLAS=    35947275 LenRXY=    35947275
 NonZer=    50523018 LenScr=    76544000 LnRSAI=           0
 LnScr1=           0 LExtra=           0 Total=    137752784
 MaxDsk=          -1 SrtSym=           F ITran=            4
 DoSDTr:  NPSUse= 16
 JobTyp=0 Pass  1:  I=   1 to   7.
 (rs|ai) integrals will be sorted in core.
 Complete sort for first half transformation.
 First half transformation complete.
 Complete sort for second half transformation.
 Second half transformation complete.
 SymMOI:  orbitals are not symmetric.
 Spin components of T(2) and E(2):
     alpha-alpha T2 =       0.1606649048D-01 E2=     -0.6287103667D-01
     alpha-beta  T2 =       0.9337851190D-01 E2=     -0.3820584029D+00
     beta-beta   T2 =       0.1606649048D-01 E2=     -0.6287103667D-01
 ANorm=    0.1060901264D+01
 E2 =    -0.5078004763D+00 EUMP2 =    -0.15133576080231D+03
 Leave Link  804 at Mon Mar 30 12:38:27 2020, MaxMem=  2147483648 cpu:             117.9 elap:               7.4
 (Enter /usr/local/g16/g16/l913.exe)
 CIDS:  MDV=  2147483648.
 Frozen-core window:  NFC=   2 NFV=   0.
 IFCWin=0 IBDFC=1 NFBD=     0     0 NFCmp=     0     0 NFFFC=     0     0
 Using DD3R+UMP44R for 1st iteration.
 Using DD4RQ for 2nd and later iterations.
 Keep R2 and R3 ints in memory in canonical form, NReq=393338738.
 FoFCou: FMM=F IPFlag=           0 FMFlag=           0 FMFlg1=           0
         NFxFlg=           0 DoJE=F BraDBF=F KetDBF=F FulRan=T
         wScrn=  0.000000 ICntrl=       600 IOpCl=  0 I1Cent=           0 NGrid=           0
         NMat0=    1 NMatS0=  19503 NMatT0=    0 NMatD0=    1 NMtDS0=    0 NMtDT0=    0
 Symmetry not used in FoFCou.
 Two-electron integral symmetry not used.
 CIDS: In Core Option IDoMem=           1.
 MP4(SDTQ)
 =========
 Produce multiple copies of IABC intergrals
 DD1Dir will call FoFMem   1 times, MxPair=        56
 NAB=    28 NAA=     0 NBB=     0.
 MP4(D)= -0.11210360D-01
 MP4(S)= -0.52128074D-02
 MP4(R+Q)=  0.10832541D-01
 T4(AAA)= -0.66541639D-03
 T4(AAB)= -0.10327284D-01
 Time for triples=      368.28 seconds.
 MP4(T)=   -0.21985402D-01
 E3=       -0.20622677D-02        EUMP3=      -0.15133782307D+03
 E4(DQ)=   -0.37781899D-03        UMP4(DQ)=   -0.15133820089D+03
 E4(SDQ)=  -0.55906264D-02        UMP4(SDQ)=  -0.15134341370D+03
 E4(SDTQ)= -0.27576028D-01        UMP4(SDTQ)= -0.15136539910D+03
 VARIATIONAL ENERGIES WITH THE FIRST-ORDER WAVEFUNCTION:
 E(VAR1)=  -0.15128096569D+03     E(CISD,4)=  -0.15129051144D+03
 Largest amplitude= 4.20D-02
 Discarding MO integrals.
 Leave Link  913 at Mon Mar 30 12:38:53 2020, MaxMem=  2147483648 cpu:             423.9 elap:              26.5
 (Enter /usr/local/g16/g16/l601.exe)
 Copying SCF densities to generalized density rwf, IOpCl= 0 IROHF=0.

 **********************************************************************

            Population analysis using the SCF density.

 **********************************************************************

 Orbital symmetries:
       Occupied  (A) (A) (A) (A) (A) (A) (A) (A) (A)
       Virtual   (A) (A) (A) (A) (A) (A) (A) (A) (A) (A) (A) (A)
                 (A) (A) (A) (A) (A) (A) (A) (A) (A) (A) (A) (A)
                 (A) (A) (A) (A) (A) (A) (A) (A) (A) (A) (A) (A)
                 (A) (A) (A) (A) (A) (A) (A) (A) (A) (A) (A) (A)
                 (A) (A) (A) (A) (A) (A) (A) (A) (A) (A) (A) (A)
                 (A) (A) (A) (A) (A) (A) (A) (A) (A) (A) (A) (A)
                 (A) (A) (A) (A) (A) (A) (A) (A) (A) (A) (A) (A)
                 (A) (A) (A) (A) (A) (A) (A) (A) (A) (A) (A) (A)
                 (A) (A) (A) (A) (A) (A) (A) (A) (A) (A) (A) (A)
                 (A) (A) (A) (A) (A) (A) (A) (A) (A) (A) (A) (A)
                 (A) (A) (A) (A) (A) (A) (A) (A) (A) (A) (A) (A)
                 (A) (A) (A) (A) (A) (A) (A) (A) (A) (A) (A) (A)
                 (A) (A) (A) (A) (A) (A) (A) (A) (A) (A) (A) (A)
                 (A) (A) (A) (A) (A) (A) (A) (A) (A) (A) (A) (A)
                 (A) (A) (A) (A) (A) (A) (A) (A) (A) (A) (A) (A)
                 (A) (A) (A) (A) (A) (A) (A) (A)
 The electronic state is 1-A.
 Alpha  occ. eigenvalues --  -20.63480 -20.63452  -1.47327  -1.22049  -0.77016
 Alpha  occ. eigenvalues --   -0.63233  -0.59951  -0.57815  -0.46293
 Alpha virt. eigenvalues --    0.02097   0.04111   0.07304   0.07645   0.09756
 Alpha virt. eigenvalues --    0.10258   0.14128   0.17343   0.17755   0.18382
 Alpha virt. eigenvalues --    0.19138   0.20011   0.22957   0.27008   0.27626
 Alpha virt. eigenvalues --    0.28198   0.29412   0.29552   0.32030   0.35476
 Alpha virt. eigenvalues --    0.35755   0.36303   0.38771   0.42225   0.45231
 Alpha virt. eigenvalues --    0.46197   0.46777   0.48419   0.51296   0.55017
 Alpha virt. eigenvalues --    0.56942   0.59434   0.63014   0.68098   0.70101
 Alpha virt. eigenvalues --    0.73139   0.75592   0.80472   0.80920   0.84712
 Alpha virt. eigenvalues --    0.87167   0.88500   0.90223   0.92174   0.93966
 Alpha virt. eigenvalues --    0.97690   1.00461   1.00885   1.02007   1.04308
 Alpha virt. eigenvalues --    1.05739   1.07355   1.10907   1.12413   1.14518
 Alpha virt. eigenvalues --    1.15778   1.20780   1.26037   1.26624   1.28321
 Alpha virt. eigenvalues --    1.31927   1.31987   1.33800   1.34089   1.34670
 Alpha virt. eigenvalues --    1.36179   1.40293   1.41378   1.47876   1.51969
 Alpha virt. eigenvalues --    1.54740   1.56237   1.58953   1.60448   1.66081
 Alpha virt. eigenvalues --    1.67741   1.69997   1.77899   1.80505   1.86414
 Alpha virt. eigenvalues --    1.90309   1.94574   2.08643   2.10226   2.15482
 Alpha virt. eigenvalues --    2.17728   2.28263   2.36560   2.38533   2.40255
 Alpha virt. eigenvalues --    2.41359   2.46700   2.48607   2.48994   2.57382
 Alpha virt. eigenvalues --    2.60112   2.67929   2.68508   2.78263   2.84257
 Alpha virt. eigenvalues --    2.85512   2.88756   2.99789   3.08735   3.10662
 Alpha virt. eigenvalues --    3.23434   3.28502   3.30077   3.32148   3.37835
 Alpha virt. eigenvalues --    3.41744   3.60673   3.72073   3.77791   3.80000
 Alpha virt. eigenvalues --    3.80518   3.82582   3.82944   3.85756   3.91214
 Alpha virt. eigenvalues --    3.92146   3.96660   3.98571   4.03548   4.09661
 Alpha virt. eigenvalues --    4.15083   4.19306   4.20420   4.28527   4.31065
 Alpha virt. eigenvalues --    4.34625   4.38545   4.42756   4.47069   4.51189
 Alpha virt. eigenvalues --    4.67986   4.79538   4.82975   5.02452   5.20539
 Alpha virt. eigenvalues --    5.26296   5.29875   5.32959   5.40249   5.46420
 Alpha virt. eigenvalues --    5.88097   6.14348   6.31755   6.40849   6.45063
 Alpha virt. eigenvalues --    6.66617   6.71997   6.82826   6.92454   7.04361
 Alpha virt. eigenvalues --    7.10165   7.11987   7.17465   7.18093   7.25143
 Alpha virt. eigenvalues --    7.25978   7.26684   7.30022   7.47652   7.52374
 Alpha virt. eigenvalues --    7.59927   7.67759   7.69281   7.99157   8.36961
 Alpha virt. eigenvalues --    8.45488   8.60520  11.08805  14.44540  14.80572
 Alpha virt. eigenvalues --   14.95161  15.10017  15.41722  29.01562  29.02272
 Alpha virt. eigenvalues --   29.05900  29.20148  29.24478  49.23337 148.28737
 Alpha virt. eigenvalues --  148.51239 148.72204 752.99162
          Condensed to atoms (all electrons):
               1          2          3          4          5
     1  O    8.122141  -0.112194   0.228961   0.018574   0.002083
     2  O   -0.112194   8.118827   0.020128   0.232194   0.001298
     3  H    0.228961   0.020128   0.507039  -0.012702  -0.003364
     4  H    0.018574   0.232194  -0.012702   0.505678  -0.003741
     5  Kr   0.002083   0.001298  -0.003364  -0.003741   0.003841
 Mulliken charges:
               1
     1  O   -0.259565
     2  O   -0.260253
     3  H    0.259939
     4  H    0.259996
     5  Kr  -0.000117
 Sum of Mulliken charges =  -0.00000
 Mulliken charges with hydrogens summed into heavy atoms:
               1
     1  O    0.000374
     2  O   -0.000257
     5  Kr  -0.000117
         Mulliken charges condensed to fragments:
      1      0.000117
      2     -0.000117
 Electronic spatial extent (au):  <R**2>=            316.3979
 Charge=             -0.0000 electrons
 Dipole moment (field-independent basis, Debye):
    X=             -3.2444    Y=             -0.0051    Z=              0.2894  Tot=              3.2573
 Quadrupole moment (field-independent basis, Debye-Ang):
   XX=            -21.7542   YY=            -10.4453   ZZ=            -12.8221
   XY=             -0.0379   XZ=              0.2270   YZ=             -0.3248
 Traceless Quadrupole moment (field-independent basis, Debye-Ang):
   XX=             -6.7470   YY=              4.5619   ZZ=              2.1851
   XY=             -0.0379   XZ=              0.2270   YZ=             -0.3248
 Octapole moment (field-independent basis, Debye-Ang**2):
  XXX=            -93.1979  YYY=             -0.0292  ZZZ=              0.0080  XYY=            -24.5825
  XXY=             -0.0703  XXZ=              0.0095  XZZ=            -25.1889  YZZ=             -0.0574
  YYZ=              0.3674  XYZ=             -0.3427
 Hexadecapole moment (field-independent basis, Debye-Ang**3):
 XXXX=           -337.0260 YYYY=            -44.3943 ZZZZ=            -10.3932 XXXY=             -0.0685
 XXXZ=             -0.5169 YYYX=             -0.0661 YYYZ=             -0.4393 ZZZX=              0.1196
 ZZZY=             -0.1735 XXYY=            -63.7152 XXZZ=            -53.3211 YYZZ=            -10.9622
 XXYZ=             -0.3581 YYXZ=              0.4072 ZZXY=             -0.0693
 N-N= 3.666596508476D+01 E-N=-4.315221231613D+02  KE= 1.505465824885D+02
 Leave Link  601 at Mon Mar 30 12:38:54 2020, MaxMem=  2147483648 cpu:               0.4 elap:               0.0
 (Enter /usr/local/g16/g16/l122.exe)
 CPIOFr:  IOpCl= 0 IRwI=-1 IRwCP=  731 ICalc=  1 LCPTot=       59414 Len1MO=      159453 IndFrg=      378320
 Counterpoise: doing calculation for fragment   2 using the basis set of the full-system, NewBq=T
 Leave Link  122 at Mon Mar 30 12:38:54 2020, MaxMem=  2147483648 cpu:               0.0 elap:               0.0
 (Enter /usr/local/g16/g16/l301.exe)
 Basis read from rwf:  (5D, 7F)
 No pseudopotential information found on rwf file.
 There are   229 symmetry adapted cartesian basis functions of A   symmetry.
 There are   197 symmetry adapted basis functions of A   symmetry.
   197 basis functions,   415 primitive gaussians,   229 cartesian basis functions
    18 alpha electrons       18 beta electrons
       nuclear repulsion energy         0.0000000000 Hartrees.
 IExCor=    0 DFT=F Ex=HF Corr=None ExCW=0 ScaHFX=  1.000000
 ScaDFX=  1.000000  1.000000  1.000000  1.000000 ScalE2=  1.000000  1.000000
 IRadAn=      5 IRanWt=     -1 IRanGd=            0 ICorTp=0 IEmpDi=  4
 NAtoms=    5 NActive=    5 NUniq=    5 SFac= 1.00D+00 NAtFMM=   60 NAOKFM=F Big=F
 Integral buffers will be    131072 words long.
 Raffenetti 1 integral format.
 Two-electron integral symmetry is turned on.
 No density basis found on file   718.
 Leave Link  301 at Mon Mar 30 12:38:54 2020, MaxMem=  2147483648 cpu:               0.3 elap:               0.0
 (Enter /usr/local/g16/g16/l302.exe)
 NPDir=0 NMtPBC=     1 NCelOv=     1 NCel=       1 NClECP=     1 NCelD=      1
         NCelK=      1 NCelE2=     1 NClLst=     1 CellRange=     0.0.
 One-electron integrals computed using PRISM.
 One-electron integral symmetry used in STVInt
 NBasis=   197 RedAO= T EigKep=  1.46D-04  NBF=   197
 NBsUse=   197 1.00D-06 EigRej= -1.00D+00 NBFU=   197
 Leave Link  302 at Mon Mar 30 12:38:54 2020, MaxMem=  2147483648 cpu:               1.6 elap:               0.1
 (Enter /usr/local/g16/g16/l303.exe)
 DipDrv:  MaxL=1.
 Leave Link  303 at Mon Mar 30 12:38:54 2020, MaxMem=  2147483648 cpu:               0.4 elap:               0.0
 (Enter /usr/local/g16/g16/l401.exe)
 ExpMin= 2.53D-02 ExpMax= 1.17D+07 ExpMxC= 1.33D+04 IAcc=3 IRadAn=         5 AccDes= 0.00D+00
 Harris functional with IExCor=  205 and IRadAn=       5 diagonalized for initial guess.
 HarFok:  IExCor=  205 AccDes= 0.00D+00 IRadAn=         5 IDoV= 1 UseB2=F ITyADJ=14
 ICtDFT=  3500011 ScaDFX=  1.000000  1.000000  1.000000  1.000000
 FoFCou: FMM=F IPFlag=           0 FMFlag=      100000 FMFlg1=           0
         NFxFlg=           0 DoJE=T BraDBF=F KetDBF=T FulRan=T
         wScrn=  0.000000 ICntrl=       500 IOpCl=  0 I1Cent=   200000004 NGrid=           0
         NMat0=    1 NMatS0=      1 NMatT0=    0 NMatD0=    1 NMtDS0=    0 NMtDT0=    0
 Petite list used in FoFCou.
 Harris En= -2751.06022740257    
 JPrj=0 DoOrth=F DoCkMO=F.
 Leave Link  401 at Mon Mar 30 12:38:54 2020, MaxMem=  2147483648 cpu:               3.2 elap:               0.2
 (Enter /usr/local/g16/g16/l502.exe)
 Keep R1 ints in memory in canonical form, NReq=203140061.
 FoFCou: FMM=F IPFlag=           0 FMFlag=           0 FMFlg1=           0
         NFxFlg=           0 DoJE=F BraDBF=F KetDBF=F FulRan=T
         wScrn=  0.000000 ICntrl=       600 IOpCl=  0 I1Cent=           0 NGrid=           0
         NMat0=    1 NMatS0=  19503 NMatT0=    0 NMatD0=    1 NMtDS0=    0 NMtDT0=    0
 Symmetry not used in FoFCou.
 Two-electron integral symmetry not used.
 Closed shell SCF:
 Using DIIS extrapolation, IDIIS=  1040.
 NGot=  2147483648 LenX=  1957179903 LenY=  1957127021
 Requested convergence on RMS density matrix=1.00D-08 within 128 cycles.
 Requested convergence on MAX density matrix=1.00D-06.
 Requested convergence on             energy=1.00D-06.
 No special actions if energy rises.

 Cycle   1  Pass 1  IDiag  1:
 E= -2752.00342570236    
 DIIS: error= 6.35D-02 at cycle   1 NSaved=   1.
 NSaved= 1 IEnMin= 1 EnMin= -2752.00342570236     IErMin= 1 ErrMin= 6.35D-02
 ErrMax= 6.35D-02  0.00D+00 EMaxC= 1.00D-01 BMatC= 4.35D-01 BMatP= 4.35D-01
 IDIUse=3 WtCom= 3.65D-01 WtEn= 6.35D-01
 Coeff-Com:  0.100D+01
 Coeff-En:   0.100D+01
 Coeff:      0.100D+01
 Gap=     0.629 Goal=   None    Shift=    0.000
 GapD=    0.629 DampG=2.000 DampE=0.500 DampFc=1.0000 IDamp=-1.
 RMSDP=1.82D-03 MaxDP=1.33D-01              OVMax= 2.38D-02

 Cycle   2  Pass 1  IDiag  1:
 E= -2752.04695264339     Delta-E=       -0.043526941034 Rises=F Damp=F
 DIIS: error= 7.66D-03 at cycle   2 NSaved=   2.
 NSaved= 2 IEnMin= 2 EnMin= -2752.04695264339     IErMin= 2 ErrMin= 7.66D-03
 ErrMax= 7.66D-03  0.00D+00 EMaxC= 1.00D-01 BMatC= 2.00D-02 BMatP= 4.35D-01
 IDIUse=3 WtCom= 9.23D-01 WtEn= 7.66D-02
 Coeff-Com:  0.152D+00 0.848D+00
 Coeff-En:   0.000D+00 0.100D+01
 Coeff:      0.140D+00 0.860D+00
 Gap=     0.545 Goal=   None    Shift=    0.000
 RMSDP=6.05D-04 MaxDP=3.62D-02 DE=-4.35D-02 OVMax= 1.31D-02

 Cycle   3  Pass 1  IDiag  1:
 E= -2752.05205961841     Delta-E=       -0.005106975016 Rises=F Damp=F
 DIIS: error= 1.37D-03 at cycle   3 NSaved=   3.
 NSaved= 3 IEnMin= 3 EnMin= -2752.05205961841     IErMin= 3 ErrMin= 1.37D-03
 ErrMax= 1.37D-03  0.00D+00 EMaxC= 1.00D-01 BMatC= 7.37D-04 BMatP= 2.00D-02
 IDIUse=3 WtCom= 9.86D-01 WtEn= 1.37D-02
 Coeff-Com: -0.133D-02 0.156D+00 0.845D+00
 Coeff-En:   0.000D+00 0.000D+00 0.100D+01
 Coeff:     -0.131D-02 0.154D+00 0.847D+00
 Gap=     0.556 Goal=   None    Shift=    0.000
 RMSDP=7.87D-05 MaxDP=4.57D-03 DE=-5.11D-03 OVMax= 2.91D-03

 Cycle   4  Pass 1  IDiag  1:
 E= -2752.05227692491     Delta-E=       -0.000217306504 Rises=F Damp=F
 DIIS: error= 5.21D-05 at cycle   4 NSaved=   4.
 NSaved= 4 IEnMin= 4 EnMin= -2752.05227692491     IErMin= 4 ErrMin= 5.21D-05
 ErrMax= 5.21D-05  0.00D+00 EMaxC= 1.00D-01 BMatC= 7.45D-07 BMatP= 7.37D-04
 IDIUse=1 WtCom= 1.00D+00 WtEn= 0.00D+00
 Coeff-Com: -0.356D-03-0.173D-01-0.566D-01 0.107D+01
 Coeff:     -0.356D-03-0.173D-01-0.566D-01 0.107D+01
 Gap=     0.555 Goal=   None    Shift=    0.000
 RMSDP=6.24D-06 MaxDP=2.90D-04 DE=-2.17D-04 OVMax= 2.71D-04

 Cycle   5  Pass 1  IDiag  1:
 E= -2752.05227736532     Delta-E=       -0.000000440414 Rises=F Damp=F
 DIIS: error= 3.09D-06 at cycle   5 NSaved=   5.
 NSaved= 5 IEnMin= 5 EnMin= -2752.05227736532     IErMin= 5 ErrMin= 3.09D-06
 ErrMax= 3.09D-06  0.00D+00 EMaxC= 1.00D-01 BMatC= 6.18D-09 BMatP= 7.45D-07
 IDIUse=1 WtCom= 1.00D+00 WtEn= 0.00D+00
 Coeff-Com:  0.612D-04-0.165D-04-0.532D-02-0.850D-01 0.109D+01
 Coeff:      0.612D-04-0.165D-04-0.532D-02-0.850D-01 0.109D+01
 Gap=     0.556 Goal=   None    Shift=    0.000
 RMSDP=6.98D-07 MaxDP=2.96D-05 DE=-4.40D-07 OVMax= 2.81D-05

 Cycle   6  Pass 1  IDiag  1:
 E= -2752.05227737132     Delta-E=       -0.000000005993 Rises=F Damp=F
 DIIS: error= 3.82D-07 at cycle   6 NSaved=   6.
 NSaved= 6 IEnMin= 6 EnMin= -2752.05227737132     IErMin= 6 ErrMin= 3.82D-07
 ErrMax= 3.82D-07  0.00D+00 EMaxC= 1.00D-01 BMatC= 4.34D-11 BMatP= 6.18D-09
 IDIUse=1 WtCom= 1.00D+00 WtEn= 0.00D+00
 Coeff-Com: -0.286D-05 0.104D-03 0.868D-03-0.227D-02-0.906D-01 0.109D+01
 Coeff:     -0.286D-05 0.104D-03 0.868D-03-0.227D-02-0.906D-01 0.109D+01
 Gap=     0.556 Goal=   None    Shift=    0.000
 RMSDP=6.70D-08 MaxDP=3.77D-06 DE=-5.99D-09 OVMax= 3.36D-06

 Cycle   7  Pass 1  IDiag  1:
 E= -2752.05227737136     Delta-E=       -0.000000000045 Rises=F Damp=F
 DIIS: error= 3.05D-08 at cycle   7 NSaved=   7.
 NSaved= 7 IEnMin= 7 EnMin= -2752.05227737136     IErMin= 7 ErrMin= 3.05D-08
 ErrMax= 3.05D-08  0.00D+00 EMaxC= 1.00D-01 BMatC= 2.11D-13 BMatP= 4.34D-11
 IDIUse=1 WtCom= 1.00D+00 WtEn= 0.00D+00
 Coeff-Com: -0.196D-06 0.357D-05 0.336D-04 0.130D-03-0.441D-02 0.156D-01
 Coeff-Com:  0.989D+00
 Coeff:     -0.196D-06 0.357D-05 0.336D-04 0.130D-03-0.441D-02 0.156D-01
 Coeff:      0.989D+00
 Gap=     0.556 Goal=   None    Shift=    0.000
 RMSDP=5.46D-09 MaxDP=1.91D-07 DE=-4.50D-11 OVMax= 2.71D-07

 SCF Done:  E(RHF) =  -2752.05227737     A.U. after    7 cycles
            NFock=  7  Conv=0.55D-08     -V/T= 2.0000
 KE= 2.752036922077D+03 PE=-6.582550906191D+03 EE= 1.078461706743D+03
 Leave Link  502 at Mon Mar 30 12:38:57 2020, MaxMem=  2147483648 cpu:              24.4 elap:               2.6
 (Enter /usr/local/g16/g16/l801.exe)
 Windowed orbitals will be sorted by symmetry type.
 ExpMin= 2.53D-02 ExpMax= 1.17D+07 ExpMxC= 1.33D+04 IAcc=3 IRadAn=         5 AccDes= 0.00D+00
 HarFok:  IExCor=  205 AccDes= 0.00D+00 IRadAn=         5 IDoV=-2 UseB2=F ITyADJ=14
 ICtDFT= 12500011 ScaDFX=  1.000000  1.000000  1.000000  1.000000
 DSYEVD-2 returned Info=          89 IAlg= 4 N=    59 NDim=    59 NE2=    36395833 trying  DSYEV.
 Largest valence mixing into a core orbital is  9.81D-05
 Largest core mixing into a valence orbital is  3.83D-05
 Range of M.O.s used for correlation:    10   197
 NBasis=   197 NAE=    18 NBE=    18 NFC=     9 NFV=     0
 NROrb=    188 NOA=     9 NOB=     9 NVA=   179 NVB=   179

 **** Warning!!: The largest alpha MO coefficient is  0.17778314D+02

 Leave Link  801 at Mon Mar 30 12:38:57 2020, MaxMem=  2147483648 cpu:               0.5 elap:               0.0
 (Enter /usr/local/g16/g16/l804.exe)
 Closed-shell transformation, MDV=  2147483648 ITran=4 ISComp=1.
 Semi-Direct transformation.
 ModeAB=           2 MOrb=             9 LenV=    2146333106
 LASXX=     28892340 LTotXX=    28892340 LenRXX=    28892340
 LTotAB=    29348001 MaxLAS=    44558820 LenRXY=    44558820
 NonZer=    57784680 LenScr=    87449600 LnRSAI=           0
 LnScr1=           0 LExtra=           0 Total=    160900760
 MaxDsk=          -1 SrtSym=           F ITran=            4
 DoSDTr:  NPSUse= 16
 JobTyp=0 Pass  1:  I=   1 to   9.
 (rs|ai) integrals will be sorted in core.
 Complete sort for first half transformation.
 First half transformation complete.
 Complete sort for second half transformation.
 Second half transformation complete.
 SymMOI:  orbitals are not symmetric.
 Spin components of T(2) and E(2):
     alpha-alpha T2 =       0.9510171801D-02 E2=     -0.3590841225D-01
     alpha-beta  T2 =       0.4826727534D-01 E2=     -0.1729430354D+00
     beta-beta   T2 =       0.9510171801D-02 E2=     -0.3590841225D-01
 ANorm=    0.1033096132D+01
 E2 =    -0.2447598599D+00 EUMP2 =    -0.27522970372312D+04
 Leave Link  804 at Mon Mar 30 12:39:05 2020, MaxMem=  2147483648 cpu:             127.2 elap:               8.0
 (Enter /usr/local/g16/g16/l913.exe)
 CIDS:  MDV=  2147483648.
 Frozen-core window:  NFC=   9 NFV=   0.
 IFCWin=0 IBDFC=1 NFBD=     0     0 NFCmp=     0     0 NFFFC=     0     0
 Using DD3R+UMP44R for 1st iteration.
 Using DD4RQ for 2nd and later iterations.
 Keep R2 and R3 ints in memory in canonical form, NReq=393339328.
 FoFCou: FMM=F IPFlag=           0 FMFlag=           0 FMFlg1=           0
         NFxFlg=           0 DoJE=F BraDBF=F KetDBF=F FulRan=T
         wScrn=  0.000000 ICntrl=       600 IOpCl=  0 I1Cent=           0 NGrid=           0
         NMat0=    1 NMatS0=  19503 NMatT0=    0 NMatD0=    1 NMtDS0=    0 NMtDT0=    0
 Symmetry not used in FoFCou.
 Two-electron integral symmetry not used.
 CIDS: In Core Option IDoMem=           1.
 MP4(SDTQ)
 =========
 Produce multiple copies of IABC intergrals
 DD1Dir will call FoFMem   1 times, MxPair=        90
 NAB=    45 NAA=     0 NBB=     0.
 MP4(D)= -0.37365806D-02
 MP4(S)= -0.10946819D-02
 MP4(R+Q)=  0.42660258D-02
 T4(AAA)= -0.32669883D-03
 T4(AAB)= -0.35800700D-02
 Time for triples=      466.07 seconds.
 MP4(T)=   -0.78135376D-02
 E3=       -0.98435789D-02        EUMP3=      -0.27523068808D+04
 E4(DQ)=    0.52944514D-03        UMP4(DQ)=   -0.27523063514D+04
 E4(SDQ)=  -0.56523678D-03        UMP4(SDQ)=  -0.27523074460D+04
 E4(SDTQ)= -0.83787744D-02        UMP4(SDTQ)= -0.27523152596D+04
 VARIATIONAL ENERGIES WITH THE FIRST-ORDER WAVEFUNCTION:
 E(VAR1)=  -0.27522908292D+04     E(CISD,4)=  -0.27522952428D+04
 Largest amplitude= 1.52D-02
 Discarding MO integrals.
 Leave Link  913 at Mon Mar 30 12:39:38 2020, MaxMem=  2147483648 cpu:             531.1 elap:              33.2
 (Enter /usr/local/g16/g16/l601.exe)
 Copying SCF densities to generalized density rwf, IOpCl= 0 IROHF=0.

 **********************************************************************

            Population analysis using the SCF density.

 **********************************************************************

 Orbital symmetries:
       Occupied  (A) (A) (A) (A) (A) (A) (A) (A) (A) (A) (A) (A)
                 (A) (A) (A) (A) (A) (A)
       Virtual   (A) (A) (A) (A) (A) (A) (A) (A) (A) (A) (A) (A)
                 (A) (A) (A) (A) (A) (A) (A) (A) (A) (A) (A) (A)
                 (A) (A) (A) (A) (A) (A) (A) (A) (A) (A) (A) (A)
                 (A) (A) (A) (A) (A) (A) (A) (A) (A) (A) (A) (A)
                 (A) (A) (A) (A) (A) (A) (A) (A) (A) (A) (A) (A)
                 (A) (A) (A) (A) (A) (A) (A) (A) (A) (A) (A) (A)
                 (A) (A) (A) (A) (A) (A) (A) (A) (A) (A) (A) (A)
                 (A) (A) (A) (A) (A) (A) (A) (A) (A) (A) (A) (A)
                 (A) (A) (A) (A) (A) (A) (A) (A) (A) (A) (A) (A)
                 (A) (A) (A) (A) (A) (A) (A) (A) (A) (A) (A) (A)
                 (A) (A) (A) (A) (A) (A) (A) (A) (A) (A) (A) (A)
                 (A) (A) (A) (A) (A) (A) (A) (A) (A) (A) (A) (A)
                 (A) (A) (A) (A) (A) (A) (A) (A) (A) (A) (A) (A)
                 (A) (A) (A) (A) (A) (A) (A) (A) (A) (A) (A) (A)
                 (A) (A) (A) (A) (A) (A) (A) (A) (A) (A) (A)
 The electronic state is 1-A.
 Alpha  occ. eigenvalues -- -520.16590 -69.90322 -63.00980 -63.00980 -63.00979
 Alpha  occ. eigenvalues --  -10.84956  -8.33156  -8.33155  -8.33154  -3.82533
 Alpha  occ. eigenvalues --   -3.82533  -3.82533  -3.82531  -3.82531  -1.15310
 Alpha  occ. eigenvalues --   -0.52430  -0.52429  -0.52428
 Alpha virt. eigenvalues --    0.03124   0.04925   0.08677   0.09911   0.12188
 Alpha virt. eigenvalues --    0.13400   0.13953   0.14428   0.15758   0.17382
 Alpha virt. eigenvalues --    0.17805   0.18247   0.21803   0.27791   0.28679
 Alpha virt. eigenvalues --    0.29102   0.30249   0.33290   0.34287   0.39237
 Alpha virt. eigenvalues --    0.40170   0.40554   0.41030   0.41865   0.42737
 Alpha virt. eigenvalues --    0.43677   0.47670   0.56139   0.58067   0.62353
 Alpha virt. eigenvalues --    0.63388   0.64999   0.70616   0.71951   0.72697
 Alpha virt. eigenvalues --    0.75284   0.77327   0.79894   0.80054   0.80803
 Alpha virt. eigenvalues --    0.82358   0.86018   0.88280   0.89449   0.90613
 Alpha virt. eigenvalues --    0.91017   0.91986   0.93199   0.98645   1.01529
 Alpha virt. eigenvalues --    1.01754   1.02740   1.04057   1.04440   1.08415
 Alpha virt. eigenvalues --    1.09405   1.11266   1.14118   1.20106   1.20938
 Alpha virt. eigenvalues --    1.22883   1.26707   1.35168   1.35935   1.43018
 Alpha virt. eigenvalues --    1.45764   1.49386   1.51164   1.52095   1.55801
 Alpha virt. eigenvalues --    1.62878   1.66351   1.69194   1.73876   1.76926
 Alpha virt. eigenvalues --    1.80599   1.88382   1.90833   1.96771   2.23548
 Alpha virt. eigenvalues --    2.25009   2.35637   2.37193   2.37944   2.39800
 Alpha virt. eigenvalues --    2.46428   2.47832   2.49223   2.50744   2.52300
 Alpha virt. eigenvalues --    2.55885   2.56658   2.57207   2.60966   2.62482
 Alpha virt. eigenvalues --    2.63632   2.67156   2.68024   2.71364   2.71766
 Alpha virt. eigenvalues --    2.72364   2.74769   2.79382   2.82023   2.82439
 Alpha virt. eigenvalues --    2.84908   2.88488   2.95260   2.96309   3.01189
 Alpha virt. eigenvalues --    3.02998   3.06098   3.10526   3.16675   3.20045
 Alpha virt. eigenvalues --    3.28124   3.28813   3.29280   3.42555   3.56095
 Alpha virt. eigenvalues --    3.63688   3.66850   3.88459   3.88819   4.02764
 Alpha virt. eigenvalues --    4.45533   4.52752   4.53275   4.62478   4.73735
 Alpha virt. eigenvalues --    4.79900   4.84736   4.91235   4.97840   5.06315
 Alpha virt. eigenvalues --    5.24416   5.33007   5.53053   5.68218   5.70892
 Alpha virt. eigenvalues --    5.94455   6.04444   6.28710   6.71788   6.96208
 Alpha virt. eigenvalues --    7.27154   7.38208   7.65466   7.67191   7.80184
 Alpha virt. eigenvalues --    7.88097   8.03541   8.12555   8.14661   8.28816
 Alpha virt. eigenvalues --    8.30968   8.38222   8.71843   9.02600   9.50647
 Alpha virt. eigenvalues --    9.74517   9.78058   9.88850   9.91246   9.94923
 Alpha virt. eigenvalues --   10.21249  10.22726  10.73558  10.87595  11.45066
 Alpha virt. eigenvalues --   11.63506  11.68155  11.93361  12.07103  13.30074
 Alpha virt. eigenvalues --   13.60180  14.56141  62.38080  64.82660
          Condensed to atoms (all electrons):
               1          2          3          4          5
     1  O    0.000797  -0.000140  -0.000711   0.000186  -0.002767
     2  O   -0.000140   0.000836   0.000174  -0.000737  -0.002373
     3  H   -0.000711   0.000174   0.000888  -0.000198  -0.006978
     4  H    0.000186  -0.000737  -0.000198   0.000918  -0.007724
     5  Kr  -0.002767  -0.002373  -0.006978  -0.007724  36.039096
 Mulliken charges:
               1
     1  O    0.002635
     2  O    0.002241
     3  H    0.006824
     4  H    0.007555
     5  Kr  -0.019255
 Sum of Mulliken charges =   0.00000
 Mulliken charges with hydrogens summed into heavy atoms:
               1
     1  O    0.009460
     2  O    0.009795
     5  Kr  -0.019255
         Mulliken charges condensed to fragments:
      1      0.019255
      2     -0.019255
 Electronic spatial extent (au):  <R**2>=            159.5729
 Charge=              0.0000 electrons
 Dipole moment (field-independent basis, Debye):
    X=              0.0014    Y=              0.0000    Z=              0.0000  Tot=              0.0014
 Quadrupole moment (field-independent basis, Debye-Ang):
   XX=            -17.7283   YY=            -17.7305   ZZ=            -17.7363
   XY=              0.0001   XZ=              0.0006   YZ=             -0.0004
 Traceless Quadrupole moment (field-independent basis, Debye-Ang):
   XX=              0.0034   YY=              0.0012   ZZ=             -0.0046
   XY=              0.0001   XZ=              0.0006   YZ=             -0.0004
 Octapole moment (field-independent basis, Debye-Ang**2):
  XXX=             51.3882  YYY=              0.0071  ZZZ=              0.0667  XYY=             17.1355
  XXY=              0.0021  XXZ=              0.0211  XZZ=             17.1409  YZZ=              0.0024
  YYZ=              0.0221  XYZ=              0.0003
 Hexadecapole moment (field-independent basis, Debye-Ang**3):
 XXXX=           -117.8352 YYYY=            -18.5373 ZZZZ=            -18.5586 XXXY=             -0.0063
 XXXZ=             -0.0622 YYYX=             -0.0065 YYYZ=             -0.0002 ZZZX=             -0.0622
 ZZZY=             -0.0013 XXYY=            -22.7339 XXZZ=            -22.7422 YYZZ=             -6.1810
 XXYZ=             -0.0004 YYXZ=             -0.0209 ZZXY=             -0.0021
 N-N= 0.000000000000D+00 E-N=-6.582550907218D+03  KE= 2.752036922077D+03
 Leave Link  601 at Mon Mar 30 12:39:38 2020, MaxMem=  2147483648 cpu:               0.4 elap:               0.0
 (Enter /usr/local/g16/g16/l122.exe)
 CPIOFr:  IOpCl= 0 IRwI=-1 IRwCP=  731 ICalc=  2 LCPTot=       59414 Len1MO=      159453 IndFrg=      537773
 Counterpoise: doing calculation for fragment   1 using the basis set of the fragment.
 Leave Link  122 at Mon Mar 30 12:39:38 2020, MaxMem=  2147483648 cpu:               0.0 elap:               0.0
 (Enter /usr/local/g16/g16/l301.exe)
 Basis read from rwf:  (5D, 7F)
 No pseudopotential information found on rwf file.
 There are   160 symmetry adapted cartesian basis functions of A   symmetry.
 There are   138 symmetry adapted basis functions of A   symmetry.
   138 basis functions,   198 primitive gaussians,   160 cartesian basis functions
     9 alpha electrons        9 beta electrons
       nuclear repulsion energy        36.6659650848 Hartrees.
 IExCor=    0 DFT=F Ex=HF Corr=None ExCW=0 ScaHFX=  1.000000
 ScaDFX=  1.000000  1.000000  1.000000  1.000000 ScalE2=  1.000000  1.000000
 IRadAn=      5 IRanWt=     -1 IRanGd=            0 ICorTp=0 IEmpDi=  4
 NAtoms=    5 NActive=    4 NUniq=    4 SFac= 1.00D+00 NAtFMM=   60 NAOKFM=F Big=F
 Integral buffers will be    131072 words long.
 Raffenetti 1 integral format.
 Two-electron integral symmetry is turned on.
 No density basis found on file   718.
 Leave Link  301 at Mon Mar 30 12:39:38 2020, MaxMem=  2147483648 cpu:               0.3 elap:               0.0
 (Enter /usr/local/g16/g16/l302.exe)
 NPDir=0 NMtPBC=     1 NCelOv=     1 NCel=       1 NClECP=     1 NCelD=      1
         NCelK=      1 NCelE2=     1 NClLst=     1 CellRange=     0.0.
 One-electron integrals computed using PRISM.
 One-electron integral symmetry used in STVInt
 NBasis=   138 RedAO= T EigKep=  1.91D-04  NBF=   138
 NBsUse=   138 1.00D-06 EigRej= -1.00D+00 NBFU=   138
 Leave Link  302 at Mon Mar 30 12:39:38 2020, MaxMem=  2147483648 cpu:               1.3 elap:               0.1
 (Enter /usr/local/g16/g16/l303.exe)
 DipDrv:  MaxL=1.
 Leave Link  303 at Mon Mar 30 12:39:38 2020, MaxMem=  2147483648 cpu:               0.3 elap:               0.0
 (Enter /usr/local/g16/g16/l401.exe)
 ExpMin= 2.53D-02 ExpMax= 1.53D+04 ExpMxC= 5.22D+02 IAcc=3 IRadAn=         5 AccDes= 0.00D+00
 Harris functional with IExCor=  205 and IRadAn=       5 diagonalized for initial guess.
 HarFok:  IExCor=  205 AccDes= 0.00D+00 IRadAn=         5 IDoV= 1 UseB2=F ITyADJ=14
 ICtDFT=  3500011 ScaDFX=  1.000000  1.000000  1.000000  1.000000
 FoFCou: FMM=F IPFlag=           0 FMFlag=      100000 FMFlg1=           0
         NFxFlg=           0 DoJE=T BraDBF=F KetDBF=T FulRan=T
         wScrn=  0.000000 ICntrl=       500 IOpCl=  0 I1Cent=   200000004 NGrid=           0
         NMat0=    1 NMatS0=      1 NMatT0=    0 NMatD0=    1 NMtDS0=    0 NMtDT0=    0
 Petite list used in FoFCou.
 Harris En= -150.932289073791    
 JPrj=0 DoOrth=F DoCkMO=F.
 Leave Link  401 at Mon Mar 30 12:39:39 2020, MaxMem=  2147483648 cpu:               2.3 elap:               0.1
 (Enter /usr/local/g16/g16/l502.exe)
 Keep R1 ints in memory in canonical form, NReq=53860840.
 FoFCou: FMM=F IPFlag=           0 FMFlag=           0 FMFlg1=           0
         NFxFlg=           0 DoJE=F BraDBF=F KetDBF=F FulRan=T
         wScrn=  0.000000 ICntrl=       600 IOpCl=  0 I1Cent=           0 NGrid=           0
         NMat0=    1 NMatS0=   9591 NMatT0=    0 NMatD0=    1 NMtDS0=    0 NMtDT0=    0
 Symmetry not used in FoFCou.
 Two-electron integral symmetry not used.
 Closed shell SCF:
 Using DIIS extrapolation, IDIIS=  1040.
 NGot=  2147483648 LenX=  2101430001 LenY=  2101403960
 Requested convergence on RMS density matrix=1.00D-08 within 128 cycles.
 Requested convergence on MAX density matrix=1.00D-06.
 Requested convergence on             energy=1.00D-06.
 No special actions if energy rises.

 Cycle   1  Pass 1  IDiag  1:
 E= -150.761573014895    
 DIIS: error= 3.68D-02 at cycle   1 NSaved=   1.
 NSaved= 1 IEnMin= 1 EnMin= -150.761573014895     IErMin= 1 ErrMin= 3.68D-02
 ErrMax= 3.68D-02  0.00D+00 EMaxC= 1.00D-01 BMatC= 2.31D-01 BMatP= 2.31D-01
 IDIUse=3 WtCom= 6.32D-01 WtEn= 3.68D-01
 Coeff-Com:  0.100D+01
 Coeff-En:   0.100D+01
 Coeff:      0.100D+01
 Gap=     0.686 Goal=   None    Shift=    0.000
 GapD=    0.686 DampG=2.000 DampE=0.500 DampFc=1.0000 IDamp=-1.
 RMSDP=1.28D-03 MaxDP=2.90D-02              OVMax= 6.93D-02

 Cycle   2  Pass 1  IDiag  1:
 E= -150.816960315078     Delta-E=       -0.055387300184 Rises=F Damp=F
 DIIS: error= 1.30D-02 at cycle   2 NSaved=   2.
 NSaved= 2 IEnMin= 2 EnMin= -150.816960315078     IErMin= 2 ErrMin= 1.30D-02
 ErrMax= 1.30D-02  0.00D+00 EMaxC= 1.00D-01 BMatC= 1.80D-02 BMatP= 2.31D-01
 IDIUse=3 WtCom= 8.70D-01 WtEn= 1.30D-01
 Coeff-Com:  0.118D+00 0.882D+00
 Coeff-En:   0.000D+00 0.100D+01
 Coeff:      0.103D+00 0.897D+00
 Gap=     0.517 Goal=   None    Shift=    0.000
 RMSDP=7.95D-04 MaxDP=2.55D-02 DE=-5.54D-02 OVMax= 3.02D-02

 Cycle   3  Pass 1  IDiag  1:
 E= -150.826184678909     Delta-E=       -0.009224363830 Rises=F Damp=F
 DIIS: error= 4.61D-03 at cycle   3 NSaved=   3.
 NSaved= 3 IEnMin= 3 EnMin= -150.826184678909     IErMin= 3 ErrMin= 4.61D-03
 ErrMax= 4.61D-03  0.00D+00 EMaxC= 1.00D-01 BMatC= 2.65D-03 BMatP= 1.80D-02
 IDIUse=3 WtCom= 9.54D-01 WtEn= 4.61D-02
 Coeff-Com: -0.212D-01 0.256D+00 0.765D+00
 Coeff-En:   0.000D+00 0.000D+00 0.100D+01
 Coeff:     -0.202D-01 0.244D+00 0.776D+00
 Gap=     0.486 Goal=   None    Shift=    0.000
 RMSDP=1.86D-04 MaxDP=4.78D-03 DE=-9.22D-03 OVMax= 1.02D-02

 Cycle   4  Pass 1  IDiag  1:
 E= -150.827846595748     Delta-E=       -0.001661916840 Rises=F Damp=F
 DIIS: error= 4.42D-04 at cycle   4 NSaved=   4.
 NSaved= 4 IEnMin= 4 EnMin= -150.827846595748     IErMin= 4 ErrMin= 4.42D-04
 ErrMax= 4.42D-04  0.00D+00 EMaxC= 1.00D-01 BMatC= 1.75D-05 BMatP= 2.65D-03
 IDIUse=3 WtCom= 9.96D-01 WtEn= 4.42D-03
 Coeff-Com: -0.190D-02-0.121D-01 0.122D-01 0.100D+01
 Coeff-En:   0.000D+00 0.000D+00 0.000D+00 0.100D+01
 Coeff:     -0.189D-02-0.120D-01 0.122D-01 0.100D+01
 Gap=     0.488 Goal=   None    Shift=    0.000
 RMSDP=2.46D-05 MaxDP=4.49D-04 DE=-1.66D-03 OVMax= 1.35D-03

 Cycle   5  Pass 1  IDiag  1:
 E= -150.827870542386     Delta-E=       -0.000023946638 Rises=F Damp=F
 DIIS: error= 1.36D-04 at cycle   5 NSaved=   5.
 NSaved= 5 IEnMin= 5 EnMin= -150.827870542386     IErMin= 5 ErrMin= 1.36D-04
 ErrMax= 1.36D-04  0.00D+00 EMaxC= 1.00D-01 BMatC= 1.57D-06 BMatP= 1.75D-05
 IDIUse=3 WtCom= 9.99D-01 WtEn= 1.36D-03
 Coeff-Com:  0.175D-02-0.170D-01-0.592D-01-0.154D+00 0.123D+01
 Coeff-En:   0.000D+00 0.000D+00 0.000D+00 0.000D+00 0.100D+01
 Coeff:      0.175D-02-0.169D-01-0.592D-01-0.154D+00 0.123D+01
 Gap=     0.489 Goal=   None    Shift=    0.000
[...]
 Requested convergence on MAX density matrix=1.00D-06.
 Requested convergence on             energy=1.00D-06.
 No special actions if energy rises.

 Cycle   1  Pass 1  IDiag  1:
 E= -150.827874381995    
 DIIS: error= 9.02D-11 at cycle   1 NSaved=   1.
 NSaved= 1 IEnMin= 1 EnMin= -150.827874381995     IErMin= 1 ErrMin= 9.02D-11
 ErrMax= 9.02D-11  0.00D+00 EMaxC= 1.00D-01 BMatC= 8.69D-19 BMatP= 8.69D-19
 IDIUse=1 WtCom= 1.00D+00 WtEn= 0.00D+00
 Coeff-Com:  0.100D+01
 Coeff:      0.100D+01
 Gap=     0.855 Goal=   None    Shift=    0.000
 RMSDP=5.23D-12 MaxDP=1.54D-10              OVMax= 3.82D-10

 SCF Done:  E(RHF) =  -150.827874382     A.U. after    1 cycles
            NFock=  1  Conv=0.52D-11     -V/T= 2.0019
 KE= 1.505469906872D+02 PE=-4.315209933754D+02 EE= 9.348016322139D+01
 Leave Link  502 at Mon Mar 30 13:55:14 2020, MaxMem=  2147483648 cpu:               6.9 elap:               0.5
 (Enter /usr/local/g16/g16/l801.exe)
 Windowed orbitals will be sorted by symmetry type.
 ExpMin= 2.53D-02 ExpMax= 1.53D+04 ExpMxC= 5.22D+02 IAcc=3 IRadAn=         5 AccDes= 0.00D+00
 HarFok:  IExCor=  205 AccDes= 0.00D+00 IRadAn=         5 IDoV=-2 UseB2=F ITyADJ=14
 ICtDFT= 12500011 ScaDFX=  1.000000  1.000000  1.000000  1.000000
 Largest valence mixing into a core orbital is  1.19D-04
 Largest core mixing into a valence orbital is  2.08D-05
 Range of M.O.s used for correlation:     3   138
 NBasis=   138 NAE=     9 NBE=     9 NFC=     2 NFV=     0
 NROrb=    136 NOA=     7 NOB=     7 NVA=   129 NVB=   129

 **** Warning!!: The largest alpha MO coefficient is  0.17288516D+02

 Leave Link  801 at Mon Mar 30 13:55:14 2020, MaxMem=  2147483648 cpu:               0.5 elap:               0.0
 (Enter /usr/local/g16/g16/l804.exe)
 Closed-shell transformation, MDV=  2147483648 ITran=4 ISComp=1.
 Semi-Direct transformation.
 ModeAB=           2 MOrb=             7 LenV=    2146849405
 LASXX=      8463147 LTotXX=     8463147 LenRXX=     8463147
 LTotAB=     8647912 MaxLAS=    12261760 LenRXY=    12261760
 NonZer=    16926294 LenScr=    26146816 LnRSAI=           0
 LnScr1=           0 LExtra=           0 Total=     46871723
 MaxDsk=          -1 SrtSym=           F ITran=            4
 DoSDTr:  NPSUse= 16
 JobTyp=0 Pass  1:  I=   1 to   7.
 (rs|ai) integrals will be sorted in core.
 Complete sort for first half transformation.
 First half transformation complete.
 Complete sort for second half transformation.
 Second half transformation complete.
 SymMOI:  orbitals are not symmetric.
 Spin components of T(2) and E(2):
     alpha-alpha T2 =       0.1606609493D-01 E2=     -0.6286262924D-01
     alpha-beta  T2 =       0.9337192685D-01 E2=     -0.3818488133D+00
     beta-beta   T2 =       0.1606609493D-01 E2=     -0.6286262924D-01
 ANorm=    0.1060897788D+01
 E2 =    -0.5075740718D+00 EUMP2 =    -0.15133544845381D+03
 Leave Link  804 at Mon Mar 30 13:55:16 2020, MaxMem=  2147483648 cpu:              28.0 elap:               1.8
 (Enter /usr/local/g16/g16/l913.exe)
 CIDS:  MDV=  2147483648.
 Frozen-core window:  NFC=   2 NFV=   0.
 IFCWin=0 IBDFC=1 NFBD=     0     0 NFCmp=     0     0 NFFFC=     0     0
 Using DD3R+UMP44R for 1st iteration.
 Using DD4RQ for 2nd and later iterations.
 Keep R2 and R3 ints in memory in canonical form, NReq=99863734.
 FoFCou: FMM=F IPFlag=           0 FMFlag=           0 FMFlg1=           0
         NFxFlg=           0 DoJE=F BraDBF=F KetDBF=F FulRan=T
         wScrn=  0.000000 ICntrl=       600 IOpCl=  0 I1Cent=           0 NGrid=           0
         NMat0=    1 NMatS0=   9591 NMatT0=    0 NMatD0=    1 NMtDS0=    0 NMtDT0=    0
 Symmetry not used in FoFCou.
 Two-electron integral symmetry not used.
 CIDS: In Core Option IDoMem=           1.
 MP4(SDTQ)
 =========
 Produce multiple copies of IABC intergrals
 DD1Dir will call FoFMem   1 times, MxPair=        56
 NAB=    28 NAA=     0 NBB=     0.
 MP4(D)= -0.11208227D-01
 MP4(S)= -0.52109260D-02
 MP4(R+Q)=  0.10821959D-01
 T4(AAA)= -0.66468625D-03
 T4(AAB)= -0.10316348D-01
 Time for triples=       94.01 seconds.
 MP4(T)=   -0.21962068D-01
 E3=       -0.20588875D-02        EUMP3=      -0.15133750734D+03
 E4(DQ)=   -0.38626747D-03        UMP4(DQ)=   -0.15133789361D+03
 E4(SDQ)=  -0.55971934D-02        UMP4(SDQ)=  -0.15134310453D+03
 E4(SDTQ)= -0.27559261D-01        UMP4(SDTQ)= -0.15136506660D+03
 VARIATIONAL ENERGIES WITH THE FIRST-ORDER WAVEFUNCTION:
 E(VAR1)=  -0.15128067855D+03     E(CISD,4)=  -0.15129022386D+03
 Largest amplitude= 4.59D-02
 Discarding MO integrals.
 Leave Link  913 at Mon Mar 30 13:55:23 2020, MaxMem=  2147483648 cpu:             118.8 elap:               7.4
 (Enter /usr/local/g16/g16/l122.exe)
 CPIOFr:  IOpCl= 0 IRwI=-1 IRwCP=  731 ICalc=  3 LCPTot=       59414 Len1MO=      159453 IndFrg=      697226
 Restoring MOs from calculation   5 to rwf and chk.
 CPIOFr:  IOpCl= 0 IRwI=-2 IRwCP=20731 ICalc=  4 LCPTot=       59414 Len1MO=      159453 IndFrg=      856679
 CPIOFr:  IOpCl= 0 IRwI= 4 IRwCP=20731 ICalc=  4 LCPTot=       59414 Len1MO=      159453 IndFrg=      856679
 Counterpoise: doing calculation for fragment   2 using the basis set of the fragment.
 Leave Link  122 at Mon Mar 30 13:55:23 2020, MaxMem=  2147483648 cpu:               0.0 elap:               0.0
 (Enter /usr/local/g16/g16/l301.exe)
 Basis read from rwf:  (5D, 7F)
 No pseudopotential information found on rwf file.
 There are    69 symmetry adapted cartesian basis functions of A   symmetry.
 There are    59 symmetry adapted basis functions of A   symmetry.
    59 basis functions,   217 primitive gaussians,    69 cartesian basis functions
    18 alpha electrons       18 beta electrons
       nuclear repulsion energy         0.0000000000 Hartrees.
 IExCor=    0 DFT=F Ex=HF Corr=None ExCW=0 ScaHFX=  1.000000
 ScaDFX=  1.000000  1.000000  1.000000  1.000000 ScalE2=  1.000000  1.000000
 IRadAn=      5 IRanWt=     -1 IRanGd=            0 ICorTp=0 IEmpDi=  4
 NAtoms=    5 NActive=    1 NUniq=    1 SFac= 1.00D+00 NAtFMM=   60 NAOKFM=F Big=F
 Integral buffers will be    131072 words long.
 Raffenetti 1 integral format.
 Two-electron integral symmetry is turned on.
 No density basis found on file   718.
 Leave Link  301 at Mon Mar 30 13:55:23 2020, MaxMem=  2147483648 cpu:               0.4 elap:               0.0
 (Enter /usr/local/g16/g16/l302.exe)
 NPDir=0 NMtPBC=     1 NCelOv=     1 NCel=       1 NClECP=     1 NCelD=      1
         NCelK=      1 NCelE2=     1 NClLst=     1 CellRange=     0.0.
 One-electron integrals computed using PRISM.
 One-electron integral symmetry used in STVInt
 NBasis=    59 RedAO= T EigKep=  1.06D-02  NBF=    59
 NBsUse=    59 1.00D-06 EigRej= -1.00D+00 NBFU=    59
 Leave Link  302 at Mon Mar 30 13:55:23 2020, MaxMem=  2147483648 cpu:               1.2 elap:               0.1
 (Enter /usr/local/g16/g16/l303.exe)
 DipDrv:  MaxL=1.
 Leave Link  303 at Mon Mar 30 13:55:23 2020, MaxMem=  2147483648 cpu:               0.3 elap:               0.0
 (Enter /usr/local/g16/g16/l401.exe)
 Initial guess from the checkpoint file:  "/mnt/driveB/scratch/matheus/Gau-92466.chk"
 B after Tr=    -0.062991    0.000003    0.000029
         Rot=    1.000000    0.000000    0.000000    0.000000 Ang=   0.00 deg.
 Guess basis will be translated and rotated to current coordinates.
 JPrj=2 DoOrth=T DoCkMO=T.
 Generating alternative initial guess.
 ExpMin= 4.00D-02 ExpMax= 1.17D+07 ExpMxC= 1.33D+04 IAcc=3 IRadAn=         5 AccDes= 0.00D+00
 Harris functional with IExCor=  205 and IRadAn=       5 diagonalized for initial guess.
 HarFok:  IExCor=  205 AccDes= 0.00D+00 IRadAn=         5 IDoV= 1 UseB2=F ITyADJ=14
 ICtDFT=  3500011 ScaDFX=  1.000000  1.000000  1.000000  1.000000
 FoFCou: FMM=F IPFlag=           0 FMFlag=      100000 FMFlg1=           0
         NFxFlg=           0 DoJE=T BraDBF=F KetDBF=T FulRan=T
         wScrn=  0.000000 ICntrl=       500 IOpCl=  0 I1Cent=   200000004 NGrid=           0
         NMat0=    1 NMatS0=      1 NMatT0=    0 NMatD0=    1 NMtDS0=    0 NMtDT0=    0
 Petite list used in FoFCou.
 Harris En= -2751.05937170533    
 Leave Link  401 at Mon Mar 30 13:55:23 2020, MaxMem=  2147483648 cpu:               2.2 elap:               0.1
 (Enter /usr/local/g16/g16/l502.exe)
 Keep R1 ints in memory in canonical form, NReq=14291944.
 FoFCou: FMM=F IPFlag=           0 FMFlag=           0 FMFlg1=           0
         NFxFlg=           0 DoJE=F BraDBF=F KetDBF=F FulRan=T
         wScrn=  0.000000 ICntrl=       600 IOpCl=  0 I1Cent=           0 NGrid=           0
         NMat0=    1 NMatS0=   1770 NMatT0=    0 NMatD0=    1 NMtDS0=    0 NMtDT0=    0
 Symmetry not used in FoFCou.
 Two-electron integral symmetry not used.
 Closed shell SCF:
 Using DIIS extrapolation, IDIIS=  1040.
 NGot=  2147483648 LenX=  2145904888 LenY=  2145899686
 Requested convergence on RMS density matrix=1.00D-08 within 128 cycles.
 Requested convergence on MAX density matrix=1.00D-06.
 Requested convergence on             energy=1.00D-06.
 No special actions if energy rises.

 Cycle   1  Pass 1  IDiag  1:
 E= -2752.05222307625    
 DIIS: error= 2.64D-13 at cycle   1 NSaved=   1.
 NSaved= 1 IEnMin= 1 EnMin= -2752.05222307625     IErMin= 1 ErrMin= 2.64D-13
 ErrMax= 2.64D-13  0.00D+00 EMaxC= 1.00D-01 BMatC= 1.12D-24 BMatP= 1.12D-24
 IDIUse=1 WtCom= 1.00D+00 WtEn= 0.00D+00
 Coeff-Com:  0.100D+01
 Coeff:      0.100D+01
 Gap=     0.719 Goal=   None    Shift=    0.000
 RMSDP=9.48D-15 MaxDP=1.17D-13              OVMax= 2.27D-13

 SCF Done:  E(RHF) =  -2752.05222308     A.U. after    1 cycles
            NFock=  1  Conv=0.95D-14     -V/T= 2.0000
 KE= 2.752048106937D+03 PE=-6.582565276257D+03 EE= 1.078464946243D+03
 Leave Link  502 at Mon Mar 30 13:55:24 2020, MaxMem=  2147483648 cpu:               9.2 elap:               0.6
 (Enter /usr/local/g16/g16/l801.exe)
 Windowed orbitals will be sorted by symmetry type.
 ExpMin= 4.00D-02 ExpMax= 1.17D+07 ExpMxC= 1.33D+04 IAcc=3 IRadAn=         5 AccDes= 0.00D+00
 HarFok:  IExCor=  205 AccDes= 0.00D+00 IRadAn=         5 IDoV=-2 UseB2=F ITyADJ=14
 ICtDFT= 12500011 ScaDFX=  1.000000  1.000000  1.000000  1.000000
 DSYEVD-2 returned Info=          89 IAlg= 4 N=    59 NDim=    59 NE2=    36397550 trying  DSYEV.
 Largest valence mixing into a core orbital is  9.79D-05
 Largest core mixing into a valence orbital is  3.83D-05
 Range of M.O.s used for correlation:    10    59
 NBasis=    59 NAE=    18 NBE=    18 NFC=     9 NFV=     0
 NROrb=     50 NOA=     9 NOB=     9 NVA=    41 NVB=    41
 Leave Link  801 at Mon Mar 30 13:55:24 2020, MaxMem=  2147483648 cpu:               0.4 elap:               0.0
 (Enter /usr/local/g16/g16/l804.exe)
 Closed-shell transformation, MDV=  2147483648 ITran=4 ISComp=1.
 Semi-Direct transformation.
 ModeAB=           2 MOrb=             9 LenV=    2147140326
 LASXX=       482211 LTotXX=      482211 LenRXX=      482211
 LTotAB=      511245 MaxLAS=     1086750 LenRXY=     1086750
 NonZer=     1162350 LenScr=     2357760 LnRSAI=           0
 LnScr1=           0 LExtra=           0 Total=      3926721
 MaxDsk=          -1 SrtSym=           F ITran=            4
 DoSDTr:  NPSUse= 16
 JobTyp=0 Pass  1:  I=   1 to   9.
 (rs|ai) integrals will be sorted in core.
 Complete sort for first half transformation.
 First half transformation complete.
 Complete sort for second half transformation.
 Second half transformation complete.
 SymMOI:  orbitals are not symmetric.
 Spin components of T(2) and E(2):
     alpha-alpha T2 =       0.9484485167D-02 E2=     -0.3552398032D-01
     alpha-beta  T2 =       0.4799866946D-01 E2=     -0.1708433112D+00
     beta-beta   T2 =       0.9484485167D-02 E2=     -0.3552398032D-01
 ANorm=    0.1032941257D+01
 E2 =    -0.2418912719D+00 EUMP2 =    -0.27522941143481D+04
 Leave Link  804 at Mon Mar 30 13:55:24 2020, MaxMem=  2147483648 cpu:               5.0 elap:               0.3
 (Enter /usr/local/g16/g16/l913.exe)
 CIDS:  MDV=  2147483648.
 Frozen-core window:  NFC=   9 NFV=   0.
 IFCWin=0 IBDFC=1 NFBD=     0     0 NFCmp=     0     0 NFFFC=     0     0
 Using DD3R+UMP44R for 1st iteration.
 Using DD4RQ for 2nd and later iterations.
 Keep R2 and R3 ints in memory in canonical form, NReq=15862484.
 FoFCou: FMM=F IPFlag=           0 FMFlag=           0 FMFlg1=           0
         NFxFlg=           0 DoJE=F BraDBF=F KetDBF=F FulRan=T
         wScrn=  0.000000 ICntrl=       600 IOpCl=  0 I1Cent=           0 NGrid=           0
         NMat0=    1 NMatS0=   1770 NMatT0=    0 NMatD0=    1 NMtDS0=    0 NMtDT0=    0
 Symmetry not used in FoFCou.
 Two-electron integral symmetry not used.
 CIDS: In Core Option IDoMem=           1.
 MP4(SDTQ)
 =========
 Produce multiple copies of IABC intergrals
 DD1Dir will call FoFMem   1 times, MxPair=        90
 NAB=    45 NAA=     0 NBB=     0.
 MP4(D)= -0.36913093D-02
 MP4(S)= -0.10734540D-02
 MP4(R+Q)=  0.42077927D-02
 T4(AAA)= -0.32336090D-03
 T4(AAB)= -0.35259699D-02
 Time for triples=        3.37 seconds.
 MP4(T)=   -0.76986616D-02
 E3=       -0.99406389D-02        EUMP3=      -0.27523040550D+04
 E4(DQ)=    0.51648341D-03        UMP4(DQ)=   -0.27523035385D+04
 E4(SDQ)=  -0.55697064D-03        UMP4(SDQ)=  -0.27523046120D+04
 E4(SDTQ)= -0.82556322D-02        UMP4(SDTQ)= -0.27523123106D+04
 VARIATIONAL ENERGIES WITH THE FIRST-ORDER WAVEFUNCTION:
 E(VAR1)=  -0.27522882489D+04     E(CISD,4)=  -0.27522926209D+04
 Largest amplitude= 2.43D-02
 Discarding MO integrals.
 Leave Link  913 at Mon Mar 30 13:55:25 2020, MaxMem=  2147483648 cpu:              13.6 elap:               0.9
 (Enter /usr/local/g16/g16/l122.exe)
 CPIOFr:  IOpCl= 0 IRwI=-1 IRwCP=  731 ICalc=  4 LCPTot=       59414 Len1MO=      159453 IndFrg=      856679
 Restoring MOs from calculation   1 to rwf.
 CPIOFr:  IOpCl= 0 IRwI=-2 IRwCP=  731 ICalc=  0 LCPTot=       59414 Len1MO=      159453 IndFrg=      218867
 Counterpoise corrected energy =   -2903.677773248736
                   BSSE energy =       0.000276727851
              sum of fragments =   -2903.677377221995
           complexation energy =      -0.42 kcal/mole (raw)
           complexation energy =      -0.25 kcal/mole (corrected)
 Leave Link  122 at Mon Mar 30 13:55:25 2020, MaxMem=  2147483648 cpu:               0.0 elap:               0.0
 (Enter /usr/local/g16/g16/l108.exe)
 Scan completed.
 
 Summary of the potential surface scan, energies are +2752 a.u.:
   N      R1          SCF          MP2          MP3         MP4DQ       MP4SDQ       MP4SDTQ  
 ----  ---------  -----------  -----------  -----------  -----------  -----------  -----------
    1     3.0000     -0.05222     -0.29411     -0.30405     -0.30354     -0.30461     -0.31231
    2     3.1000     -0.05222     -0.29411     -0.30405     -0.30354     -0.30461     -0.31231
    3     3.2000     -0.05222     -0.29411     -0.30405     -0.30354     -0.30461     -0.31231
    4     3.3000     -0.05222     -0.29411     -0.30405     -0.30354     -0.30461     -0.31231
    5     3.4000     -0.05222     -0.29411     -0.30405     -0.30354     -0.30461     -0.31231
    6     3.5000     -0.05222     -0.29411     -0.30405     -0.30354     -0.30461     -0.31231
    7     3.6000     -0.05222     -0.29411     -0.30405     -0.30354     -0.30461     -0.31231
    8     3.7000     -0.05222     -0.29411     -0.30405     -0.30354     -0.30461     -0.31231
    9     3.8000     -0.05222     -0.29411     -0.30405     -0.30354     -0.30461     -0.31231
   10     3.9000     -0.05222     -0.29411     -0.30405     -0.30354     -0.30461     -0.31231
   11     4.0000     -0.05222     -0.29411     -0.30405     -0.30354     -0.30461     -0.31231
   12     4.1000     -0.05222     -0.29411     -0.30405     -0.30354     -0.30461     -0.31231
   13     4.2000     -0.05222     -0.29411     -0.30405     -0.30354     -0.30461     -0.31231
   14     4.3000     -0.05222     -0.29411     -0.30405     -0.30354     -0.30461     -0.31231
   15     4.4000     -0.05222     -0.29411     -0.30405     -0.30354     -0.30461     -0.31231
   16     4.5000     -0.05222     -0.29411     -0.30405     -0.30354     -0.30461     -0.31231
   17     4.6000     -0.05222     -0.29411     -0.30405     -0.30354     -0.30461     -0.31231
   18     4.7000     -0.05222     -0.29411     -0.30405     -0.30354     -0.30461     -0.31231
   19     4.8000     -0.05222     -0.29411     -0.30405     -0.30354     -0.30461     -0.31231
   20     4.9000     -0.05222     -0.29411     -0.30405     -0.30354     -0.30461     -0.31231
   21     5.0000     -0.05222     -0.29411     -0.30405     -0.30354     -0.30461     -0.31231
 ----  ---------  -----------  -----------  -----------  -----------  -----------  -----------
  
 Leave Link  108 at Mon Mar 30 13:55:25 2020, MaxMem=  2147483648 cpu:               0.1 elap:               0.0
 (Enter /usr/local/g16/g16/l9999.exe)
 1\1\GINC-ARTHUR-MS-7B09\Scan\RMP4SDTQ-FC\Aug-CC-pVTZ\H2Kr1O2\MATHEUS\3
 0-Mar-2020\1\\#p mp4/aug-cc-PVTz int=ultrafine counterpoise=2 Scan\\PT
 CC\\0,1\O,0,0.,0.,0.725\O,0,0.,0.,-0.725\H,0,0.1595341571,0.9047631646
 ,1.0235104166\H,0,0.,0.9187205947,-1.0235104166\Kr,0,0.,R1,0.\\R1=3.,s
 ,20,0.1\\Version=ES64L-G16RevA.03\HF=-2752.0522231,-2752.0522231,-2752
 .0522231,-2752.0522231,-2752.0522231,-2752.0522231,-2752.0522231,-2752
 .0522231,-2752.0522231,-2752.0522231,-2752.0522231,-2752.0522231,-2752
 .0522231,-2752.0522231,-2752.0522231,-2752.0522231,-2752.0522231,-2752
 .0522231,-2752.0522231,-2752.0522231,-2752.0522231\MP2=-2752.2941143,-
 2752.2941143,-2752.2941143,-2752.2941143,-2752.2941143,-2752.2941143,-
 2752.2941143,-2752.2941143,-2752.2941143,-2752.2941143,-2752.2941143,-
 2752.2941143,-2752.2941143,-2752.2941143,-2752.2941143,-2752.2941143,-
 2752.2941143,-2752.2941143,-2752.2941143,-2752.2941143,-2752.2941143\M
 P3=-2752.304055,-2752.304055,-2752.304055,-2752.304055,-2752.304055,-2
 752.304055,-2752.304055,-2752.304055,-2752.304055,-2752.304055,-2752.3
 04055,-2752.304055,-2752.304055,-2752.304055,-2752.304055,-2752.304055
 ,-2752.304055,-2752.304055,-2752.304055,-2752.304055,-2752.304055\MP4D
 =-2752.3077463,-2752.3077463,-2752.3077463,-2752.3077463,-2752.3077463
 ,-2752.3077463,-2752.3077463,-2752.3077463,-2752.3077463,-2752.3077463
 ,-2752.3077463,-2752.3077463,-2752.3077463,-2752.3077463,-2752.3077463
 ,-2752.3077463,-2752.3077463,-2752.3077463,-2752.3077463,-2752.3077463
 ,-2752.3077463\MP4DQ=-2752.3035385,-2752.3035385,-2752.3035385,-2752.3
 035385,-2752.3035385,-2752.3035385,-2752.3035385,-2752.3035385,-2752.3
 035385,-2752.3035385,-2752.3035385,-2752.3035385,-2752.3035385,-2752.3
 035385,-2752.3035385,-2752.3035385,-2752.3035385,-2752.3035385,-2752.3
 035385,-2752.3035385,-2752.3035385\MP4SDQ=-2752.304612,-2752.304612,-2
 752.304612,-2752.304612,-2752.304612,-2752.304612,-2752.304612,-2752.3
 04612,-2752.304612,-2752.304612,-2752.304612,-2752.304612,-2752.304612
 ,-2752.304612,-2752.304612,-2752.304612,-2752.304612,-2752.304612,-275
 2.304612,-2752.304612,-2752.304612\MP4SDTQ=-2752.3123106,-2752.3123106
 ,-2752.3123106,-2752.3123106,-2752.3123106,-2752.3123106,-2752.3123106
 ,-2752.3123106,-2752.3123106,-2752.3123106,-2752.3123106,-2752.3123106
 ,-2752.3123106,-2752.3123106,-2752.3123106,-2752.3123106,-2752.3123106
 ,-2752.3123106,-2752.3123106,-2752.3123106,-2752.3123106\RMSD=9.887e-1
 0,1.149e-10,2.884e-11,7.214e-12,1.870e-12,4.728e-13,1.331e-13,3.935e-1
 4,1.969e-14,1.234e-14,1.374e-14,1.138e-14,9.050e-15,5.889e-15,7.261e-1
 5,5.528e-15,6.386e-15,4.753e-15,5.862e-15,8.601e-15,9.480e-15\PG=C01 [
 X(H2Kr1O2)]\\@


 CHARLIE BROWN -- WHICH DO YOU THINK LASTS LONGER IN LIFE, THE GOOD THINGS 
                  OR THE BAD THINGS?
 LINUS --         GOOD THINGS LAST EIGHT SECONDS ..
                  BAD THINGS LAST THREE WEEKS
 CHARLIE BROWN -- WHAT ABOUT IN BETWEEN?
 SNOOPY --        IN BETWEEN YOU SHOULD TAKE A NAP ...
 Job cpu time:       0 days 20 hours 40 minutes 25.6 seconds.
 Elapsed time:       0 days  1 hours 18 minutes 44.7 seconds.
 File lengths (MBytes):  RWF=   4068 Int=      0 D2E=      0 Chk=     12 Scr=      1
 Normal termination of Gaussian 16 at Mon Mar 30 13:55:26 2020.
