 Entering Gaussian System, Link 0=g16
 Input=Inputs/H2O2-Kr_0.com
 Output=Logs/H2O2-Kr_inf.log
 Initial command:
 /usr/local/g16/g16/l1.exe "/mnt/driveB/scratch/matheus/Gau-85292.inp" -scrdir="/mnt/driveB/scratch/matheus/"
 Entering Link 1 = /usr/local/g16/g16/l1.exe PID=     85294.
  
 Copyright (c) 1988,1990,1992,1993,1995,1998,2003,2009,2016,
            Gaussian, Inc.  All Rights Reserved.
  
 This is part of the Gaussian(R) 16 program.  It is based on
 the Gaussian(R) 09 system (copyright 2009, Gaussian, Inc.),
 the Gaussian(R) 03 system (copyright 2003, Gaussian, Inc.),
 the Gaussian(R) 98 system (copyright 1998, Gaussian, Inc.),
 the Gaussian(R) 94 system (copyright 1995, Gaussian, Inc.),
 the Gaussian 92(TM) system (copyright 1992, Gaussian, Inc.),
 the Gaussian 90(TM) system (copyright 1990, Gaussian, Inc.),
 the Gaussian 88(TM) system (copyright 1988, Gaussian, Inc.),
 the Gaussian 86(TM) system (copyright 1986, Carnegie Mellon
 University), and the Gaussian 82(TM) system (copyright 1983,
 Carnegie Mellon University). Gaussian is a federally registered
 trademark of Gaussian, Inc.
  
 This software contains proprietary and confidential information,
 including trade secrets, belonging to Gaussian, Inc.
  
 This software is provided under written license and may be
 used, copied, transmitted, or stored only in accord with that
 written license.
  
 The following legend is applicable only to US Government
 contracts under FAR:
  
                    RESTRICTED RIGHTS LEGEND
  
 Use, reproduction and disclosure by the US Government is
 subject to restrictions as set forth in subparagraphs (a)
 and (c) of the Commercial Computer Software - Restricted
 Rights clause in FAR 52.227-19.
  
 Gaussian, Inc.
 340 Quinnipiac St., Bldg. 40, Wallingford CT 06492
  
  
 ---------------------------------------------------------------
 Warning -- This program may not be used in any manner that
 competes with the business of Gaussian, Inc. or will provide
 assistance to any competitor of Gaussian, Inc.  The licensee
 of this program is prohibited from giving any competitor of
 Gaussian, Inc. access to this program.  By using this program,
 the user acknowledges that Gaussian, Inc. is engaged in the
 business of creating and licensing software in the field of
 computational chemistry and represents and warrants to the
 licensee that it is not a competitor of Gaussian, Inc. and that
 it will not use this program in any manner prohibited above.
 ---------------------------------------------------------------
  

 Cite this work as:
 Gaussian 16, Revision A.03,
 M. J. Frisch, G. W. Trucks, H. B. Schlegel, G. E. Scuseria, 
 M. A. Robb, J. R. Cheeseman, G. Scalmani, V. Barone, 
 G. A. Petersson, H. Nakatsuji, X. Li, M. Caricato, A. V. Marenich, 
 J. Bloino, B. G. Janesko, R. Gomperts, B. Mennucci, H. P. Hratchian, 
 J. V. Ortiz, A. F. Izmaylov, J. L. Sonnenberg, D. Williams-Young, 
 F. Ding, F. Lipparini, F. Egidi, J. Goings, B. Peng, A. Petrone, 
 T. Henderson, D. Ranasinghe, V. G. Zakrzewski, J. Gao, N. Rega, 
 G. Zheng, W. Liang, M. Hada, M. Ehara, K. Toyota, R. Fukuda, 
 J. Hasegawa, M. Ishida, T. Nakajima, Y. Honda, O. Kitao, H. Nakai, 
 T. Vreven, K. Throssell, J. A. Montgomery, Jr., J. E. Peralta, 
 F. Ogliaro, M. J. Bearpark, J. J. Heyd, E. N. Brothers, K. N. Kudin, 
 V. N. Staroverov, T. A. Keith, R. Kobayashi, J. Normand, 
 K. Raghavachari, A. P. Rendell, J. C. Burant, S. S. Iyengar, 
 J. Tomasi, M. Cossi, J. M. Millam, M. Klene, C. Adamo, R. Cammi, 
 J. W. Ochterski, R. L. Martin, K. Morokuma, O. Farkas, 
 J. B. Foresman, and D. J. Fox, Gaussian, Inc., Wallingford CT, 2016.
 
 ******************************************
 Gaussian 16:  ES64L-G16RevA.03 25-Dec-2016
                 6-Apr-2020 
 ******************************************
 %mem=16GB
 %nproc=16
 Will use up to   16 processors via shared memory.
 -----------------------------------------------
 #p mp4/aug-cc-PVTz int=ultrafine counterpoise=2
 -----------------------------------------------
 1/38=1,62=2,172=1/1;
 2/12=2,17=6,18=5,40=1/2;
 1/38=1,53=2,62=2,63=1/22;
 3/5=16,6=1,7=10,11=9,25=1,30=1,75=-5/1,2,3;
 4//1;
 5/5=2,38=5/2;
 8/6=4,9=120000,10=1/1,4;
 9/5=5/13;
 6/7=2,8=2,9=2,10=2/1;
 1/53=2,62=2,63=1/22;
 3/5=7,6=11,7=10,11=9,25=1,30=1,75=-5,82=7/1,2,3;
 4//1;
 5/5=2,38=5/2;
 8/6=4,9=120000,10=1/1,4;
 9/5=5/13;
 6/7=2,8=2,9=2,10=2/1;
 1/53=2,62=2,63=1/22(-6);
 99/5=1,9=1/99;
 Leave Link    1 at Mon Apr  6 15:41:17 2020, MaxMem=  2147483648 cpu:               0.3 elap:               0.0
 (Enter /usr/local/g16/g16/l101.exe)
 ---
 TCC
 ---
 Symbolic Z-matrix:
 Charge =  0 Multiplicity = 1 in supermolecule
 Charge =  0 Multiplicity = 1 in fragment      1.
 Charge =  0 Multiplicity = 1 in fragment      2.
 O(Fragment=1)         0.        0.        0.725 
 O(Fragment=1)         0.        0.       -0.725 
 H(Fragment=1)         0.        0.91872   1.02351 
 H(Fragment=1)         0.        0.91872  -1.02351 
 Kr(Fragment=2)        0.       R1        0. 
       Variables:
  R1                   15.                       
 
 ITRead=  0  0  0  0  0
 MicOpt= -1 -1 -1 -1 -1
 NAtoms=      5 NQM=        5 NQMF=       0 NMMI=      0 NMMIF=      0
                NMic=       0 NMicF=      0.
                    Isotopes and Nuclear Properties:
 (Nuclear quadrupole moments (NQMom) in fm**2, nuclear magnetic moments (NMagM)
  in nuclear magnetons)

  Atom         1           2           3           4           5
 IAtWgt=          16          16           1           1          84
 AtmWgt=  15.9949146  15.9949146   1.0078250   1.0078250  83.9115064
 NucSpn=           0           0           1           1           0
 AtZEff=  -0.0000000  -0.0000000  -0.0000000  -0.0000000  -0.0000000
 NQMom=    0.0000000   0.0000000   0.0000000   0.0000000   0.0000000
 NMagM=    0.0000000   0.0000000   2.7928460   2.7928460   0.0000000
 AtZNuc=   8.0000000   8.0000000   1.0000000   1.0000000  36.0000000
 Leave Link  101 at Mon Apr  6 15:41:17 2020, MaxMem=  2147483648 cpu:               1.4 elap:               0.1
 (Enter /usr/local/g16/g16/l202.exe)
                          Input orientation:                          
 ---------------------------------------------------------------------
 Center     Atomic      Atomic             Coordinates (Angstroms)
 Number     Number       Type             X           Y           Z
 ---------------------------------------------------------------------
      1          8           0        0.000000    0.000000    0.725000
      2          8           0        0.000000    0.000000   -0.725000
      3          1           0        0.000000    0.918721    1.023510
      4          1           0        0.000000    0.918721   -1.023510
      5         36           0        0.000000   15.000000    0.000000
 ---------------------------------------------------------------------
                    Distance matrix (angstroms):
                    1          2          3          4          5
     1  O    0.000000
     2  O    1.450000   0.000000
     3  H    0.966000   1.975180   0.000000
     4  H    1.975180   0.966000   2.047021   0.000000
     5  Kr  15.017511  15.017511  14.118428  14.118428   0.000000
 Stoichiometry    H2KrO2
 Framework group  C2V[C2(Kr),SGV(H2O2)]
 Deg. of freedom     4
 Full point group                 C2V     NOp   4
 Largest Abelian subgroup         C2V     NOp   4
 Largest concise Abelian subgroup C2      NOp   2
                         Standard orientation:                         
 ---------------------------------------------------------------------
 Center     Atomic      Atomic             Coordinates (Angstroms)
 Number     Number       Type             X           Y           Z
 ---------------------------------------------------------------------
      1          8           0        0.000000    0.725000  -10.034027
      2          8           0       -0.000000   -0.725000  -10.034027
      3          1           0        0.000000    1.023510   -9.115306
      4          1           0       -0.000000   -1.023510   -9.115306
      5         36           0       -0.000000    0.000000    4.965973
 ---------------------------------------------------------------------
 Rotational constants (GHZ):          26.7026198           0.0934698           0.0931437
 Leave Link  202 at Mon Apr  6 15:41:17 2020, MaxMem=  2147483648 cpu:               0.0 elap:               0.0
 (Enter /usr/local/g16/g16/l122.exe)
 Counterpoise: doing full-system calculation.
 Leave Link  122 at Mon Apr  6 15:41:17 2020, MaxMem=  2147483648 cpu:               0.0 elap:               0.0
 (Enter /usr/local/g16/g16/l301.exe)
 Standard basis: Aug-CC-pVTZ (5D, 7F)
 Ernie: Thresh=  0.10000D-02 Tol=  0.10000D-05 Strict=F.
 Ernie:  38 primitive shells out of 205 were deleted.
 There are    86 symmetry adapted cartesian basis functions of A1  symmetry.
 There are    31 symmetry adapted cartesian basis functions of A2  symmetry.
 There are    41 symmetry adapted cartesian basis functions of B1  symmetry.
 There are    71 symmetry adapted cartesian basis functions of B2  symmetry.
 There are    71 symmetry adapted basis functions of A1  symmetry.
 There are    29 symmetry adapted basis functions of A2  symmetry.
 There are    37 symmetry adapted basis functions of B1  symmetry.
 There are    60 symmetry adapted basis functions of B2  symmetry.
   197 basis functions,   415 primitive gaussians,   229 cartesian basis functions
    27 alpha electrons       27 beta electrons
       nuclear repulsion energy        59.6621181354 Hartrees.
 IExCor=    0 DFT=F Ex=HF Corr=None ExCW=0 ScaHFX=  1.000000
 ScaDFX=  1.000000  1.000000  1.000000  1.000000 ScalE2=  1.000000  1.000000
 IRadAn=      5 IRanWt=     -1 IRanGd=            0 ICorTp=0 IEmpDi=  4
 NAtoms=    5 NActive=    5 NUniq=    3 SFac= 2.78D+00 NAtFMM=   60 NAOKFM=F Big=F
 Integral buffers will be    131072 words long.
 Raffenetti 1 integral format.
 Two-electron integral symmetry is turned on.
 Leave Link  301 at Mon Apr  6 15:41:17 2020, MaxMem=  2147483648 cpu:               0.3 elap:               0.0
 (Enter /usr/local/g16/g16/l302.exe)
 NPDir=0 NMtPBC=     1 NCelOv=     1 NCel=       1 NClECP=     1 NCelD=      1
         NCelK=      1 NCelE2=     1 NClLst=     1 CellRange=     0.0.
 One-electron integrals computed using PRISM.
 One-electron integral symmetry used in STVInt
 NBasis=   197 RedAO= T EigKep=  1.88D-04  NBF=    71    29    37    60
 NBsUse=   197 1.00D-06 EigRej= -1.00D+00 NBFU=    71    29    37    60
 Leave Link  302 at Mon Apr  6 15:41:17 2020, MaxMem=  2147483648 cpu:               1.5 elap:               0.1
 (Enter /usr/local/g16/g16/l303.exe)
 DipDrv:  MaxL=1.
 Leave Link  303 at Mon Apr  6 15:41:17 2020, MaxMem=  2147483648 cpu:               0.4 elap:               0.0
 (Enter /usr/local/g16/g16/l401.exe)
 ExpMin= 2.53D-02 ExpMax= 1.17D+07 ExpMxC= 1.33D+04 IAcc=3 IRadAn=         5 AccDes= 0.00D+00
 Harris functional with IExCor=  205 and IRadAn=       5 diagonalized for initial guess.
 HarFok:  IExCor=  205 AccDes= 0.00D+00 IRadAn=         5 IDoV= 1 UseB2=F ITyADJ=14
 ICtDFT=  3500011 ScaDFX=  1.000000  1.000000  1.000000  1.000000
 FoFCou: FMM=F IPFlag=           0 FMFlag=      100000 FMFlg1=           0
         NFxFlg=           0 DoJE=T BraDBF=F KetDBF=T FulRan=T
         wScrn=  0.000000 ICntrl=       500 IOpCl=  0 I1Cent=   200000004 NGrid=           0
         NMat0=    1 NMatS0=      1 NMatT0=    0 NMatD0=    1 NMtDS0=    0 NMtDT0=    0
 Petite list used in FoFCou.
 Harris En= -2901.99152931489    
 JPrj=0 DoOrth=F DoCkMO=F.
 Initial guess orbital symmetries:
       Occupied  (A1) (A1) (A1) (B1) (B2) (B2) (A1) (A1) (B1) (B2)
                 (A1) (A2) (B1) (B2) (A1) (A1) (A1) (B2) (A1) (A1)
                 (A1) (B1) (B2) (B1) (B2) (A1) (A2)
       Virtual   (B2) (A1) (A1) (B2) (A1) (B2) (B1) (A1) (B1) (A1)
                 (B2) (A1) (A2) (B1) (B2) (A1) (B2) (A1) (A2) (B1)
                 (A1) (B2) (A1) (A2) (B2) (A1) (B2) (B2) (A1) (B1)
                 (B2) (A1) (B1) (A1) (B1) (A1) (B2) (A1) (A2) (A1)
                 (B1) (B2) (A1) (A2) (B1) (A2) (B2) (A1) (B2) (A1)
                 (A1) (B1) (B1) (A1) (B2) (B2) (B1) (A2) (A1) (B1)
                 (B2) (A1) (A2) (B2) (B2) (A1) (A2) (B2) (A2) (A1)
                 (B2) (B1) (A1) (B2) (A2) (A1) (B2) (B1) (A1) (A1)
                 (B2) (B1) (A1) (A2) (B1) (B2) (A1) (B2) (B1) (A1)
                 (A2) (A2) (A1) (B2) (B1) (A1) (A1) (B2) (B2) (A1)
                 (B1) (B1) (A1) (B2) (B2) (B1) (A2) (A1) (B2) (B1)
                 (B2) (A2) (A2) (A1) (A1) (B2) (B2) (A2) (B2) (A1)
                 (A1) (B1) (B2) (A1) (B1) (A2) (B1) (A2) (A1) (B2)
                 (A2) (A1) (A1) (B2) (B2) (A1) (A1) (B1) (B2) (B2)
                 (A2) (B2) (A1) (B1) (A1) (B2) (B1) (A1) (A2) (B2)
                 (B1) (A1) (A1) (A2) (B1) (B2) (B1) (A2) (A2) (A1)
                 (B2) (A2) (A1) (B2) (B2) (A1) (B2) (B2) (A1) (B2)
 The electronic state of the initial guess is 1-A1.
 Leave Link  401 at Mon Apr  6 15:41:17 2020, MaxMem=  2147483648 cpu:               2.2 elap:               0.1
 (Enter /usr/local/g16/g16/l502.exe)
 Keep R1 ints in memory in symmetry-blocked form, NReq=238417312.
 FoFCou: FMM=F IPFlag=           0 FMFlag=           0 FMFlg1=           0
         NFxFlg=           0 DoJE=F BraDBF=F KetDBF=F FulRan=T
         wScrn=  0.000000 ICntrl=       600 IOpCl=  0 I1Cent=           0 NGrid=           0
         NMat0=    1 NMatS0=  19503 NMatT0=    0 NMatD0=    1 NMtDS0=    0 NMtDT0=    0
 Petite list used in FoFCou.
 Closed shell SCF:
 Using DIIS extrapolation, IDIIS=  1040.
 NGot=  2147483648 LenX=  2099150232 LenY=  2099097350
 Requested convergence on RMS density matrix=1.00D-08 within 128 cycles.
 Requested convergence on MAX density matrix=1.00D-06.
 Requested convergence on             energy=1.00D-06.
 No special actions if energy rises.

 Cycle   1  Pass 1  IDiag  1:
 E= -2902.76554610211    
 DIIS: error= 1.21D-01 at cycle   1 NSaved=   1.
 NSaved= 1 IEnMin= 1 EnMin= -2902.76554610211     IErMin= 1 ErrMin= 1.21D-01
 ErrMax= 1.21D-01  0.00D+00 EMaxC= 1.00D-01 BMatC= 6.36D-01 BMatP= 6.36D-01
 IDIUse=3 WtCom= 0.00D+00 WtEn= 1.00D+00
 Coeff-Com:  0.100D+01
 Coeff-En:   0.100D+01
 Coeff:      0.100D+01
 Gap=     0.464 Goal=   None    Shift=    0.000
 GapD=    0.464 DampG=2.000 DampE=0.250 DampFc=0.5000 IDamp=-1.
 Damping current iteration by 5.00D-01
 RMSDP=1.70D-03 MaxDP=1.16D-01              OVMax= 6.85D-02

 Cycle   2  Pass 1  IDiag  1:
 E= -2902.82582633751     Delta-E=       -0.060280235402 Rises=F Damp=T
 DIIS: error= 5.68D-02 at cycle   2 NSaved=   2.
 NSaved= 2 IEnMin= 2 EnMin= -2902.82582633751     IErMin= 2 ErrMin= 5.68D-02
 ErrMax= 5.68D-02  0.00D+00 EMaxC= 1.00D-01 BMatC= 1.26D-01 BMatP= 6.36D-01
 IDIUse=3 WtCom= 4.32D-01 WtEn= 5.68D-01
 Coeff-Com: -0.707D+00 0.171D+01
 Coeff-En:   0.000D+00 0.100D+01
 Coeff:     -0.305D+00 0.131D+01
 Gap=     0.488 Goal=   None    Shift=    0.000
 RMSDP=6.74D-04 MaxDP=3.48D-02 DE=-6.03D-02 OVMax= 2.24D-02

 Cycle   3  Pass 1  IDiag  1:
 E= -2902.87954828275     Delta-E=       -0.053721945240 Rises=F Damp=F
 DIIS: error= 1.53D-03 at cycle   3 NSaved=   3.
 NSaved= 3 IEnMin= 3 EnMin= -2902.87954828275     IErMin= 3 ErrMin= 1.53D-03
 ErrMax= 1.53D-03  0.00D+00 EMaxC= 1.00D-01 BMatC= 4.80D-04 BMatP= 1.26D-01
 IDIUse=3 WtCom= 9.85D-01 WtEn= 1.53D-02
 Coeff-Com:  0.589D-01-0.125D+00 0.107D+01
 Coeff-En:   0.000D+00 0.000D+00 0.100D+01
 Coeff:      0.580D-01-0.124D+00 0.107D+01
 Gap=     0.483 Goal=   None    Shift=    0.000
 RMSDP=7.93D-05 MaxDP=3.98D-03 DE=-5.37D-02 OVMax= 5.05D-03

 Cycle   4  Pass 1  IDiag  1:
 E= -2902.87981130654     Delta-E=       -0.000263023785 Rises=F Damp=F
 DIIS: error= 8.63D-04 at cycle   4 NSaved=   4.
 NSaved= 4 IEnMin= 4 EnMin= -2902.87981130654     IErMin= 4 ErrMin= 8.63D-04
 ErrMax= 8.63D-04  0.00D+00 EMaxC= 1.00D-01 BMatC= 5.59D-05 BMatP= 4.80D-04
 IDIUse=3 WtCom= 9.91D-01 WtEn= 8.63D-03
 Coeff-Com:  0.269D-01-0.628D-01 0.209D+00 0.827D+00
 Coeff-En:   0.000D+00 0.000D+00 0.000D+00 0.100D+01
 Coeff:      0.267D-01-0.622D-01 0.208D+00 0.828D+00
 Gap=     0.488 Goal=   None    Shift=    0.000
 RMSDP=2.17D-05 MaxDP=7.10D-04 DE=-2.63D-04 OVMax= 1.85D-03

 Cycle   5  Pass 1  IDiag  1:
 E= -2902.87985474782     Delta-E=       -0.000043441285 Rises=F Damp=F
 DIIS: error= 1.85D-04 at cycle   5 NSaved=   5.
 NSaved= 5 IEnMin= 5 EnMin= -2902.87985474782     IErMin= 5 ErrMin= 1.85D-04
 ErrMax= 1.85D-04  0.00D+00 EMaxC= 1.00D-01 BMatC= 3.52D-06 BMatP= 5.59D-05
 IDIUse=3 WtCom= 9.98D-01 WtEn= 1.85D-03
 Coeff-Com: -0.584D-02 0.135D-01-0.952D-01-0.462D-01 0.113D+01
 Coeff-En:   0.000D+00 0.000D+00 0.000D+00 0.000D+00 0.100D+01
 Coeff:     -0.583D-02 0.134D-01-0.951D-01-0.461D-01 0.113D+01
 Gap=     0.488 Goal=   None    Shift=    0.000
 RMSDP=1.12D-05 MaxDP=3.79D-04 DE=-4.34D-05 OVMax= 9.59D-04

 Cycle   6  Pass 1  IDiag  1:
 E= -2902.87986061711     Delta-E=       -0.000005869283 Rises=F Damp=F
 DIIS: error= 5.21D-05 at cycle   6 NSaved=   6.
 NSaved= 6 IEnMin= 6 EnMin= -2902.87986061711     IErMin= 6 ErrMin= 5.21D-05
 ErrMax= 5.21D-05  0.00D+00 EMaxC= 1.00D-01 BMatC= 2.10D-07 BMatP= 3.52D-06
 IDIUse=1 WtCom= 1.00D+00 WtEn= 0.00D+00
 Coeff-Com: -0.173D-02 0.381D-02-0.868D-02-0.514D-01-0.452D-01 0.110D+01
 Coeff:     -0.173D-02 0.381D-02-0.868D-02-0.514D-01-0.452D-01 0.110D+01
 Gap=     0.488 Goal=   None    Shift=    0.000
 RMSDP=3.26D-06 MaxDP=1.00D-04 DE=-5.87D-06 OVMax= 3.04D-04

 Cycle   7  Pass 1  IDiag  1:
 E= -2902.87986107092     Delta-E=       -0.000000453819 Rises=F Damp=F
 DIIS: error= 1.39D-05 at cycle   7 NSaved=   7.
 NSaved= 7 IEnMin= 7 EnMin= -2902.87986107092     IErMin= 7 ErrMin= 1.39D-05
 ErrMax= 1.39D-05  0.00D+00 EMaxC= 1.00D-01 BMatC= 1.16D-08 BMatP= 2.10D-07
 IDIUse=1 WtCom= 1.00D+00 WtEn= 0.00D+00
 Coeff-Com:  0.535D-03-0.118D-02 0.622D-02 0.837D-02-0.638D-01-0.157D+00
 Coeff-Com:  0.121D+01
 Coeff:      0.535D-03-0.118D-02 0.622D-02 0.837D-02-0.638D-01-0.157D+00
 Coeff:      0.121D+01
 Gap=     0.488 Goal=   None    Shift=    0.000
 RMSDP=1.16D-06 MaxDP=3.90D-05 DE=-4.54D-07 OVMax= 1.09D-04

 Cycle   8  Pass 1  IDiag  1:
 E= -2902.87986110444     Delta-E=       -0.000000033514 Rises=F Damp=F
 DIIS: error= 3.32D-06 at cycle   8 NSaved=   8.
 NSaved= 8 IEnMin= 8 EnMin= -2902.87986110444     IErMin= 8 ErrMin= 3.32D-06
 ErrMax= 3.32D-06  0.00D+00 EMaxC= 1.00D-01 BMatC= 6.35D-10 BMatP= 1.16D-08
 IDIUse=1 WtCom= 1.00D+00 WtEn= 0.00D+00
 Coeff-Com: -0.187D-04 0.432D-04-0.993D-03 0.878D-03 0.151D-01-0.136D-01
 Coeff-Com: -0.257D+00 0.126D+01
 Coeff:     -0.187D-04 0.432D-04-0.993D-03 0.878D-03 0.151D-01-0.136D-01
 Coeff:     -0.257D+00 0.126D+01
 Gap=     0.488 Goal=   None    Shift=    0.000
 RMSDP=2.38D-07 MaxDP=5.65D-06 DE=-3.35D-08 OVMax= 2.82D-05

 Cycle   9  Pass 1  IDiag  1:
 E= -2902.87986110637     Delta-E=       -0.000000001936 Rises=F Damp=F
 DIIS: error= 1.42D-06 at cycle   9 NSaved=   9.
 NSaved= 9 IEnMin= 9 EnMin= -2902.87986110637     IErMin= 9 ErrMin= 1.42D-06
 ErrMax= 1.42D-06  0.00D+00 EMaxC= 1.00D-01 BMatC= 7.54D-11 BMatP= 6.35D-10
 IDIUse=1 WtCom= 1.00D+00 WtEn= 0.00D+00
 Coeff-Com: -0.443D-04 0.949D-04 0.249D-05-0.130D-02-0.259D-02 0.200D-01
 Coeff-Com:  0.441D-01-0.669D+00 0.161D+01
 Coeff:     -0.443D-04 0.949D-04 0.249D-05-0.130D-02-0.259D-02 0.200D-01
 Coeff:      0.441D-01-0.669D+00 0.161D+01
 Gap=     0.488 Goal=   None    Shift=    0.000
 RMSDP=9.84D-08 MaxDP=2.29D-06 DE=-1.94D-09 OVMax= 1.35D-05

 Cycle  10  Pass 1  IDiag  1:
 E= -2902.87986110665     Delta-E=       -0.000000000281 Rises=F Damp=F
 DIIS: error= 2.86D-07 at cycle  10 NSaved=  10.
 NSaved=10 IEnMin=10 EnMin= -2902.87986110665     IErMin=10 ErrMin= 2.86D-07
 ErrMax= 2.86D-07  0.00D+00 EMaxC= 1.00D-01 BMatC= 3.63D-12 BMatP= 7.54D-11
 IDIUse=1 WtCom= 1.00D+00 WtEn= 0.00D+00
 Coeff-Com:  0.186D-04-0.396D-04 0.672D-04 0.432D-03-0.338D-03-0.590D-02
 Coeff-Com:  0.620D-02 0.119D+00-0.494D+00 0.137D+01
 Coeff:      0.186D-04-0.396D-04 0.672D-04 0.432D-03-0.338D-03-0.590D-02
 Coeff:      0.620D-02 0.119D+00-0.494D+00 0.137D+01
 Gap=     0.488 Goal=   None    Shift=    0.000
 RMSDP=2.26D-08 MaxDP=6.95D-07 DE=-2.81D-10 OVMax= 3.10D-06

 Cycle  11  Pass 1  IDiag  1:
 E= -2902.87986110667     Delta-E=       -0.000000000014 Rises=F Damp=F
 DIIS: error= 5.44D-08 at cycle  11 NSaved=  11.
 NSaved=11 IEnMin=11 EnMin= -2902.87986110667     IErMin=11 ErrMin= 5.44D-08
 ErrMax= 5.44D-08  0.00D+00 EMaxC= 1.00D-01 BMatC= 1.95D-13 BMatP= 3.63D-12
 IDIUse=1 WtCom= 1.00D+00 WtEn= 0.00D+00
 Coeff-Com: -0.423D-05 0.891D-05-0.243D-04-0.521D-04 0.293D-03 0.180D-03
 Coeff-Com: -0.247D-02-0.467D-02 0.751D-01-0.478D+00 0.141D+01
 Coeff:     -0.423D-05 0.891D-05-0.243D-04-0.521D-04 0.293D-03 0.180D-03
 Coeff:     -0.247D-02-0.467D-02 0.751D-01-0.478D+00 0.141D+01
 Gap=     0.488 Goal=   None    Shift=    0.000
 RMSDP=5.07D-09 MaxDP=1.43D-07 DE=-1.41D-11 OVMax= 6.07D-07

 SCF Done:  E(RHF) =  -2902.87986111     A.U. after   11 cycles
            NFock= 11  Conv=0.51D-08     -V/T= 2.0001
 KE= 2.902595660306D+03 PE=-7.060017400792D+03 EE= 1.194879761245D+03
 Leave Link  502 at Mon Apr  6 15:41:19 2020, MaxMem=  2147483648 cpu:              22.5 elap:               1.5
 (Enter /usr/local/g16/g16/l801.exe)
 Windowed orbitals will be sorted by symmetry type.
 ExpMin= 2.53D-02 ExpMax= 1.17D+07 ExpMxC= 1.33D+04 IAcc=3 IRadAn=         5 AccDes= 0.00D+00
 HarFok:  IExCor=  205 AccDes= 0.00D+00 IRadAn=         5 IDoV=-2 UseB2=F ITyADJ=14
 ICtDFT= 12500011 ScaDFX=  1.000000  1.000000  1.000000  1.000000
 Largest valence mixing into a core orbital is  1.19D-04
 Largest core mixing into a valence orbital is  3.83D-05
 Range of M.O.s used for correlation:    12   197
 NBasis=   197 NAE=    27 NBE=    27 NFC=    11 NFV=     0
 NROrb=    186 NOA=    16 NOB=    16 NVA=   170 NVB=   170

 **** Warning!!: The largest alpha MO coefficient is  0.17412645D+02

 Leave Link  801 at Mon Apr  6 15:41:19 2020, MaxMem=  2147483648 cpu:               0.6 elap:               0.0
 (Enter /usr/local/g16/g16/l804.exe)
 Closed-shell transformation, MDV=  2147483648 ITran=4 ISComp=2.
 Unit  1 TFree=       1288083 TCopy=        790671.
 Semi-Direct transformation.
 ModeAB=           4 MOrb=            16 LenV=    2146444386
 LASXX=     12259514 LTotXX=    12259514 LenRXX=    24734919
 LTotAB=    12475405 MaxLAS=    29143968 LenRXY=           0
 NonZer=    36994433 LenScr=    56254464 LnRSAI=    29143968
 LnScr1=    44476416 LExtra=           0 Total=    154609767
 MaxDsk=          -1 SrtSym=           T ITran=            4
 DoSDTr:  NPSUse= 16
 JobTyp=0 Pass  1:  I=   1 to  16.
 (rs|ai) integrals will be sorted in core.
 Complete sort for first half transformation.
 First half transformation complete.
 Begin second half transformation for I=  10.
 Complete sort for second half transformation.
 Second half transformation complete.
 Spin components of T(2) and E(2):
     alpha-alpha T2 =       0.2555092848D-01 E2=     -0.9838597873D-01
     alpha-beta  T2 =       0.1413692623D+00 E2=     -0.5526818538D+00
     beta-beta   T2 =       0.2555092848D-01 E2=     -0.9838597873D-01
 ANorm=    0.1092003260D+01
 E2 =    -0.7494538112D+00 EUMP2 =    -0.29036293149179D+04
 Leave Link  804 at Mon Apr  6 15:41:22 2020, MaxMem=  2147483648 cpu:              51.2 elap:               3.2
 (Enter /usr/local/g16/g16/l913.exe)
 CIDS:  MDV=  2147483648.
 Frozen-core window:  NFC=  11 NFV=   0.
 IFCWin=0 IBDFC=1 NFBD=     0     0 NFCmp=     0     0 NFFFC=     0     0
 Using DD3R+UMP44R for 1st iteration.
 Using DD4RQ for 2nd and later iterations.
 Keep R2 and R3 ints in memory in symmetry-blocked form, NReq=238425736.
 FoFCou: FMM=F IPFlag=           0 FMFlag=           0 FMFlg1=           0
         NFxFlg=           0 DoJE=F BraDBF=F KetDBF=F FulRan=T
         wScrn=  0.000000 ICntrl=       600 IOpCl=  0 I1Cent=           0 NGrid=           0
         NMat0=    1 NMatS0=  19503 NMatT0=    0 NMatD0=    1 NMtDS0=    0 NMtDT0=    0
 Petite list used in FoFCou.
 CIDS: In Core Option IDoMem=           1.
 MP4(SDTQ)
 =========
 Produce multiple copies of IABC intergrals
 DD1Dir will call FoFMem   1 times, MxPair=       272
 NAB=   136 NAA=     0 NBB=     0.
 MP4(D)= -0.14897567D-01
 MP4(S)= -0.62837743D-02
 MP4(R+Q)=  0.15030346D-01
 IPart=  7 IA=   10   10.34% done.
 IPart= 16 IA=   19   20.11% done.
 IPart= 13 IA=   29   30.31% done.
 IPart=  9 IA=   40   40.72% done.
 IPart= 16 IA=   51   50.30% done.
 IPart=  4 IA=   64   60.52% done.
 IPart= 16 IA=   78   70.22% done.
 IPart=  8 IA=   95   80.16% done.
 IPart=  2 IA=  117   90.04% done.
 Time for triples=      808.84 seconds.
 MP4(T)=   -0.29661529D-01
 E3=       -0.12001457D-01        EUMP3=      -0.29036413164D+04
 E4(DQ)=    0.13277865D-03        UMP4(DQ)=   -0.29036411836D+04
 E4(SDQ)=  -0.61509957D-02        UMP4(SDQ)=  -0.29036474674D+04
 E4(SDTQ)= -0.35812525D-01        UMP4(SDTQ)= -0.29036771289D+04
 VARIATIONAL ENERGIES WITH THE FIRST-ORDER WAVEFUNCTION:
 E(VAR1)=  -0.29035184135D+04     E(CISD,4)=  -0.29035182495D+04
 Largest amplitude= 2.85D-02
 Discarding MO integrals.
 Leave Link  913 at Mon Apr  6 15:42:16 2020, MaxMem=  2147483648 cpu:             859.5 elap:              53.8
 (Enter /usr/local/g16/g16/l601.exe)
 Copying SCF densities to generalized density rwf, IOpCl= 0 IROHF=0.

 **********************************************************************

            Population analysis using the SCF density.

 **********************************************************************

 Orbital symmetries:
       Occupied  (A1) (A1) (A1) (B2) (B1) (A1) (B2) (A1) (A1) (B2)
                 (B1) (A1) (B2) (B1) (A2) (A1) (A1) (B2) (A1) (A1)
                 (B1) (A1) (B2) (A1) (B2) (B1) (A2)
       Virtual   (A1) (B2) (A1) (A1) (B2) (B1) (A1) (B2) (B2) (B1)
                 (A1) (A1) (A2) (B1) (B2) (B2) (A1) (A1) (B2) (B1)
                 (A2) (A1) (A1) (A2) (B2) (A1) (B2) (B2) (A1) (B2)
                 (B1) (A1) (B1) (A1) (B2) (B1) (A1) (A1) (A2) (A2)
                 (A1) (B2) (B1) (A2) (A1) (B1) (B2) (A1) (B2) (A1)
                 (A1) (B1) (A1) (B1) (B2) (A2) (B2) (B2) (A1) (B2)
                 (B1) (A2) (A1) (B2) (B1) (A1) (A2) (B2) (A2) (B2)
                 (A1) (B1) (B2) (A1) (A2) (A1) (B2) (B1) (A1) (B2)
                 (A1) (B1) (A1) (A2) (B1) (B2) (A1) (A1) (B2) (B1)
                 (A2) (A1) (B2) (A1) (B2) (B1) (A2) (A1) (B2) (A1)
                 (B1) (B2) (A1) (B2) (B1) (A2) (A1) (B2) (B1) (B1)
                 (B2) (A2) (A2) (A1) (A1) (B2) (B2) (A2) (B2) (A1)
                 (B2) (A1) (B1) (B1) (A1) (B1) (A2) (A1) (A2) (B2)
                 (A2) (A1) (A1) (B2) (B2) (A1) (B1) (A1) (B2) (A2)
                 (B2) (B2) (A1) (B1) (A1) (B2) (B1) (A1) (A2) (B2)
                 (A1) (B1) (A2) (A1) (B1) (B1) (B2) (A2) (A2) (A1)
                 (B2) (A2) (A1) (B2) (B2) (A1) (B2) (B2) (A1) (B2)
 The electronic state is 1-A1.
 Alpha  occ. eigenvalues -- -520.16721 -69.90464 -63.01120 -63.01120 -63.01120
 Alpha  occ. eigenvalues --  -20.63488 -20.63461 -10.85122  -8.33322  -8.33322
 Alpha  occ. eigenvalues --   -8.33322  -3.82698  -3.82698  -3.82698  -3.82698
 Alpha  occ. eigenvalues --   -3.82698  -1.47340  -1.22057  -1.15486  -0.77065
 Alpha  occ. eigenvalues --   -0.63039  -0.59950  -0.58046  -0.52605  -0.52603
 Alpha  occ. eigenvalues --   -0.52603  -0.46245
 Alpha virt. eigenvalues --    0.02572   0.04147   0.10298   0.10412   0.10420
 Alpha virt. eigenvalues --    0.10420   0.12380   0.14028   0.15917   0.16565
 Alpha virt. eigenvalues --    0.17559   0.19333   0.20056   0.24925   0.27715
 Alpha virt. eigenvalues --    0.27967   0.28041   0.30313   0.30315   0.30315
 Alpha virt. eigenvalues --    0.30318   0.30318   0.31005   0.33446   0.36236
 Alpha virt. eigenvalues --    0.40945   0.44248   0.46637   0.55653   0.55660
 Alpha virt. eigenvalues --    0.55660   0.60863   0.67387   0.68753   0.69622
 Alpha virt. eigenvalues --    0.71212   0.73171   0.74297   0.80494   0.83617
 Alpha virt. eigenvalues --    0.84302   0.84302   0.84303   0.84305   0.84305
 Alpha virt. eigenvalues --    0.84632   0.86037   0.86382   0.88874   0.91188
 Alpha virt. eigenvalues --    0.97487   0.98317   0.98455   0.99069   1.00354
 Alpha virt. eigenvalues --    1.00481   1.04033   1.06424   1.14700   1.14700
 Alpha virt. eigenvalues --    1.14700   1.14701   1.14701   1.14703   1.14703
 Alpha virt. eigenvalues --    1.14813   1.16570   1.20198   1.31967   1.38721
 Alpha virt. eigenvalues --    1.41478   1.48301   1.52305   1.53164   1.59814
 Alpha virt. eigenvalues --    1.68541   1.70941   1.90812   1.94598   2.03285
 Alpha virt. eigenvalues --    2.07352   2.10724   2.17353   2.26563   2.31028
 Alpha virt. eigenvalues --    2.32159   2.35270   2.36136   2.36138   2.36138
 Alpha virt. eigenvalues --    2.40568   2.44009   2.46002   2.51563   2.51563
 Alpha virt. eigenvalues --    2.51563   2.51565   2.51565   2.52542   2.55788
 Alpha virt. eigenvalues --    2.59371   2.65668   2.69387   2.69387   2.69387
 Alpha virt. eigenvalues --    2.69387   2.69387   2.69388   2.69388   2.72079
 Alpha virt. eigenvalues --    2.81266   2.84592   2.87593   2.88860   3.06517
 Alpha virt. eigenvalues --    3.08853   3.22082   3.28877   3.30245   3.62449
 Alpha virt. eigenvalues --    3.89680   3.91633   4.07597   4.10025   4.21699
 Alpha virt. eigenvalues --    4.27105   4.29364   4.33389   4.34181   4.36381
 Alpha virt. eigenvalues --    4.48992   4.51847   4.67181   4.75866   4.98095
 Alpha virt. eigenvalues --    5.17580   5.25966   5.26078   5.27196   5.40948
 Alpha virt. eigenvalues --    5.43519   5.87752   6.11089   6.28524   6.37772
 Alpha virt. eigenvalues --    6.39252   6.58166   6.66903   6.79918   6.91278
 Alpha virt. eigenvalues --    7.01001   7.08768   7.10423   7.14743   7.15961
 Alpha virt. eigenvalues --    7.22448   7.23534   7.25840   7.29799   7.35997
 Alpha virt. eigenvalues --    7.42846   7.61372   7.61703   7.67954   7.99050
 Alpha virt. eigenvalues --    8.34614   8.44706   8.54511  14.13320  15.38065
          Condensed to atoms (all electrons):
               1          2          3          4          5
     1  O    8.098068  -0.121414   0.234464   0.030077   0.000000
     2  O   -0.121414   8.098068   0.030077   0.234464   0.000000
     3  H    0.234464   0.030077   0.507587  -0.013322  -0.000000
     4  H    0.030077   0.234464  -0.013322   0.507587  -0.000000
     5  Kr   0.000000   0.000000  -0.000000  -0.000000  36.000000
 Mulliken charges:
               1
     1  O   -0.241194
     2  O   -0.241194
     3  H    0.241194
     4  H    0.241194
     5  Kr  -0.000000
 Sum of Mulliken charges =  -0.00000
 Mulliken charges with hydrogens summed into heavy atoms:
               1
     1  O    0.000000
     2  O    0.000000
     5  Kr  -0.000000
         Mulliken charges condensed to fragments:
      1      0.000000
      2     -0.000000
 Electronic spatial extent (au):  <R**2>=           9665.9297
 Charge=             -0.0000 electrons
 Dipole moment (field-independent basis, Debye):
    X=             -0.0000    Y=              0.0000    Z=              3.2750  Tot=              3.2750
 Quadrupole moment (field-independent basis, Debye-Ang):
   XX=            -30.6149   YY=            -28.1913   ZZ=            -91.7940
   XY=              0.0000   XZ=              0.0000   YZ=              0.0000
 Traceless Quadrupole moment (field-independent basis, Debye-Ang):
   XX=             19.5852   YY=             22.0088   ZZ=            -41.5939
   XY=              0.0000   XZ=              0.0000   YZ=              0.0000
 Octapole moment (field-independent basis, Debye-Ang**2):
  XXX=              0.0000  YYY=             -0.0000  ZZZ=            980.1416  XYY=              0.0000
  XXY=              0.0000  XXZ=             40.2427  XZZ=             -0.0000  YZZ=              0.0000
  YYZ=             20.2136  XYZ=             -0.0000
 Hexadecapole moment (field-independent basis, Debye-Ang**3):
 XXXX=            -28.8942 YYYY=            -62.9467 ZZZZ=         -21022.5927 XXXY=             -0.0000
 XXXZ=             -0.0000 YYYX=             -0.0000 YYYZ=             -0.0000 ZZZX=             -0.0000
 ZZZY=              0.0000 XXYY=            -17.1977 XXZZ=          -1725.4772 YYZZ=          -1570.4822
 XXYZ=             -0.0000 YYXZ=             -0.0000 ZZXY=             -0.0000
 N-N= 5.966211813540D+01 E-N=-7.060017403509D+03  KE= 2.902595660306D+03
 Symmetry A1   KE= 2.058538517342D+03
 Symmetry A2   KE= 5.313346644505D+01
 Symmetry B1   KE= 3.631509554448D+02
 Symmetry B2   KE= 4.277727210736D+02
 Leave Link  601 at Mon Apr  6 15:42:16 2020, MaxMem=  2147483648 cpu:               0.7 elap:               0.1
 (Enter /usr/local/g16/g16/l122.exe)
 CPIOFr:  IOpCl= 0 IRwI=-1 IRwCP=  731 ICalc= -1 LCPTot=       59414 Len1MO=      159453 IndFrg=       59414
 CPIOFr:  IOpCl= 0 IRwI=-1 IRwCP=  731 ICalc=  0 LCPTot=       59414 Len1MO=      159453 IndFrg=      218867
 Counterpoise: doing calculation for fragment   1 using the basis set of the full-system, NewBq=T
 Leave Link  122 at Mon Apr  6 15:42:16 2020, MaxMem=  2147483648 cpu:               0.0 elap:               0.0
 (Enter /usr/local/g16/g16/l301.exe)
 Basis read from rwf:  (5D, 7F)
 No pseudopotential information found on rwf file.
 There are    86 symmetry adapted cartesian basis functions of A1  symmetry.
 There are    31 symmetry adapted cartesian basis functions of A2  symmetry.
 There are    41 symmetry adapted cartesian basis functions of B1  symmetry.
 There are    71 symmetry adapted cartesian basis functions of B2  symmetry.
 There are    71 symmetry adapted basis functions of A1  symmetry.
 There are    29 symmetry adapted basis functions of A2  symmetry.
 There are    37 symmetry adapted basis functions of B1  symmetry.
 There are    60 symmetry adapted basis functions of B2  symmetry.
   197 basis functions,   415 primitive gaussians,   229 cartesian basis functions
     9 alpha electrons        9 beta electrons
       nuclear repulsion energy        36.6667525571 Hartrees.
 IExCor=    0 DFT=F Ex=HF Corr=None ExCW=0 ScaHFX=  1.000000
 ScaDFX=  1.000000  1.000000  1.000000  1.000000 ScalE2=  1.000000  1.000000
 IRadAn=      5 IRanWt=     -1 IRanGd=            0 ICorTp=0 IEmpDi=  4
 NAtoms=    5 NActive=    5 NUniq=    3 SFac= 2.78D+00 NAtFMM=   60 NAOKFM=F Big=F
 Integral buffers will be    131072 words long.
 Raffenetti 1 integral format.
 Two-electron integral symmetry is turned on.
 No density basis found on file   718.
 Leave Link  301 at Mon Apr  6 15:42:16 2020, MaxMem=  2147483648 cpu:               0.4 elap:               0.0
 (Enter /usr/local/g16/g16/l302.exe)
 NPDir=0 NMtPBC=     1 NCelOv=     1 NCel=       1 NClECP=     1 NCelD=      1
         NCelK=      1 NCelE2=     1 NClLst=     1 CellRange=     0.0.
 One-electron integrals computed using PRISM.
 One-electron integral symmetry used in STVInt
 NBasis=   197 RedAO= T EigKep=  1.88D-04  NBF=    71    29    37    60
 NBsUse=   197 1.00D-06 EigRej= -1.00D+00 NBFU=    71    29    37    60
 Leave Link  302 at Mon Apr  6 15:42:16 2020, MaxMem=  2147483648 cpu:               1.5 elap:               0.1
 (Enter /usr/local/g16/g16/l303.exe)
 DipDrv:  MaxL=1.
 Leave Link  303 at Mon Apr  6 15:42:16 2020, MaxMem=  2147483648 cpu:               0.4 elap:               0.0
 (Enter /usr/local/g16/g16/l401.exe)
 ExpMin= 2.53D-02 ExpMax= 1.17D+07 ExpMxC= 1.33D+04 IAcc=3 IRadAn=         5 AccDes= 0.00D+00
 Harris functional with IExCor=  205 and IRadAn=       5 diagonalized for initial guess.
 HarFok:  IExCor=  205 AccDes= 0.00D+00 IRadAn=         5 IDoV= 1 UseB2=F ITyADJ=14
 ICtDFT=  3500011 ScaDFX=  1.000000  1.000000  1.000000  1.000000
 FoFCou: FMM=F IPFlag=           0 FMFlag=      100000 FMFlg1=           0
         NFxFlg=           0 DoJE=T BraDBF=F KetDBF=T FulRan=T
         wScrn=  0.000000 ICntrl=       500 IOpCl=  0 I1Cent=   200000004 NGrid=           0
         NMat0=    1 NMatS0=      1 NMatT0=    0 NMatD0=    1 NMtDS0=    0 NMtDT0=    0
 Petite list used in FoFCou.
 Harris En= -150.932157638495    
 JPrj=0 DoOrth=F DoCkMO=F.
 Initial guess orbital symmetries:
       Occupied  (B2) (A1) (A1) (B2) (A1) (A1) (B1) (B2) (A2)
       Virtual   (B2) (A1) (B2) (A1) (B1) (A1) (A1) (B2) (B2) (A1)
                 (B1) (B2) (A1) (A2) (B1) (A1) (B2) (A1) (A2) (B2)
                 (A1) (B2) (B2) (A1) (B1) (B2) (A1) (A1) (B1) (A2)
                 (B2) (A1) (A1) (B1) (B1) (A1) (B2) (A1) (A2) (B1)
                 (A2) (B2) (A1) (B2) (A1) (A1) (B1) (B1) (B2) (A1)
                 (A2) (B2) (B2) (A1) (A2) (B2) (A2) (A1) (B2) (B1)
                 (A1) (B2) (A1) (B1) (A1) (A1) (B1) (A2) (B2) (A1)
                 (B2) (A1) (B2) (A1) (A2) (B1) (B1) (B2) (A2) (A1)
                 (B2) (B1) (A1) (A1) (B2) (B1) (A1) (A2) (B2) (B1)
                 (A1) (A2) (A1) (B2) (B2) (A1) (B1) (B2) (B1) (B2)
                 (A2) (A2) (A1) (A1) (B2) (B2) (A2) (B2) (A1) (A1)
                 (B1) (B2) (A1) (B1) (B2) (A1) (B1) (A2) (A1) (B1)
                 (A2) (B2) (A1) (A1) (B2) (A2) (B1) (B1) (B2) (A1)
                 (B1) (A2) (A1) (B2) (A2) (A1) (A1) (B2) (B2) (A1)
                 (A1) (B1) (B2) (B2) (A2) (B2) (A1) (B1) (A1) (B2)
                 (B1) (A1) (A2) (B2) (B1) (A1) (A1) (A2) (B1) (B2)
                 (B1) (A2) (A2) (A1) (B2) (A2) (A1) (B2) (B2) (A1)
                 (B2) (B2) (A1) (A1) (B2) (B1) (B2) (A1) (A2) (B1)
                 (A1) (B2) (A1) (A1) (B1) (B2) (A1) (A1)
 The electronic state of the initial guess is 1-A1.
 Leave Link  401 at Mon Apr  6 15:42:17 2020, MaxMem=  2147483648 cpu:               2.3 elap:               0.1
 (Enter /usr/local/g16/g16/l502.exe)
 Keep R1 ints in memory in symmetry-blocked form, NReq=238417312.
 FoFCou: FMM=F IPFlag=           0 FMFlag=           0 FMFlg1=           0
         NFxFlg=           0 DoJE=F BraDBF=F KetDBF=F FulRan=T
         wScrn=  0.000000 ICntrl=       600 IOpCl=  0 I1Cent=           0 NGrid=           0
         NMat0=    1 NMatS0=  19503 NMatT0=    0 NMatD0=    1 NMtDS0=    0 NMtDT0=    0
 Petite list used in FoFCou.
 Closed shell SCF:
 Using DIIS extrapolation, IDIIS=  1040.
 NGot=  2147483648 LenX=  2099150232 LenY=  2099097350
 Requested convergence on RMS density matrix=1.00D-08 within 128 cycles.
 Requested convergence on MAX density matrix=1.00D-06.
 Requested convergence on             energy=1.00D-06.
 No special actions if energy rises.

 Cycle   1  Pass 1  IDiag  1:
 E= -150.761252459361    
 DIIS: error= 3.67D-02 at cycle   1 NSaved=   1.
 NSaved= 1 IEnMin= 1 EnMin= -150.761252459361     IErMin= 1 ErrMin= 3.67D-02
 ErrMax= 3.67D-02  0.00D+00 EMaxC= 1.00D-01 BMatC= 2.31D-01 BMatP= 2.31D-01
 IDIUse=3 WtCom= 6.33D-01 WtEn= 3.67D-01
 Coeff-Com:  0.100D+01
 Coeff-En:   0.100D+01
 Coeff:      0.100D+01
 Gap=     0.464 Goal=   None    Shift=    0.000
 GapD=    0.464 DampG=2.000 DampE=0.500 DampFc=1.0000 IDamp=-1.
 RMSDP=8.94D-04 MaxDP=2.90D-02              OVMax= 6.96D-02

 Cycle   2  Pass 1  IDiag  1:
 E= -150.816695339155     Delta-E=       -0.055442879794 Rises=F Damp=F
 DIIS: error= 1.41D-02 at cycle   2 NSaved=   2.
 NSaved= 2 IEnMin= 2 EnMin= -150.816695339155     IErMin= 2 ErrMin= 1.41D-02
 ErrMax= 1.41D-02  0.00D+00 EMaxC= 1.00D-01 BMatC= 1.81D-02 BMatP= 2.31D-01
 IDIUse=3 WtCom= 8.59D-01 WtEn= 1.41D-01
 Coeff-Com:  0.118D+00 0.882D+00
 Coeff-En:   0.000D+00 0.100D+01
 Coeff:      0.102D+00 0.898D+00
 Gap=     0.517 Goal=   None    Shift=    0.000
 RMSDP=5.60D-04 MaxDP=2.55D-02 DE=-5.54D-02 OVMax= 3.04D-02

 Cycle   3  Pass 1  IDiag  1:
 E= -150.825929651018     Delta-E=       -0.009234311863 Rises=F Damp=F
 DIIS: error= 4.65D-03 at cycle   3 NSaved=   3.
 NSaved= 3 IEnMin= 3 EnMin= -150.825929651018     IErMin= 3 ErrMin= 4.65D-03
 ErrMax= 4.65D-03  0.00D+00 EMaxC= 1.00D-01 BMatC= 2.68D-03 BMatP= 1.81D-02
 IDIUse=3 WtCom= 9.53D-01 WtEn= 4.65D-02
 Coeff-Com: -0.212D-01 0.257D+00 0.764D+00
 Coeff-En:   0.000D+00 0.000D+00 0.100D+01
 Coeff:     -0.202D-01 0.245D+00 0.775D+00
 Gap=     0.486 Goal=   None    Shift=    0.000
 RMSDP=1.32D-04 MaxDP=4.83D-03 DE=-9.23D-03 OVMax= 1.04D-02

 Cycle   4  Pass 1  IDiag  1:
 E= -150.827610123667     Delta-E=       -0.001680472649 Rises=F Damp=F
 DIIS: error= 4.55D-04 at cycle   4 NSaved=   4.
 NSaved= 4 IEnMin= 4 EnMin= -150.827610123667     IErMin= 4 ErrMin= 4.55D-04
 ErrMax= 4.55D-04  0.00D+00 EMaxC= 1.00D-01 BMatC= 1.76D-05 BMatP= 2.68D-03
 IDIUse=3 WtCom= 9.95D-01 WtEn= 4.55D-03
 Coeff-Com: -0.190D-02-0.121D-01 0.124D-01 0.100D+01
 Coeff-En:   0.000D+00 0.000D+00 0.000D+00 0.100D+01
 Coeff:     -0.189D-02-0.121D-01 0.123D-01 0.100D+01
 Gap=     0.488 Goal=   None    Shift=    0.000
 RMSDP=1.71D-05 MaxDP=4.50D-04 DE=-1.68D-03 OVMax= 1.39D-03

 Cycle   5  Pass 1  IDiag  1:
 E= -150.827634094497     Delta-E=       -0.000023970830 Rises=F Damp=F
 DIIS: error= 1.38D-04 at cycle   5 NSaved=   5.
 NSaved= 5 IEnMin= 5 EnMin= -150.827634094497     IErMin= 5 ErrMin= 1.38D-04
 ErrMax= 1.38D-04  0.00D+00 EMaxC= 1.00D-01 BMatC= 1.57D-06 BMatP= 1.76D-05
 IDIUse=3 WtCom= 9.99D-01 WtEn= 1.38D-03
 Coeff-Com:  0.175D-02-0.170D-01-0.592D-01-0.154D+00 0.123D+01
 Coeff-En:   0.000D+00 0.000D+00 0.000D+00 0.000D+00 0.100D+01
 Coeff:      0.175D-02-0.170D-01-0.591D-01-0.153D+00 0.123D+01
 Gap=     0.488 Goal=   None    Shift=    0.000
 RMSDP=9.15D-06 MaxDP=2.93D-04 DE=-2.40D-05 OVMax= 8.25D-04

 Cycle   6  Pass 1  IDiag  1:
 E= -150.827637727706     Delta-E=       -0.000003633209 Rises=F Damp=F
 DIIS: error= 3.02D-05 at cycle   6 NSaved=   6.
 NSaved= 6 IEnMin= 6 EnMin= -150.827637727706     IErMin= 6 ErrMin= 3.02D-05
 ErrMax= 3.02D-05  0.00D+00 EMaxC= 1.00D-01 BMatC= 6.23D-08 BMatP= 1.57D-06
 IDIUse=1 WtCom= 1.00D+00 WtEn= 0.00D+00
 Coeff-Com: -0.450D-03 0.534D-02 0.192D-01 0.283D-01-0.459D+00 0.141D+01
 Coeff:     -0.450D-03 0.534D-02 0.192D-01 0.283D-01-0.459D+00 0.141D+01
 Gap=     0.488 Goal=   None    Shift=    0.000
 RMSDP=2.52D-06 MaxDP=7.80D-05 DE=-3.63D-06 OVMax= 2.35D-04

 Cycle   7  Pass 1  IDiag  1:
 E= -150.827637901137     Delta-E=       -0.000000173430 Rises=F Damp=F
 DIIS: error= 5.29D-06 at cycle   7 NSaved=   7.
 NSaved= 7 IEnMin= 7 EnMin= -150.827637901137     IErMin= 7 ErrMin= 5.29D-06
 ErrMax= 5.29D-06  0.00D+00 EMaxC= 1.00D-01 BMatC= 1.67D-09 BMatP= 6.23D-08
 IDIUse=1 WtCom= 1.00D+00 WtEn= 0.00D+00
 Coeff-Com:  0.649D-04-0.941D-03-0.366D-02-0.119D-02 0.833D-01-0.353D+00
 Coeff-Com:  0.128D+01
 Coeff:      0.649D-04-0.941D-03-0.366D-02-0.119D-02 0.833D-01-0.353D+00
 Coeff:      0.128D+01
 Gap=     0.488 Goal=   None    Shift=    0.000
 RMSDP=3.91D-07 MaxDP=1.06D-05 DE=-1.73D-07 OVMax= 4.11D-05

 Cycle   8  Pass 1  IDiag  1:
 E= -150.827637905612     Delta-E=       -0.000000004475 Rises=F Damp=F
 DIIS: error= 2.01D-06 at cycle   8 NSaved=   8.
 NSaved= 8 IEnMin= 8 EnMin= -150.827637905612     IErMin= 8 ErrMin= 2.01D-06
 ErrMax= 2.01D-06  0.00D+00 EMaxC= 1.00D-01 BMatC= 1.66D-10 BMatP= 1.67D-09
 IDIUse=1 WtCom= 1.00D+00 WtEn= 0.00D+00
 Coeff-Com: -0.627D-05 0.166D-03 0.813D-03-0.155D-02-0.156D-01 0.101D+00
 Coeff-Com: -0.662D+00 0.158D+01
 Coeff:     -0.627D-05 0.166D-03 0.813D-03-0.155D-02-0.156D-01 0.101D+00
 Coeff:     -0.662D+00 0.158D+01
 Gap=     0.488 Goal=   None    Shift=    0.000
 RMSDP=1.39D-07 MaxDP=3.14D-06 DE=-4.48D-09 OVMax= 1.86D-05

 Cycle   9  Pass 1  IDiag  1:
 E= -150.827637906207     Delta-E=       -0.000000000595 Rises=F Damp=F
 DIIS: error= 4.89D-07 at cycle   9 NSaved=   9.
 NSaved= 9 IEnMin= 9 EnMin= -150.827637906207     IErMin= 9 ErrMin= 4.89D-07
 ErrMax= 4.89D-07  0.00D+00 EMaxC= 1.00D-01 BMatC= 9.62D-12 BMatP= 1.66D-10
 IDIUse=1 WtCom= 1.00D+00 WtEn= 0.00D+00
 Coeff-Com: -0.197D-06-0.269D-04-0.180D-03 0.865D-03 0.209D-02-0.222D-01
 Coeff-Com:  0.200D+00-0.677D+00 0.150D+01
 Coeff:     -0.197D-06-0.269D-04-0.180D-03 0.865D-03 0.209D-02-0.222D-01
 Coeff:      0.200D+00-0.677D+00 0.150D+01
 Gap=     0.488 Goal=   None    Shift=    0.000
 RMSDP=3.68D-08 MaxDP=1.12D-06 DE=-5.95D-10 OVMax= 5.19D-06

 Cycle  10  Pass 1  IDiag  1:
 E= -150.827637906242     Delta-E=       -0.000000000035 Rises=F Damp=F
 DIIS: error= 8.70D-08 at cycle  10 NSaved=  10.
 NSaved=10 IEnMin=10 EnMin= -150.827637906242     IErMin=10 ErrMin= 8.70D-08
 ErrMax= 8.70D-08  0.00D+00 EMaxC= 1.00D-01 BMatC= 3.97D-13 BMatP= 9.62D-12
 IDIUse=1 WtCom= 1.00D+00 WtEn= 0.00D+00
 Coeff-Com:  0.603D-06-0.489D-05-0.241D-05-0.121D-03 0.260D-03 0.628D-04
 Coeff-Com: -0.171D-01 0.108D+00-0.476D+00 0.138D+01
 Coeff:      0.603D-06-0.489D-05-0.241D-05-0.121D-03 0.260D-03 0.628D-04
 Coeff:     -0.171D-01 0.108D+00-0.476D+00 0.138D+01
 Gap=     0.488 Goal=   None    Shift=    0.000
 RMSDP=7.73D-09 MaxDP=2.32D-07 DE=-3.51D-11 OVMax= 9.73D-07

 SCF Done:  E(RHF) =  -150.827637906     A.U. after   10 cycles
            NFock= 10  Conv=0.77D-08     -V/T= 2.0019
 KE= 1.505475534654D+02 PE=-4.315224768392D+02 EE= 9.348053291045D+01
 Leave Link  502 at Mon Apr  6 15:42:18 2020, MaxMem=  2147483648 cpu:              23.6 elap:               1.6
 (Enter /usr/local/g16/g16/l801.exe)
 Windowed orbitals will be sorted by symmetry type.
 ExpMin= 2.53D-02 ExpMax= 1.17D+07 ExpMxC= 1.33D+04 IAcc=3 IRadAn=         5 AccDes= 0.00D+00
 HarFok:  IExCor=  205 AccDes= 0.00D+00 IRadAn=         5 IDoV=-2 UseB2=F ITyADJ=14
 ICtDFT= 12500011 ScaDFX=  1.000000  1.000000  1.000000  1.000000
 Largest valence mixing into a core orbital is  1.19D-04
 Largest core mixing into a valence orbital is  2.08D-05
 Range of M.O.s used for correlation:     3   197
 NBasis=   197 NAE=     9 NBE=     9 NFC=     2 NFV=     0
 NROrb=    195 NOA=     7 NOB=     7 NVA=   188 NVB=   188

 **** Warning!!: The largest alpha MO coefficient is  0.17412671D+02

 Leave Link  801 at Mon Apr  6 15:42:18 2020, MaxMem=  2147483648 cpu:               0.5 elap:               0.0
 (Enter /usr/local/g16/g16/l804.exe)
 Closed-shell transformation, MDV=  2147483648 ITran=4 ISComp=2.
 Semi-Direct transformation.
 ModeAB=           4 MOrb=             7 LenV=    2146364376
 LASXX=      6401074 LTotXX=     6401074 LenRXX=    12911978
 LTotAB=     6510904 MaxLAS=    13367445 LenRXY=           0
 NonZer=    19313052 LenScr=    29748224 LnRSAI=    13367445
 LnScr1=    20818944 LExtra=           0 Total=     76846591
 MaxDsk=          -1 SrtSym=           T ITran=            4
 DoSDTr:  NPSUse= 16
 JobTyp=0 Pass  1:  I=   1 to   7.
 (rs|ai) integrals will be sorted in core.
 Complete sort for first half transformation.
 First half transformation complete.
 Complete sort for second half transformation.
 Second half transformation complete.
 Spin components of T(2) and E(2):
     alpha-alpha T2 =       0.1606640952D-01 E2=     -0.6286192858D-01
     alpha-beta  T2 =       0.9337052836D-01 E2=     -0.3818384091D+00
     beta-beta   T2 =       0.1606640952D-01 E2=     -0.6286192858D-01
 ANorm=    0.1060897425D+01
 E2 =    -0.5075622662D+00 EUMP2 =    -0.15133520017246D+03
 Leave Link  804 at Mon Apr  6 15:42:20 2020, MaxMem=  2147483648 cpu:              33.7 elap:               2.1
 (Enter /usr/local/g16/g16/l913.exe)
 CIDS:  MDV=  2147483648.
 Frozen-core window:  NFC=   2 NFV=   0.
 IFCWin=0 IBDFC=1 NFBD=     0     0 NFCmp=     0     0 NFFFC=     0     0
 Using DD3R+UMP44R for 1st iteration.
 Using DD4RQ for 2nd and later iterations.
 Keep R2 and R3 ints in memory in symmetry-blocked form, NReq=238422928.
 FoFCou: FMM=F IPFlag=           0 FMFlag=           0 FMFlg1=           0
         NFxFlg=           0 DoJE=F BraDBF=F KetDBF=F FulRan=T
         wScrn=  0.000000 ICntrl=       600 IOpCl=  0 I1Cent=           0 NGrid=           0
         NMat0=    1 NMatS0=  19503 NMatT0=    0 NMatD0=    1 NMtDS0=    0 NMtDT0=    0
 Petite list used in FoFCou.
 CIDS: In Core Option IDoMem=           1.
 MP4(SDTQ)
 =========
 Produce multiple copies of IABC intergrals
 DD1Dir will call FoFMem   1 times, MxPair=        56
 NAB=    28 NAA=     0 NBB=     0.
 MP4(D)= -0.11206256D-01
 MP4(S)= -0.52103105D-02
 MP4(R+Q)=  0.10822539D-01
 IPart= 13 IA=   11   10.38% done.
 IPart= 13 IA=   21   20.20% done.
 IPart=  1 IA=   32   30.33% done.
 IPart=  5 IA=   44   40.61% done.
 IPart=  1 IA=   56   50.06% done.
 IPart= 11 IA=   70   60.06% done.
 IPart= 15 IA=   86   70.12% done.
 IPart= 12 IA=  105   80.17% done.
 IPart=  6 IA=  130   90.27% done.
 Time for triples=      288.53 seconds.
 MP4(T)=   -0.21962818D-01
 E3=       -0.20608799D-02        EUMP3=      -0.15133726105D+03
 E4(DQ)=   -0.38371733D-03        UMP4(DQ)=   -0.15133764477D+03
 E4(SDQ)=  -0.55940278D-02        UMP4(SDQ)=  -0.15134285508D+03
 E4(SDTQ)= -0.27556846D-01        UMP4(SDTQ)= -0.15136481790D+03
 VARIATIONAL ENERGIES WITH THE FIRST-ORDER WAVEFUNCTION:
 E(VAR1)=  -0.15128043367D+03     E(CISD,4)=  -0.15128997686D+03
 Largest amplitude= 2.85D-02
 Discarding MO integrals.
 Leave Link  913 at Mon Apr  6 15:42:40 2020, MaxMem=  2147483648 cpu:             317.7 elap:              19.9
 (Enter /usr/local/g16/g16/l601.exe)
 Copying SCF densities to generalized density rwf, IOpCl= 0 IROHF=0.

 **********************************************************************

            Population analysis using the SCF density.

 **********************************************************************

 Orbital symmetries:
       Occupied  (A1) (B2) (A1) (B2) (A1) (B1) (A1) (B2) (A2)
       Virtual   (A1) (B2) (A1) (A1) (B2) (B1) (A1) (B2) (B2) (B1)
                 (A1) (A1) (A2) (B1) (B2) (B2) (A1) (A1) (A1) (A2)
                 (A1) (B2) (B1) (B2) (A1) (B2) (B1) (A2) (A1) (A1)
                 (B2) (B2) (A1) (B1) (A1) (B2) (B1) (A1) (A2) (A2)
                 (B1) (B2) (A1) (B2) (A1) (A1) (B1) (A1) (B1) (B2)
                 (A2) (B2) (B2) (A1) (B2) (B1) (A1) (A1) (A2) (B2)
                 (A1) (B2) (B1) (A2) (A1) (A2) (A1) (B2) (B1) (A2)
                 (A1) (B2) (B1) (B2) (A1) (B1) (B2) (A1) (A2) (A1)
                 (B2) (B1) (A1) (B2) (A1) (B1) (A1) (A2) (B1) (B2)
                 (A1) (A2) (A1) (B2) (B2) (A1) (B1) (B2) (B1) (B2)
                 (A2) (A2) (A1) (A1) (B2) (A1) (B2) (A1) (B2) (B1)
                 (A2) (B2) (A1) (A1) (B2) (B1) (A2) (A1) (A1) (B2)
                 (B1) (A2) (A1) (B2) (B1) (B2) (B1) (B1) (A1) (B1)
                 (A2) (A1) (A2) (B2) (A2) (A1) (A1) (B2) (B2) (A1)
                 (B1) (A1) (B2) (A2) (B2) (B2) (A1) (B1) (A1) (B2)
                 (B1) (A1) (A2) (B2) (A1) (B1) (A2) (A1) (B1) (B1)
                 (B2) (A2) (A2) (A1) (B2) (A2) (A1) (B2) (B2) (A1)
                 (B2) (B2) (A1) (A1) (A1) (B2) (B1) (B2) (A1) (B2)
                 (B1) (A2) (A1) (A1) (A1) (B2) (B1) (A1)
 The electronic state is 1-A1.
 Alpha  occ. eigenvalues --  -20.63488 -20.63461  -1.47340  -1.22057  -0.77065
 Alpha  occ. eigenvalues --   -0.63039  -0.59951  -0.58046  -0.46245
 Alpha virt. eigenvalues --    0.02572   0.04147   0.06305   0.08767   0.08781
 Alpha virt. eigenvalues --    0.08781   0.12380   0.14027   0.15916   0.16565
 Alpha virt. eigenvalues --    0.17559   0.19333   0.20056   0.24925   0.27715
 Alpha virt. eigenvalues --    0.27966   0.28041   0.31005   0.33043   0.33446
 Alpha virt. eigenvalues --    0.36203   0.36210   0.36210   0.36236   0.39169
 Alpha virt. eigenvalues --    0.39171   0.39171   0.39175   0.39175   0.40945
 Alpha virt. eigenvalues --    0.44248   0.46636   0.60862   0.67387   0.68753
 Alpha virt. eigenvalues --    0.69622   0.71211   0.73171   0.80493   0.83617
 Alpha virt. eigenvalues --    0.84631   0.86037   0.86381   0.88874   0.91188
 Alpha virt. eigenvalues --    0.97487   0.98317   0.98455   0.99069   1.00353
 Alpha virt. eigenvalues --    1.00481   1.04033   1.06424   1.13407   1.13411
 Alpha virt. eigenvalues --    1.13411   1.14813   1.16457   1.16569   1.20197
 Alpha virt. eigenvalues --    1.29154   1.29155   1.29155   1.29157   1.29157
 Alpha virt. eigenvalues --    1.31967   1.32838   1.32838   1.32838   1.32839
 Alpha virt. eigenvalues --    1.32839   1.32841   1.32841   1.38721   1.41478
 Alpha virt. eigenvalues --    1.48300   1.52305   1.53164   1.59814   1.68541
 Alpha virt. eigenvalues --    1.70940   1.90812   1.94598   2.03285   2.07351
 Alpha virt. eigenvalues --    2.10724   2.17353   2.26563   2.31027   2.32158
 Alpha virt. eigenvalues --    2.35269   2.40568   2.44008   2.46002   2.52542
 Alpha virt. eigenvalues --    2.55788   2.59371   2.65668   2.72079   2.81266
 Alpha virt. eigenvalues --    2.84592   2.87593   2.88860   3.06517   3.08852
 Alpha virt. eigenvalues --    3.21155   3.22082   3.25392   3.25393   3.25393
 Alpha virt. eigenvalues --    3.28877   3.30245   3.62449   3.77909   3.77909
 Alpha virt. eigenvalues --    3.77909   3.77910   3.77910   3.82589   3.82589
 Alpha virt. eigenvalues --    3.82589   3.82589   3.82589   3.82590   3.82590
 Alpha virt. eigenvalues --    3.89680   4.07597   4.10025   4.21699   4.27105
 Alpha virt. eigenvalues --    4.29364   4.33388   4.34181   4.36381   4.48992
 Alpha virt. eigenvalues --    4.51846   4.67181   4.75866   4.98095   5.17580
 Alpha virt. eigenvalues --    5.25965   5.26078   5.27196   5.40947   5.43519
 Alpha virt. eigenvalues --    5.87752   6.11089   6.28523   6.37772   6.39251
 Alpha virt. eigenvalues --    6.58166   6.66903   6.79917   6.91278   7.01001
 Alpha virt. eigenvalues --    7.08768   7.10422   7.14743   7.15960   7.22448
 Alpha virt. eigenvalues --    7.23534   7.25840   7.29799   7.35997   7.42845
 Alpha virt. eigenvalues --    7.61372   7.61703   7.67953   7.99050   8.34614
 Alpha virt. eigenvalues --    8.44706   8.54510  10.14842  14.13320  14.82841
 Alpha virt. eigenvalues --   14.82842  14.82842  15.38065  29.02300  29.02300
 Alpha virt. eigenvalues --   29.02300  29.02300  29.02300  48.56955 148.30031
 Alpha virt. eigenvalues --  148.30031 148.30031 750.88984
          Condensed to atoms (all electrons):
               1          2          3          4          5
     1  O    8.098067  -0.121414   0.234464   0.030077   0.000000
     2  O   -0.121414   8.098067   0.030077   0.234464   0.000000
     3  H    0.234464   0.030077   0.507587  -0.013322  -0.000000
     4  H    0.030077   0.234464  -0.013322   0.507587  -0.000000
     5  Kr   0.000000   0.000000  -0.000000  -0.000000   0.000000
 Mulliken charges:
               1
     1  O   -0.241194
     2  O   -0.241194
     3  H    0.241194
     4  H    0.241194
     5  Kr   0.000000
 Sum of Mulliken charges =  -0.00000
 Mulliken charges with hydrogens summed into heavy atoms:
               1
     1  O   -0.000000
     2  O   -0.000000
     5  Kr   0.000000
         Mulliken charges condensed to fragments:
      1     -0.000000
      2      0.000000
 Electronic spatial extent (au):  <R**2>=           6456.0485
 Charge=              0.0000 electrons
 Dipole moment (field-independent basis, Debye):
    X=             -0.0000    Y=             -0.0000    Z=              3.2700  Tot=              3.2700
 Quadrupole moment (field-independent basis, Debye-Ang):
   XX=            -12.8805   YY=            -10.4569   ZZ=            -74.1094
   XY=              0.0000   XZ=              0.0000   YZ=              0.0000
 Traceless Quadrupole moment (field-independent basis, Debye-Ang):
   XX=             19.6017   YY=             22.0254   ZZ=            -41.6271
   XY=              0.0000   XZ=              0.0000   YZ=              0.0000
 Octapole moment (field-independent basis, Debye-Ang**2):
  XXX=              0.0000  YYY=              0.0000  ZZZ=           1243.9678  XYY=              0.0000
  XXY=              0.0000  XXZ=            128.3076  XZZ=             -0.0000  YZZ=             -0.0000
  YYZ=            108.2786  XYZ=             -0.0000
 Hexadecapole moment (field-independent basis, Debye-Ang**3):
 XXXX=            -10.3573 YYYY=            -44.4098 ZZZZ=         -18382.5620 XXXY=             -0.0000
 XXXZ=             -0.0000 YYYX=             -0.0000 YYYZ=              0.0000 ZZZX=             -0.0000
 ZZZY=              0.0000 XXYY=            -11.0187 XXZZ=          -1281.9859 YYZZ=          -1126.9906
 XXYZ=              0.0000 YYXZ=             -0.0000 ZZXY=             -0.0000
 N-N= 3.666675255711D+01 E-N=-4.315224769671D+02  KE= 1.505475534654D+02
 Symmetry A1   KE= 7.186981926525D+01
 Symmetry A2   KE= 5.334336555504D+00
 Symmetry B1   KE= 4.360813382755D+00
 Symmetry B2   KE= 6.898258426184D+01
 Leave Link  601 at Mon Apr  6 15:42:40 2020, MaxMem=  2147483648 cpu:               0.7 elap:               0.1
 (Enter /usr/local/g16/g16/l122.exe)
 CPIOFr:  IOpCl= 0 IRwI=-1 IRwCP=  731 ICalc=  1 LCPTot=       59414 Len1MO=      159453 IndFrg=      378320
 Counterpoise: doing calculation for fragment   2 using the basis set of the full-system, NewBq=T
 Leave Link  122 at Mon Apr  6 15:42:40 2020, MaxMem=  2147483648 cpu:               0.0 elap:               0.0
 (Enter /usr/local/g16/g16/l301.exe)
 Basis read from rwf:  (5D, 7F)
 No pseudopotential information found on rwf file.
 There are    86 symmetry adapted cartesian basis functions of A1  symmetry.
 There are    31 symmetry adapted cartesian basis functions of A2  symmetry.
 There are    41 symmetry adapted cartesian basis functions of B1  symmetry.
 There are    71 symmetry adapted cartesian basis functions of B2  symmetry.
 There are    71 symmetry adapted basis functions of A1  symmetry.
 There are    29 symmetry adapted basis functions of A2  symmetry.
 There are    37 symmetry adapted basis functions of B1  symmetry.
 There are    60 symmetry adapted basis functions of B2  symmetry.
   197 basis functions,   415 primitive gaussians,   229 cartesian basis functions
    18 alpha electrons       18 beta electrons
       nuclear repulsion energy         0.0000000000 Hartrees.
 IExCor=    0 DFT=F Ex=HF Corr=None ExCW=0 ScaHFX=  1.000000
 ScaDFX=  1.000000  1.000000  1.000000  1.000000 ScalE2=  1.000000  1.000000
 IRadAn=      5 IRanWt=     -1 IRanGd=            0 ICorTp=0 IEmpDi=  4
 NAtoms=    5 NActive=    5 NUniq=    3 SFac= 2.78D+00 NAtFMM=   60 NAOKFM=F Big=F
 Integral buffers will be    131072 words long.
 Raffenetti 1 integral format.
 Two-electron integral symmetry is turned on.
 No density basis found on file   718.
 Leave Link  301 at Mon Apr  6 15:42:41 2020, MaxMem=  2147483648 cpu:               0.4 elap:               0.0
 (Enter /usr/local/g16/g16/l302.exe)
 NPDir=0 NMtPBC=     1 NCelOv=     1 NCel=       1 NClECP=     1 NCelD=      1
         NCelK=      1 NCelE2=     1 NClLst=     1 CellRange=     0.0.
 One-electron integrals computed using PRISM.
 One-electron integral symmetry used in STVInt
 NBasis=   197 RedAO= T EigKep=  1.88D-04  NBF=    71    29    37    60
 NBsUse=   197 1.00D-06 EigRej= -1.00D+00 NBFU=    71    29    37    60
 Leave Link  302 at Mon Apr  6 15:42:41 2020, MaxMem=  2147483648 cpu:               1.5 elap:               0.1
 (Enter /usr/local/g16/g16/l303.exe)
 DipDrv:  MaxL=1.
 Leave Link  303 at Mon Apr  6 15:42:41 2020, MaxMem=  2147483648 cpu:               0.5 elap:               0.0
 (Enter /usr/local/g16/g16/l401.exe)
 ExpMin= 2.53D-02 ExpMax= 1.17D+07 ExpMxC= 1.33D+04 IAcc=3 IRadAn=         5 AccDes= 0.00D+00
 Harris functional with IExCor=  205 and IRadAn=       5 diagonalized for initial guess.
 HarFok:  IExCor=  205 AccDes= 0.00D+00 IRadAn=         5 IDoV= 1 UseB2=F ITyADJ=14
 ICtDFT=  3500011 ScaDFX=  1.000000  1.000000  1.000000  1.000000
 FoFCou: FMM=F IPFlag=           0 FMFlag=      100000 FMFlg1=           0
         NFxFlg=           0 DoJE=T BraDBF=F KetDBF=T FulRan=T
         wScrn=  0.000000 ICntrl=       500 IOpCl=  0 I1Cent=   200000004 NGrid=           0
         NMat0=    1 NMatS0=      1 NMatT0=    0 NMatD0=    1 NMtDS0=    0 NMtDT0=    0
 Petite list used in FoFCou.
 Harris En= -2751.05937167640    
 JPrj=0 DoOrth=F DoCkMO=F.
 Initial guess orbital symmetries:
       Occupied  (A1) (A1) (A1) (B1) (B2) (A1) (B1) (B2) (A1) (A2)
                 (B1) (B2) (A1) (A1) (A1) (B1) (B2) (A1)
       Virtual   (A1) (A1) (B2) (B1) (A1) (B2) (A1) (A2) (B1) (B2)
                 (A1) (A1) (B1) (A1) (B2) (B2) (A2) (A1) (A1) (B1)
                 (B2) (A1) (B1) (B2) (A1) (B2) (A2) (A1) (B2) (B2)
                 (A1) (A1) (A2) (A1) (B1) (B2) (A1) (B1) (A1) (B2)
                 (A2) (A1) (B1) (B1) (A1) (B2) (B2) (B1) (A2) (A1)
                 (B1) (A1) (B2) (B2) (A1) (A2) (B2) (A1) (B1) (A1)
                 (B2) (A2) (B1) (B2) (A1) (A2) (B2) (A1) (A2) (B2)
                 (A1) (B2) (B2) (B1) (A1) (A1) (A2) (B2) (B1) (B2)
                 (A1) (B2) (A2) (A1) (B2) (B1) (A1) (A1) (B1) (A1)
                 (B2) (B2) (B1) (A2) (A1) (B1) (A1) (B1) (A1) (B1)
                 (B2) (A2) (A1) (A2) (B2) (B1) (A2) (B2) (A1) (B1)
                 (A1) (B2) (A1) (A2) (B2) (B1) (A1) (A2) (B2) (A1)
                 (B2) (A1) (B2) (B2) (A2) (A1) (B1) (A1) (B2) (A2)
                 (B2) (B1) (A1) (A1) (A2) (B2) (B2) (B1) (A1) (A2)
                 (A1) (B2) (B2) (A1) (B2) (B1) (A1) (B1) (A1) (A2)
                 (B2) (A1) (B1) (A2) (B2) (A1) (A2) (B2) (B2) (A1)
                 (B2) (B1) (B1) (A1) (A2) (B2) (A2) (B2) (A1) (B1)
                 (A1) (A2) (A1) (B2) (B2) (A1) (B2) (A1) (B2)
 The electronic state of the initial guess is 1-A1.
 Leave Link  401 at Mon Apr  6 15:42:41 2020, MaxMem=  2147483648 cpu:               2.2 elap:               0.1
 (Enter /usr/local/g16/g16/l502.exe)
 Keep R1 ints in memory in symmetry-blocked form, NReq=238417312.
 FoFCou: FMM=F IPFlag=           0 FMFlag=           0 FMFlg1=           0
         NFxFlg=           0 DoJE=F BraDBF=F KetDBF=F FulRan=T
         wScrn=  0.000000 ICntrl=       600 IOpCl=  0 I1Cent=           0 NGrid=           0
         NMat0=    1 NMatS0=  19503 NMatT0=    0 NMatD0=    1 NMtDS0=    0 NMtDT0=    0
 Petite list used in FoFCou.
 Closed shell SCF:
 Using DIIS extrapolation, IDIIS=  1040.
 NGot=  2147483648 LenX=  2099150232 LenY=  2099097350
 Requested convergence on RMS density matrix=1.00D-08 within 128 cycles.
 Requested convergence on MAX density matrix=1.00D-06.
 Requested convergence on             energy=1.00D-06.
 No special actions if energy rises.

 Cycle   1  Pass 1  IDiag  1:
 E= -2752.00429364349    
 DIIS: error= 1.21D-01 at cycle   1 NSaved=   1.
 NSaved= 1 IEnMin= 1 EnMin= -2752.00429364349     IErMin= 1 ErrMin= 1.21D-01
 ErrMax= 1.21D-01  0.00D+00 EMaxC= 1.00D-01 BMatC= 4.05D-01 BMatP= 4.05D-01
 IDIUse=3 WtCom= 0.00D+00 WtEn= 1.00D+00
 Coeff-Com:  0.100D+01
 Coeff-En:   0.100D+01
 Coeff:      0.100D+01
 Gap=     0.657 Goal=   None    Shift=    0.000
 GapD=    0.657 DampG=2.000 DampE=0.250 DampFc=0.5000 IDamp=-1.
 Damping current iteration by 5.00D-01
 RMSDP=1.44D-03 MaxDP=1.16D-01              OVMax= 2.38D-02

 Cycle   2  Pass 1  IDiag  1:
 E= -2752.03028263927     Delta-E=       -0.025988995783 Rises=F Damp=T
 DIIS: error= 5.68D-02 at cycle   2 NSaved=   2.
 NSaved= 2 IEnMin= 2 EnMin= -2752.03028263927     IErMin= 2 ErrMin= 5.68D-02
 ErrMax= 5.68D-02  0.00D+00 EMaxC= 1.00D-01 BMatC= 7.15D-02 BMatP= 4.05D-01
 IDIUse=3 WtCom= 4.32D-01 WtEn= 5.68D-01
 Coeff-Com: -0.682D+00 0.168D+01
 Coeff-En:   0.000D+00 0.100D+01
 Coeff:     -0.295D+00 0.129D+01
 Gap=     0.548 Goal=   None    Shift=    0.000
 RMSDP=4.52D-04 MaxDP=3.50D-02 DE=-2.60D-02 OVMax= 9.79D-03

 Cycle   3  Pass 1  IDiag  1:
 E= -2752.05215737503     Delta-E=       -0.021874735751 Rises=F Damp=F
 DIIS: error= 1.62D-03 at cycle   3 NSaved=   3.
 NSaved= 3 IEnMin= 3 EnMin= -2752.05215737503     IErMin= 3 ErrMin= 1.62D-03
 ErrMax= 1.62D-03  0.00D+00 EMaxC= 1.00D-01 BMatC= 2.39D-04 BMatP= 7.15D-02
 IDIUse=3 WtCom= 9.84D-01 WtEn= 1.62D-02
 Coeff-Com:  0.123D+00-0.248D+00 0.113D+01
 Coeff-En:   0.000D+00 0.000D+00 0.100D+01
 Coeff:      0.121D+00-0.244D+00 0.112D+01
 Gap=     0.552 Goal=   None    Shift=    0.000
 RMSDP=5.86D-05 MaxDP=3.70D-03 DE=-2.19D-02 OVMax= 1.63D-03

 Cycle   4  Pass 1  IDiag  1:
 E= -2752.05222277794     Delta-E=       -0.000065402915 Rises=F Damp=F
 DIIS: error= 1.30D-04 at cycle   4 NSaved=   4.
 NSaved= 4 IEnMin= 4 EnMin= -2752.05222277794     IErMin= 4 ErrMin= 1.30D-04
 ErrMax= 1.30D-04  0.00D+00 EMaxC= 1.00D-01 BMatC= 3.05D-07 BMatP= 2.39D-04
 IDIUse=3 WtCom= 9.99D-01 WtEn= 1.30D-03
 Coeff-Com: -0.743D-02 0.141D-01-0.934D-01 0.109D+01
 Coeff-En:   0.000D+00 0.000D+00 0.000D+00 0.100D+01
 Coeff:     -0.742D-02 0.141D-01-0.933D-01 0.109D+01
 Gap=     0.552 Goal=   None    Shift=    0.000
 RMSDP=4.52D-06 MaxDP=2.40D-04 DE=-6.54D-05 OVMax= 2.40D-04

 Cycle   5  Pass 1  IDiag  1:
 E= -2752.05222307103     Delta-E=       -0.000000293089 Rises=F Damp=F
 DIIS: error= 9.18D-06 at cycle   5 NSaved=   5.
 NSaved= 5 IEnMin= 5 EnMin= -2752.05222307103     IErMin= 5 ErrMin= 9.18D-06
 ErrMax= 9.18D-06  0.00D+00 EMaxC= 1.00D-01 BMatC= 4.82D-09 BMatP= 3.05D-07
 IDIUse=1 WtCom= 1.00D+00 WtEn= 0.00D+00
 Coeff-Com: -0.120D-02 0.252D-02-0.600D-02-0.822D-01 0.109D+01
 Coeff:     -0.120D-02 0.252D-02-0.600D-02-0.822D-01 0.109D+01
 Gap=     0.552 Goal=   None    Shift=    0.000
 RMSDP=5.50D-07 MaxDP=2.36D-05 DE=-2.93D-07 OVMax= 2.75D-05

 Cycle   6  Pass 1  IDiag  1:
 E= -2752.05222307621     Delta-E=       -0.000000005184 Rises=F Damp=F
 DIIS: error= 1.06D-06 at cycle   6 NSaved=   6.
 NSaved= 6 IEnMin= 6 EnMin= -2752.05222307621     IErMin= 6 ErrMin= 1.06D-06
 ErrMax= 1.06D-06  0.00D+00 EMaxC= 1.00D-01 BMatC= 4.96D-11 BMatP= 4.82D-09
 IDIUse=1 WtCom= 1.00D+00 WtEn= 0.00D+00
 Coeff-Com:  0.190D-03-0.387D-03 0.107D-02-0.428D-03-0.104D+00 0.110D+01
 Coeff:      0.190D-03-0.387D-03 0.107D-02-0.428D-03-0.104D+00 0.110D+01
 Gap=     0.552 Goal=   None    Shift=    0.000
 RMSDP=4.25D-08 MaxDP=3.42D-06 DE=-5.18D-09 OVMax= 3.32D-06

 Cycle   7  Pass 1  IDiag  1:
 E= -2752.05222307624     Delta-E=       -0.000000000030 Rises=F Damp=F
 DIIS: error= 4.75D-08 at cycle   7 NSaved=   7.
 NSaved= 7 IEnMin= 7 EnMin= -2752.05222307624     IErMin= 7 ErrMin= 4.75D-08
 ErrMax= 4.75D-08  0.00D+00 EMaxC= 1.00D-01 BMatC= 1.96D-13 BMatP= 4.96D-11
 IDIUse=1 WtCom= 1.00D+00 WtEn= 0.00D+00
 Coeff-Com: -0.235D-04 0.476D-04-0.117D-03 0.257D-03 0.992D-02-0.128D+00
 Coeff-Com:  0.112D+01
 Coeff:     -0.235D-04 0.476D-04-0.117D-03 0.257D-03 0.992D-02-0.128D+00
 Coeff:      0.112D+01
 Gap=     0.552 Goal=   None    Shift=    0.000
 RMSDP=3.38D-09 MaxDP=2.24D-07 DE=-3.05D-11 OVMax= 1.21D-07

 SCF Done:  E(RHF) =  -2752.05222308     A.U. after    7 cycles
            NFock=  7  Conv=0.34D-08     -V/T= 2.0000
 KE= 2.752048107712D+03 PE=-6.582565268606D+03 EE= 1.078464937817D+03
 Leave Link  502 at Mon Apr  6 15:42:42 2020, MaxMem=  2147483648 cpu:              21.8 elap:               1.5
 (Enter /usr/local/g16/g16/l801.exe)
 Windowed orbitals will be sorted by symmetry type.
 ExpMin= 2.53D-02 ExpMax= 1.17D+07 ExpMxC= 1.33D+04 IAcc=3 IRadAn=         5 AccDes= 0.00D+00
 HarFok:  IExCor=  205 AccDes= 0.00D+00 IRadAn=         5 IDoV=-2 UseB2=F ITyADJ=14
 ICtDFT= 12500011 ScaDFX=  1.000000  1.000000  1.000000  1.000000
 Largest valence mixing into a core orbital is  9.79D-05
 Largest core mixing into a valence orbital is  3.83D-05
 Range of M.O.s used for correlation:    10   197
 NBasis=   197 NAE=    18 NBE=    18 NFC=     9 NFV=     0
 NROrb=    188 NOA=     9 NOB=     9 NVA=   179 NVB=   179

 **** Warning!!: The largest alpha MO coefficient is  0.14890733D+02

 Leave Link  801 at Mon Apr  6 15:42:42 2020, MaxMem=  2147483648 cpu:               0.5 elap:               0.0
 (Enter /usr/local/g16/g16/l804.exe)
 Closed-shell transformation, MDV=  2147483648 ITran=4 ISComp=2.
 Semi-Direct transformation.
 ModeAB=           4 MOrb=             9 LenV=    2146418888
 LASXX=      7296131 LTotXX=     7296131 LenRXX=    14720061
 LTotAB=     7423930 MaxLAS=    16569756 LenRXY=           0
 NonZer=    22016192 LenScr=    33794560 LnRSAI=    16569756
 LnScr1=    25631232 LExtra=           0 Total=     90715609
 MaxDsk=          -1 SrtSym=           T ITran=            4
 DoSDTr:  NPSUse= 16
 JobTyp=0 Pass  1:  I=   1 to   9.
 (rs|ai) integrals will be sorted in core.
 Complete sort for first half transformation.
 First half transformation complete.
 Complete sort for second half transformation.
 Second half transformation complete.
 Spin components of T(2) and E(2):
     alpha-alpha T2 =       0.9484485207D-02 E2=     -0.3552398026D-01
     alpha-beta  T2 =       0.4799866965D-01 E2=     -0.1708433112D+00
     beta-beta   T2 =       0.9484485207D-02 E2=     -0.3552398026D-01
 ANorm=    0.1032941257D+01
 E2 =    -0.2418912717D+00 EUMP2 =    -0.27522941143479D+04
 Leave Link  804 at Mon Apr  6 15:42:45 2020, MaxMem=  2147483648 cpu:              36.8 elap:               2.3
 (Enter /usr/local/g16/g16/l913.exe)
 CIDS:  MDV=  2147483648.
 Frozen-core window:  NFC=   9 NFV=   0.
 IFCWin=0 IBDFC=1 NFBD=     0     0 NFCmp=     0     0 NFFFC=     0     0
 Using DD3R+UMP44R for 1st iteration.
 Using DD4RQ for 2nd and later iterations.
 Keep R2 and R3 ints in memory in symmetry-blocked form, NReq=238423518.
 FoFCou: FMM=F IPFlag=           0 FMFlag=           0 FMFlg1=           0
         NFxFlg=           0 DoJE=F BraDBF=F KetDBF=F FulRan=T
         wScrn=  0.000000 ICntrl=       600 IOpCl=  0 I1Cent=           0 NGrid=           0
         NMat0=    1 NMatS0=  19503 NMatT0=    0 NMatD0=    1 NMtDS0=    0 NMtDT0=    0
 Petite list used in FoFCou.
 CIDS: In Core Option IDoMem=           1.
 MP4(SDTQ)
 =========
 Produce multiple copies of IABC intergrals
 DD1Dir will call FoFMem   1 times, MxPair=        90
 NAB=    45 NAA=     0 NBB=     0.
 MP4(D)= -0.36913093D-02
 MP4(S)= -0.10734540D-02
 MP4(R+Q)=  0.42077928D-02
 IPart= 14 IA=   11   10.89% done.
 IPart= 12 IA=   20   20.16% done.
 IPart=  4 IA=   31   30.79% done.
 IPart= 10 IA=   42   40.66% done.
 IPart= 13 IA=   54   50.57% done.
 IPart=  3 IA=   67   60.28% done.
 IPart=  7 IA=   82   70.17% done.
 IPart=  6 IA=  100   80.16% done.
 IPart=  1 IA=  124   90.33% done.
 Time for triples=      339.47 seconds.
 MP4(T)=   -0.76986616D-02
 E3=       -0.99406390D-02        EUMP3=      -0.27523040550D+04
 E4(DQ)=    0.51648346D-03        UMP4(DQ)=   -0.27523035385D+04
 E4(SDQ)=  -0.55697056D-03        UMP4(SDQ)=  -0.27523046120D+04
 E4(SDTQ)= -0.82556322D-02        UMP4(SDTQ)= -0.27523123106D+04
 VARIATIONAL ENERGIES WITH THE FIRST-ORDER WAVEFUNCTION:
 E(VAR1)=  -0.27522882489D+04     E(CISD,4)=  -0.27522926209D+04
 Largest amplitude= 2.44D-02
 Discarding MO integrals.
 Leave Link  913 at Mon Apr  6 15:43:08 2020, MaxMem=  2147483648 cpu:             371.0 elap:              23.2
 (Enter /usr/local/g16/g16/l601.exe)
 Copying SCF densities to generalized density rwf, IOpCl= 0 IROHF=0.

 **********************************************************************

            Population analysis using the SCF density.

 **********************************************************************

 Orbital symmetries:
       Occupied  (A1) (A1) (B1) (B2) (A1) (A1) (B1) (B2) (A1) (A1)
                 (A2) (B1) (B2) (A1) (A1) (A1) (B2) (B1)
       Virtual   (A1) (B2) (A1) (A1) (B2) (B1) (A1) (B1) (A1) (B2)
                 (B2) (A2) (A1) (A1) (B1) (B2) (A1) (A2) (A1) (B1)
                 (B2) (A1) (B2) (A2) (A1) (B2) (B2) (A1) (B1) (B2)
                 (A1) (B1) (A1) (B2) (A2) (A1) (A1) (B1) (B1) (A1)
                 (B2) (A1) (B1) (B2) (A2) (A1) (B2) (A1) (A2) (B2)
                 (A1) (B1) (A1) (B2) (A2) (B1) (B2) (A1) (A2) (B1)
                 (B2) (A1) (A1) (A2) (B2) (B1) (B2) (A1) (A2) (B2)
                 (A1) (B2) (B2) (B1) (A1) (A1) (A2) (B2) (B2) (A1)
                 (B1) (A1) (B1) (A1) (B1) (B2) (A1) (B1) (B2) (A2)
                 (A1) (A2) (A1) (B1) (B2) (A1) (A2) (B2) (B1) (A2)
                 (B2) (B2) (B1) (A1) (A2) (B1) (B2) (A1) (A1) (B1)
                 (A1) (B2) (A1) (A2) (B2) (B1) (A1) (A2) (B2) (B2)
                 (A1) (B2) (B2) (A2) (A1) (A1) (B1) (A1) (B2) (A2)
                 (B2) (B1) (A1) (A1) (A2) (B2) (B2) (B1) (A1) (A2)
                 (A1) (B2) (B2) (A1) (B2) (B1) (A1) (B1) (A1) (A2)
                 (B2) (A1) (B1) (A2) (B2) (A1) (A2) (B2) (B2) (A1)
                 (B2) (B1) (B1) (A1) (A2) (B2) (A2) (B2) (A1) (B1)
                 (A1) (A2) (A1) (B2) (B2) (A1) (B2) (A1) (B2)
 The electronic state is 1-A1.
 Alpha  occ. eigenvalues -- -520.16551 -69.90294 -63.00951 -63.00951 -63.00951
 Alpha  occ. eigenvalues --  -10.84952  -8.33152  -8.33152  -8.33152  -3.82528
 Alpha  occ. eigenvalues --   -3.82528  -3.82528  -3.82528  -3.82528  -1.15316
 Alpha  occ. eigenvalues --   -0.52434  -0.52434  -0.52434
 Alpha virt. eigenvalues --    0.02748   0.04856   0.10476   0.10584   0.10584
 Alpha virt. eigenvalues --    0.10584   0.11377   0.12835   0.12931   0.13569
 Alpha virt. eigenvalues --    0.17427   0.18080   0.18398   0.26990   0.27319
 Alpha virt. eigenvalues --    0.28443   0.30486   0.30486   0.30486   0.30486
 Alpha virt. eigenvalues --    0.30486   0.33873   0.34374   0.35362   0.35697
 Alpha virt. eigenvalues --    0.39250   0.45543   0.52155   0.55827   0.55827
 Alpha virt. eigenvalues --    0.55827   0.59348   0.64186   0.68490   0.70528
 Alpha virt. eigenvalues --    0.73504   0.74467   0.76346   0.79349   0.80855
 Alpha virt. eigenvalues --    0.82322   0.84473   0.84473   0.84473   0.84473
 Alpha virt. eigenvalues --    0.84473   0.85741   0.86256   0.89058   0.92919
 Alpha virt. eigenvalues --    0.94118   0.96234   1.01175   1.02060   1.03550
 Alpha virt. eigenvalues --    1.04759   1.06311   1.11804   1.13721   1.14871
 Alpha virt. eigenvalues --    1.14871   1.14871   1.14871   1.14871   1.14871
 Alpha virt. eigenvalues --    1.14871   1.22005   1.22713   1.29400   1.40290
 Alpha virt. eigenvalues --    1.45965   1.48366   1.64449   1.66927   1.72488
 Alpha virt. eigenvalues --    1.78107   1.79056   1.85332   1.96302   2.14416
 Alpha virt. eigenvalues --    2.20943   2.31395   2.33837   2.36004   2.36307
 Alpha virt. eigenvalues --    2.36307   2.36307   2.37162   2.44727   2.46402
 Alpha virt. eigenvalues --    2.48969   2.51734   2.51734   2.51734   2.51734
 Alpha virt. eigenvalues --    2.51734   2.55339   2.61474   2.62624   2.66397
 Alpha virt. eigenvalues --    2.68960   2.69557   2.69557   2.69557   2.69557
 Alpha virt. eigenvalues --    2.69557   2.69557   2.69557   2.70147   2.83780
 Alpha virt. eigenvalues --    2.84096   2.87787   3.02334   3.05825   3.11579
 Alpha virt. eigenvalues --    3.21519   3.23645   3.27392   3.27645   3.50331
 Alpha virt. eigenvalues --    3.57206   3.60601   3.87004   3.88109   3.91802
 Alpha virt. eigenvalues --    3.98340   4.42364   4.47898   4.47915   4.62853
 Alpha virt. eigenvalues --    4.71118   4.81319   4.81822   4.93044   4.97043
 Alpha virt. eigenvalues --    4.98372   5.32563   5.50935   5.64888   5.72530
 Alpha virt. eigenvalues --    5.87472   6.02578   6.30218   6.66980   6.95294
 Alpha virt. eigenvalues --    7.24378   7.28009   7.56481   7.63705   7.78018
 Alpha virt. eigenvalues --    7.87829   7.99670   8.11355   8.12188   8.22194
 Alpha virt. eigenvalues --    8.25185   8.29050   8.70859   9.01765   9.42525
 Alpha virt. eigenvalues --    9.73005   9.75146   9.86204   9.87592   9.90991
 Alpha virt. eigenvalues --   10.16082  10.19347  10.74560  10.86843  11.37550
 Alpha virt. eigenvalues --   11.54886  11.60271  11.85868  12.06984  13.27968
 Alpha virt. eigenvalues --   13.50013  14.55499  61.61780  64.75820
          Condensed to atoms (all electrons):
               1          2          3          4          5
     1  O    0.000000   0.000000  -0.000000  -0.000000   0.000000
     2  O    0.000000   0.000000  -0.000000  -0.000000   0.000000
     3  H   -0.000000  -0.000000   0.000000   0.000000  -0.000000
     4  H   -0.000000  -0.000000   0.000000   0.000000  -0.000000
     5  Kr   0.000000   0.000000  -0.000000  -0.000000  36.000000
 Mulliken charges:
               1
     1  O    0.000000
     2  O    0.000000
     3  H    0.000000
     4  H    0.000000
     5  Kr  -0.000000
 Sum of Mulliken charges =  -0.00000
 Mulliken charges with hydrogens summed into heavy atoms:
               1
     1  O    0.000000
     2  O    0.000000
     5  Kr  -0.000000
         Mulliken charges condensed to fragments:
      1      0.000000
      2     -0.000000
 Electronic spatial extent (au):  <R**2>=           3209.9186
 Charge=              0.0000 electrons
 Dipole moment (field-independent basis, Debye):
    X=             -0.0000    Y=              0.0000    Z=             -0.0000  Tot=              0.0000
 Quadrupole moment (field-independent basis, Debye-Ang):
   XX=            -17.7345   YY=            -17.7345   ZZ=            -17.7345
   XY=              0.0000   XZ=             -0.0000   YZ=             -0.0000
 Traceless Quadrupole moment (field-independent basis, Debye-Ang):
   XX=              0.0000   YY=              0.0000   ZZ=             -0.0000
   XY=              0.0000   XZ=             -0.0000   YZ=             -0.0000
 Octapole moment (field-independent basis, Debye-Ang**2):
  XXX=              0.0000  YYY=             -0.0000  ZZZ=           -264.2078  XYY=             -0.0000
  XXY=              0.0000  XXZ=            -88.0693  XZZ=              0.0000  YZZ=              0.0000
  YYZ=            -88.0693  XYZ=              0.0000
 Hexadecapole moment (field-independent basis, Debye-Ang**3):
 XXXX=            -18.5376 YYYY=            -18.5376 ZZZZ=          -2642.6352 XXXY=              0.0000
 XXXZ=             -0.0000 YYYX=              0.0000 YYYZ=              0.0000 ZZZX=             -0.0000
 ZZZY=              0.0000 XXYY=             -6.1792 XXZZ=           -443.5288 YYZZ=           -443.5288
 XXYZ=             -0.0000 YYXZ=             -0.0000 ZZXY=             -0.0000
 N-N= 0.000000000000D+00 E-N=-6.582565277841D+03  KE= 2.752048107712D+03
 Symmetry A1   KE= 1.986668848815D+03
 Symmetry A2   KE= 4.779912676619D+01
 Symmetry B1   KE= 3.587900660652D+02
 Symmetry B2   KE= 3.587900660653D+02
 Leave Link  601 at Mon Apr  6 15:43:08 2020, MaxMem=  2147483648 cpu:               0.7 elap:               0.1
 (Enter /usr/local/g16/g16/l122.exe)
 CPIOFr:  IOpCl= 0 IRwI=-1 IRwCP=  731 ICalc=  2 LCPTot=       59414 Len1MO=      159453 IndFrg=      537773
 Counterpoise: doing calculation for fragment   1 using the basis set of the fragment.
 Leave Link  122 at Mon Apr  6 15:43:08 2020, MaxMem=  2147483648 cpu:               0.0 elap:               0.0
 (Enter /usr/local/g16/g16/l301.exe)
 Basis read from rwf:  (5D, 7F)
 No pseudopotential information found on rwf file.
 There are    55 symmetry adapted cartesian basis functions of A1  symmetry.
 There are    25 symmetry adapted cartesian basis functions of A2  symmetry.
 There are    25 symmetry adapted cartesian basis functions of B1  symmetry.
 There are    55 symmetry adapted cartesian basis functions of B2  symmetry.
 There are    46 symmetry adapted basis functions of A1  symmetry.
 There are    23 symmetry adapted basis functions of A2  symmetry.
 There are    23 symmetry adapted basis functions of B1  symmetry.
 There are    46 symmetry adapted basis functions of B2  symmetry.
   138 basis functions,   198 primitive gaussians,   160 cartesian basis functions
     9 alpha electrons        9 beta electrons
       nuclear repulsion energy        36.6667525571 Hartrees.
 IExCor=    0 DFT=F Ex=HF Corr=None ExCW=0 ScaHFX=  1.000000
 ScaDFX=  1.000000  1.000000  1.000000  1.000000 ScalE2=  1.000000  1.000000
 IRadAn=      5 IRanWt=     -1 IRanGd=            0 ICorTp=0 IEmpDi=  4
 NAtoms=    5 NActive=    4 NUniq=    2 SFac= 4.00D+00 NAtFMM=   60 NAOKFM=F Big=F
 Integral buffers will be    131072 words long.
 Raffenetti 1 integral format.
 Two-electron integral symmetry is turned on.
 No density basis found on file   718.
 Leave Link  301 at Mon Apr  6 15:43:08 2020, MaxMem=  2147483648 cpu:               0.4 elap:               0.0
 (Enter /usr/local/g16/g16/l302.exe)
 NPDir=0 NMtPBC=     1 NCelOv=     1 NCel=       1 NClECP=     1 NCelD=      1
         NCelK=      1 NCelE2=     1 NClLst=     1 CellRange=     0.0.
 One-electron integrals computed using PRISM.
 One-electron integral symmetry used in STVInt
 NBasis=   138 RedAO= T EigKep=  1.88D-04  NBF=    46    23    23    46
 NBsUse=   138 1.00D-06 EigRej= -1.00D+00 NBFU=    46    23    23    46
[...]
 XXXZ=             -0.0000 YYYX=             -0.0000 YYYZ=              0.0000 ZZZX=             -0.0000
 ZZZY=             -0.0000 XXYY=            -11.0187 XXZZ=          -1281.9859 YYZZ=          -1126.9906
 XXYZ=             -0.0000 YYXZ=             -0.0000 ZZXY=             -0.0000
 N-N= 3.666675255711D+01 E-N=-4.315224771193D+02  KE= 1.505475535486D+02
 Symmetry A1   KE= 7.186981935473D+01
 Symmetry A2   KE= 5.334336500056D+00
 Symmetry B1   KE= 4.360813263786D+00
 Symmetry B2   KE= 6.898258443008D+01
 Leave Link  601 at Mon Apr  6 15:43:16 2020, MaxMem=  2147483648 cpu:               0.5 elap:               0.0
 (Enter /usr/local/g16/g16/l122.exe)
 CPIOFr:  IOpCl= 0 IRwI=-1 IRwCP=  731 ICalc=  3 LCPTot=       59414 Len1MO=      159453 IndFrg=      697226
 Counterpoise: doing calculation for fragment   2 using the basis set of the fragment.
 Leave Link  122 at Mon Apr  6 15:43:16 2020, MaxMem=  2147483648 cpu:               0.0 elap:               0.0
 (Enter /usr/local/g16/g16/l301.exe)
 Basis read from rwf:  (5D, 7F)
 No pseudopotential information found on rwf file.
 There are    31 symmetry adapted cartesian basis functions of A1  symmetry.
 There are     6 symmetry adapted cartesian basis functions of A2  symmetry.
 There are    16 symmetry adapted cartesian basis functions of B1  symmetry.
 There are    16 symmetry adapted cartesian basis functions of B2  symmetry.
 There are    25 symmetry adapted basis functions of A1  symmetry.
 There are     6 symmetry adapted basis functions of A2  symmetry.
 There are    14 symmetry adapted basis functions of B1  symmetry.
 There are    14 symmetry adapted basis functions of B2  symmetry.
    59 basis functions,   217 primitive gaussians,    69 cartesian basis functions
    18 alpha electrons       18 beta electrons
       nuclear repulsion energy         0.0000000000 Hartrees.
 IExCor=    0 DFT=F Ex=HF Corr=None ExCW=0 ScaHFX=  1.000000
 ScaDFX=  1.000000  1.000000  1.000000  1.000000 ScalE2=  1.000000  1.000000
 IRadAn=      5 IRanWt=     -1 IRanGd=            0 ICorTp=0 IEmpDi=  4
 NAtoms=    5 NActive=    1 NUniq=    1 SFac= 1.00D+00 NAtFMM=   60 NAOKFM=F Big=F
 Integral buffers will be    131072 words long.
 Raffenetti 1 integral format.
 Two-electron integral symmetry is turned on.
 No density basis found on file   718.
 Leave Link  301 at Mon Apr  6 15:43:16 2020, MaxMem=  2147483648 cpu:               0.4 elap:               0.0
 (Enter /usr/local/g16/g16/l302.exe)
 NPDir=0 NMtPBC=     1 NCelOv=     1 NCel=       1 NClECP=     1 NCelD=      1
         NCelK=      1 NCelE2=     1 NClLst=     1 CellRange=     0.0.
 One-electron integrals computed using PRISM.
 One-electron integral symmetry used in STVInt
 NBasis=    59 RedAO= T EigKep=  1.06D-02  NBF=    25     6    14    14
 NBsUse=    59 1.00D-06 EigRej= -1.00D+00 NBFU=    25     6    14    14
 Leave Link  302 at Mon Apr  6 15:43:16 2020, MaxMem=  2147483648 cpu:               1.4 elap:               0.1
 (Enter /usr/local/g16/g16/l303.exe)
 DipDrv:  MaxL=1.
 Leave Link  303 at Mon Apr  6 15:43:16 2020, MaxMem=  2147483648 cpu:               0.3 elap:               0.0
 (Enter /usr/local/g16/g16/l401.exe)
 ExpMin= 4.00D-02 ExpMax= 1.17D+07 ExpMxC= 1.33D+04 IAcc=3 IRadAn=         5 AccDes= 0.00D+00
 Harris functional with IExCor=  205 and IRadAn=       5 diagonalized for initial guess.
 HarFok:  IExCor=  205 AccDes= 0.00D+00 IRadAn=         5 IDoV= 1 UseB2=F ITyADJ=14
 ICtDFT=  3500011 ScaDFX=  1.000000  1.000000  1.000000  1.000000
 FoFCou: FMM=F IPFlag=           0 FMFlag=      100000 FMFlg1=           0
         NFxFlg=           0 DoJE=T BraDBF=F KetDBF=T FulRan=T
         wScrn=  0.000000 ICntrl=       500 IOpCl=  0 I1Cent=   200000004 NGrid=           0
         NMat0=    1 NMatS0=      1 NMatT0=    0 NMatD0=    1 NMtDS0=    0 NMtDT0=    0
 Petite list used in FoFCou.
 Harris En= -2751.05937170533    
 JPrj=0 DoOrth=F DoCkMO=F.
 Initial guess orbital symmetries:
       Occupied  (A1) (A1) (A1) (B2) (B1) (A1) (A1) (B2) (B1) (B1)
                 (B2) (A2) (A1) (A1) (A1) (A1) (B2) (B1)
       Virtual   (A1) (A1) (B2) (B1) (A2) (B2) (B1) (A1) (A1) (B2)
                 (A1) (B1) (A1) (B1) (B2) (A2) (A1) (A1) (A1) (B1)
                 (B2) (A2) (B1) (B2) (A1) (B2) (A1) (B1) (B1) (A2)
                 (B2) (A1) (A1) (A1) (B1) (B2) (A2) (A1) (B2) (B1)
                 (A1)
 The electronic state of the initial guess is 1-A1.
 Leave Link  401 at Mon Apr  6 15:43:16 2020, MaxMem=  2147483648 cpu:               1.8 elap:               0.1
 (Enter /usr/local/g16/g16/l502.exe)
 Keep R1 ints in memory in symmetry-blocked form, NReq=14297990.
 FoFCou: FMM=F IPFlag=           0 FMFlag=           0 FMFlg1=           0
         NFxFlg=           0 DoJE=F BraDBF=F KetDBF=F FulRan=T
         wScrn=  0.000000 ICntrl=       600 IOpCl=  0 I1Cent=           0 NGrid=           0
         NMat0=    1 NMatS0=   1770 NMatT0=    0 NMatD0=    1 NMtDS0=    0 NMtDT0=    0
 Petite list used in FoFCou.
 Closed shell SCF:
 Using DIIS extrapolation, IDIIS=  1040.
 NGot=  2147483648 LenX=  2147062498 LenY=  2147057296
 Requested convergence on RMS density matrix=1.00D-08 within 128 cycles.
 Requested convergence on MAX density matrix=1.00D-06.
 Requested convergence on             energy=1.00D-06.
 No special actions if energy rises.

 Cycle   1  Pass 1  IDiag  1:
 E= -2752.00429361804    
 DIIS: error= 1.21D-01 at cycle   1 NSaved=   1.
 NSaved= 1 IEnMin= 1 EnMin= -2752.00429361804     IErMin= 1 ErrMin= 1.21D-01
 ErrMax= 1.21D-01  0.00D+00 EMaxC= 1.00D-01 BMatC= 4.05D-01 BMatP= 4.05D-01
 IDIUse=3 WtCom= 0.00D+00 WtEn= 1.00D+00
 Coeff-Com:  0.100D+01
 Coeff-En:   0.100D+01
 Coeff:      0.100D+01
 Gap=     0.657 Goal=   None    Shift=    0.000
 GapD=    0.657 DampG=2.000 DampE=0.250 DampFc=0.5000 IDamp=-1.
 Damping current iteration by 5.00D-01
 RMSDP=4.82D-03 MaxDP=1.16D-01              OVMax= 2.38D-02

 Cycle   2  Pass 1  IDiag  1:
 E= -2752.03028262988     Delta-E=       -0.025989011840 Rises=F Damp=T
 DIIS: error= 5.68D-02 at cycle   2 NSaved=   2.
 NSaved= 2 IEnMin= 2 EnMin= -2752.03028262988     IErMin= 2 ErrMin= 5.68D-02
 ErrMax= 5.68D-02  0.00D+00 EMaxC= 1.00D-01 BMatC= 7.15D-02 BMatP= 4.05D-01
 IDIUse=3 WtCom= 4.32D-01 WtEn= 5.68D-01
 Coeff-Com: -0.682D+00 0.168D+01
 Coeff-En:   0.000D+00 0.100D+01
 Coeff:     -0.295D+00 0.129D+01
 Gap=     0.626 Goal=   None    Shift=    0.000
 RMSDP=1.51D-03 MaxDP=3.50D-02 DE=-2.60D-02 OVMax= 8.24D-03

 Cycle   3  Pass 1  IDiag  1:
 E= -2752.05215737477     Delta-E=       -0.021874744895 Rises=F Damp=F
 DIIS: error= 1.62D-03 at cycle   3 NSaved=   3.
 NSaved= 3 IEnMin= 3 EnMin= -2752.05215737477     IErMin= 3 ErrMin= 1.62D-03
 ErrMax= 1.62D-03  0.00D+00 EMaxC= 1.00D-01 BMatC= 2.39D-04 BMatP= 7.15D-02
 IDIUse=3 WtCom= 9.84D-01 WtEn= 1.62D-02
 Coeff-Com:  0.123D+00-0.248D+00 0.113D+01
 Coeff-En:   0.000D+00 0.000D+00 0.100D+01
 Coeff:      0.121D+00-0.244D+00 0.112D+01
 Gap=     0.629 Goal=   None    Shift=    0.000
 RMSDP=1.96D-04 MaxDP=3.70D-03 DE=-2.19D-02 OVMax= 1.40D-03

 Cycle   4  Pass 1  IDiag  1:
 E= -2752.05222277794     Delta-E=       -0.000065403164 Rises=F Damp=F
 DIIS: error= 1.30D-04 at cycle   4 NSaved=   4.
 NSaved= 4 IEnMin= 4 EnMin= -2752.05222277794     IErMin= 4 ErrMin= 1.30D-04
 ErrMax= 1.30D-04  0.00D+00 EMaxC= 1.00D-01 BMatC= 3.05D-07 BMatP= 2.39D-04
 IDIUse=3 WtCom= 9.99D-01 WtEn= 1.30D-03
 Coeff-Com: -0.743D-02 0.141D-01-0.934D-01 0.109D+01
 Coeff-En:   0.000D+00 0.000D+00 0.000D+00 0.100D+01
 Coeff:     -0.742D-02 0.141D-01-0.933D-01 0.109D+01
 Gap=     0.629 Goal=   None    Shift=    0.000
 RMSDP=1.51D-05 MaxDP=2.40D-04 DE=-6.54D-05 OVMax= 2.29D-04

 Cycle   5  Pass 1  IDiag  1:
 E= -2752.05222307103     Delta-E=       -0.000000293088 Rises=F Damp=F
 DIIS: error= 9.18D-06 at cycle   5 NSaved=   5.
 NSaved= 5 IEnMin= 5 EnMin= -2752.05222307103     IErMin= 5 ErrMin= 9.18D-06
 ErrMax= 9.18D-06  0.00D+00 EMaxC= 1.00D-01 BMatC= 4.82D-09 BMatP= 3.05D-07
 IDIUse=1 WtCom= 1.00D+00 WtEn= 0.00D+00
 Coeff-Com: -0.120D-02 0.252D-02-0.600D-02-0.822D-01 0.109D+01
 Coeff:     -0.120D-02 0.252D-02-0.600D-02-0.822D-01 0.109D+01
 Gap=     0.629 Goal=   None    Shift=    0.000
 RMSDP=1.84D-06 MaxDP=2.36D-05 DE=-2.93D-07 OVMax= 2.72D-05

 Cycle   6  Pass 1  IDiag  1:
 E= -2752.05222307621     Delta-E=       -0.000000005181 Rises=F Damp=F
 DIIS: error= 1.06D-06 at cycle   6 NSaved=   6.
 NSaved= 6 IEnMin= 6 EnMin= -2752.05222307621     IErMin= 6 ErrMin= 1.06D-06
 ErrMax= 1.06D-06  0.00D+00 EMaxC= 1.00D-01 BMatC= 4.96D-11 BMatP= 4.82D-09
 IDIUse=1 WtCom= 1.00D+00 WtEn= 0.00D+00
 Coeff-Com:  0.190D-03-0.387D-03 0.107D-02-0.428D-03-0.104D+00 0.110D+01
 Coeff:      0.190D-03-0.387D-03 0.107D-02-0.428D-03-0.104D+00 0.110D+01
 Gap=     0.629 Goal=   None    Shift=    0.000
 RMSDP=1.42D-07 MaxDP=3.42D-06 DE=-5.18D-09 OVMax= 3.29D-06

 Cycle   7  Pass 1  IDiag  1:
 E= -2752.05222307624     Delta-E=       -0.000000000036 Rises=F Damp=F
 DIIS: error= 4.75D-08 at cycle   7 NSaved=   7.
 NSaved= 7 IEnMin= 7 EnMin= -2752.05222307624     IErMin= 7 ErrMin= 4.75D-08
 ErrMax= 4.75D-08  0.00D+00 EMaxC= 1.00D-01 BMatC= 1.96D-13 BMatP= 4.96D-11
 IDIUse=1 WtCom= 1.00D+00 WtEn= 0.00D+00
 Coeff-Com: -0.235D-04 0.476D-04-0.117D-03 0.257D-03 0.992D-02-0.128D+00
 Coeff-Com:  0.112D+01
 Coeff:     -0.235D-04 0.476D-04-0.117D-03 0.257D-03 0.992D-02-0.128D+00
 Coeff:      0.112D+01
 Gap=     0.629 Goal=   None    Shift=    0.000
 RMSDP=1.13D-08 MaxDP=2.24D-07 DE=-3.64D-11 OVMax= 1.13D-07

 Cycle   8  Pass 1  IDiag  1:
 E= -2752.05222307625     Delta-E=       -0.000000000002 Rises=F Damp=F
 DIIS: error= 4.59D-09 at cycle   8 NSaved=   8.
 NSaved= 8 IEnMin= 8 EnMin= -2752.05222307625     IErMin= 8 ErrMin= 4.59D-09
 ErrMax= 4.59D-09  0.00D+00 EMaxC= 1.00D-01 BMatC= 2.18D-15 BMatP= 1.96D-13
 IDIUse=1 WtCom= 1.00D+00 WtEn= 0.00D+00
 Coeff-Com:  0.119D-05-0.238D-05 0.467D-05-0.414D-04-0.100D-03 0.323D-02
 Coeff-Com: -0.941D-01 0.109D+01
 Coeff:      0.119D-05-0.238D-05 0.467D-05-0.414D-04-0.100D-03 0.323D-02
 Coeff:     -0.941D-01 0.109D+01
 Gap=     0.629 Goal=   None    Shift=    0.000
 RMSDP=9.89D-10 MaxDP=1.17D-08 DE=-1.82D-12 OVMax= 1.36D-08

 SCF Done:  E(RHF) =  -2752.05222308     A.U. after    8 cycles
            NFock=  8  Conv=0.99D-09     -V/T= 2.0000
 KE= 2.752048106926D+03 PE=-6.582565277055D+03 EE= 1.078464947053D+03
 Leave Link  502 at Mon Apr  6 15:43:17 2020, MaxMem=  2147483648 cpu:               9.1 elap:               0.6
 (Enter /usr/local/g16/g16/l801.exe)
 Windowed orbitals will be sorted by symmetry type.
 ExpMin= 4.00D-02 ExpMax= 1.17D+07 ExpMxC= 1.33D+04 IAcc=3 IRadAn=         5 AccDes= 0.00D+00
 HarFok:  IExCor=  205 AccDes= 0.00D+00 IRadAn=         5 IDoV=-2 UseB2=F ITyADJ=14
 ICtDFT= 12500011 ScaDFX=  1.000000  1.000000  1.000000  1.000000
 Largest valence mixing into a core orbital is  9.79D-05
 Largest core mixing into a valence orbital is  3.83D-05
 Range of M.O.s used for correlation:    10    59
 NBasis=    59 NAE=    18 NBE=    18 NFC=     9 NFV=     0
 NROrb=     50 NOA=     9 NOB=     9 NVA=    41 NVB=    41
 Leave Link  801 at Mon Apr  6 15:43:17 2020, MaxMem=  2147483648 cpu:               0.4 elap:               0.0
 (Enter /usr/local/g16/g16/l804.exe)
 Closed-shell transformation, MDV=  2147483648 ITran=4 ISComp=2.
 Semi-Direct transformation.
 ModeAB=           2 MOrb=             9 LenV=    2147139009
 LASXX=       121787 LTotXX=      121787 LenRXX=      121787
 LTotAB=      130285 MaxLAS=     1086750 LenRXY=     1086750
 NonZer=     1162350 LenScr=     2357760 LnRSAI=           0
 LnScr1=           0 LExtra=           0 Total=      3566297
 MaxDsk=          -1 SrtSym=           F ITran=            4
 DoSDTr:  NPSUse= 16
 JobTyp=0 Pass  1:  I=   1 to   9.
 (rs|ai) integrals will be sorted in core.
 Complete sort for first half transformation.
 First half transformation complete.
 Complete sort for second half transformation.
 Second half transformation complete.
 Spin components of T(2) and E(2):
     alpha-alpha T2 =       0.9484485174D-02 E2=     -0.3552398034D-01
     alpha-beta  T2 =       0.4799866949D-01 E2=     -0.1708433113D+00
     beta-beta   T2 =       0.9484485174D-02 E2=     -0.3552398034D-01
 ANorm=    0.1032941257D+01
 E2 =    -0.2418912720D+00 EUMP2 =    -0.27522941143482D+04
 Leave Link  804 at Mon Apr  6 15:43:17 2020, MaxMem=  2147483648 cpu:               5.6 elap:               0.4
 (Enter /usr/local/g16/g16/l913.exe)
 CIDS:  MDV=  2147483648.
 Frozen-core window:  NFC=   9 NFV=   0.
 IFCWin=0 IBDFC=1 NFBD=     0     0 NFCmp=     0     0 NFFFC=     0     0
 Using DD3R+UMP44R for 1st iteration.
 Using DD4RQ for 2nd and later iterations.
 Keep R2 and R3 ints in memory in symmetry-blocked form, NReq=14301252.
 FoFCou: FMM=F IPFlag=           0 FMFlag=           0 FMFlg1=           0
         NFxFlg=           0 DoJE=F BraDBF=F KetDBF=F FulRan=T
         wScrn=  0.000000 ICntrl=       600 IOpCl=  0 I1Cent=           0 NGrid=           0
         NMat0=    1 NMatS0=   1770 NMatT0=    0 NMatD0=    1 NMtDS0=    0 NMtDT0=    0
 Petite list used in FoFCou.
 CIDS: In Core Option IDoMem=           1.
 MP4(SDTQ)
 =========
 Produce multiple copies of IABC intergrals
 DD1Dir will call FoFMem   1 times, MxPair=        90
 NAB=    45 NAA=     0 NBB=     0.
 MP4(D)= -0.36913093D-02
 MP4(S)= -0.10734540D-02
 MP4(R+Q)=  0.42077927D-02
 IPart=  9 IA=    4   14.27% done.
 IPart=  4 IA=    6   23.17% done.
 IPart=  3 IA=    8   31.59% done.
 IPart=  8 IA=   11   43.29% done.
 IPart= 12 IA=   13   50.49% done.
 IPart= 13 IA=   16   60.37% done.
 IPart= 12 IA=   20   71.83% done.
 IPart=  3 IA=   24   81.34% done.
 IPart=  5 IA=   29   90.49% done.
 Time for triples=        5.02 seconds.
 MP4(T)=   -0.76986616D-02
 E3=       -0.99406389D-02        EUMP3=      -0.27523040550D+04
 E4(DQ)=    0.51648341D-03        UMP4(DQ)=   -0.27523035385D+04
 E4(SDQ)=  -0.55697064D-03        UMP4(SDQ)=  -0.27523046120D+04
 E4(SDTQ)= -0.82556322D-02        UMP4(SDTQ)= -0.27523123106D+04
 VARIATIONAL ENERGIES WITH THE FIRST-ORDER WAVEFUNCTION:
 E(VAR1)=  -0.27522882489D+04     E(CISD,4)=  -0.27522926209D+04
 Largest amplitude= 2.41D-02
 Discarding MO integrals.
 Leave Link  913 at Mon Apr  6 15:43:18 2020, MaxMem=  2147483648 cpu:              14.6 elap:               0.9
 (Enter /usr/local/g16/g16/l601.exe)
 Copying SCF densities to generalized density rwf, IOpCl= 0 IROHF=0.

 **********************************************************************

            Population analysis using the SCF density.

 **********************************************************************

 Orbital symmetries:
       Occupied  (A1) (A1) (A1) (B2) (B1) (A1) (B1) (A1) (B2) (B2)
                 (B1) (A2) (A1) (A1) (A1) (B1) (B2) (A1)
       Virtual   (A1) (B1) (B2) (A1) (A2) (B2) (B1) (A1) (A1) (B1)
                 (B2) (A1) (A1) (A1) (A2) (B2) (A1) (B1) (A1) (B1)
                 (B2) (A2) (A1) (B1) (B2) (B1) (B2) (A1) (A1) (B1)
                 (B2) (A2) (A1) (A2) (B1) (B2) (A1) (A1) (B1) (B2)
                 (A1)
 The electronic state is 1-A1.
 Alpha  occ. eigenvalues -- -520.16551 -69.90294 -63.00950 -63.00950 -63.00950
 Alpha  occ. eigenvalues --  -10.84952  -8.33152  -8.33152  -8.33152  -3.82528
 Alpha  occ. eigenvalues --   -3.82528  -3.82528  -3.82528  -3.82528  -1.15316
 Alpha  occ. eigenvalues --   -0.52434  -0.52434  -0.52434
 Alpha virt. eigenvalues --    0.10476   0.10584   0.10584   0.10584   0.30486
 Alpha virt. eigenvalues --    0.30486   0.30486   0.30486   0.30486   0.55827
 Alpha virt. eigenvalues --    0.55827   0.55827   0.74467   0.84473   0.84473
 Alpha virt. eigenvalues --    0.84473   0.84473   0.84473   1.14871   1.14871
 Alpha virt. eigenvalues --    1.14871   1.14871   1.14871   1.14871   1.14871
 Alpha virt. eigenvalues --    2.36307   2.36307   2.36307   2.51734   2.51734
 Alpha virt. eigenvalues --    2.51734   2.51734   2.51734   2.69557   2.69557
 Alpha virt. eigenvalues --    2.69557   2.69557   2.69557   2.69557   2.69557
 Alpha virt. eigenvalues --    3.91802
          Condensed to atoms (all electrons):
               5
     5  Kr  36.000000
 Mulliken charges:
               1
     1  O    0.000000
     2  O    0.000000
     3  H    0.000000
     4  H    0.000000
     5  Kr   0.000000
 Sum of Mulliken charges =   0.00000
 Mulliken charges with hydrogens summed into heavy atoms:
               1
     1  O    0.000000
     2  O    0.000000
     5  Kr   0.000000
         Mulliken charges condensed to fragments:
      1      0.000000
      2      0.000000
 Electronic spatial extent (au):  <R**2>=           3209.9186
 Charge=             -0.0000 electrons
 Dipole moment (field-independent basis, Debye):
    X=              0.0000    Y=             -0.0000    Z=             -0.0000  Tot=              0.0000
 Quadrupole moment (field-independent basis, Debye-Ang):
   XX=            -17.7345   YY=            -17.7345   ZZ=            -17.7345
   XY=              0.0000   XZ=              0.0000   YZ=             -0.0000
 Traceless Quadrupole moment (field-independent basis, Debye-Ang):
   XX=              0.0000   YY=              0.0000   ZZ=             -0.0000
   XY=              0.0000   XZ=              0.0000   YZ=             -0.0000
 Octapole moment (field-independent basis, Debye-Ang**2):
  XXX=              0.0000  YYY=             -0.0000  ZZZ=           -264.2078  XYY=              0.0000
  XXY=             -0.0000  XXZ=            -88.0693  XZZ=              0.0000  YZZ=             -0.0000
  YYZ=            -88.0693  XYZ=              0.0000
 Hexadecapole moment (field-independent basis, Debye-Ang**3):
 XXXX=            -18.5376 YYYY=            -18.5376 ZZZZ=          -2642.6352 XXXY=              0.0000
 XXXZ=              0.0000 YYYX=              0.0000 YYYZ=             -0.0000 ZZZX=              0.0000
 ZZZY=             -0.0000 XXYY=             -6.1792 XXZZ=           -443.5288 YYZZ=           -443.5288
 XXYZ=             -0.0000 YYXZ=              0.0000 ZZXY=              0.0000
 N-N= 0.000000000000D+00 E-N=-6.582565276217D+03  KE= 2.752048106926D+03
 Symmetry A1   KE= 1.986668848383D+03
 Symmetry A2   KE= 4.779912669155D+01
 Symmetry B1   KE= 3.587900659254D+02
 Symmetry B2   KE= 3.587900659254D+02
 Leave Link  601 at Mon Apr  6 15:43:18 2020, MaxMem=  2147483648 cpu:               0.3 elap:               0.0
 (Enter /usr/local/g16/g16/l122.exe)
 CPIOFr:  IOpCl= 0 IRwI=-1 IRwCP=  731 ICalc=  4 LCPTot=       59414 Len1MO=      159453 IndFrg=      856679
 Restoring MOs from calculation   1 to rwf.
 CPIOFr:  IOpCl= 0 IRwI=-2 IRwCP=  731 ICalc=  0 LCPTot=       59414 Len1MO=      159453 IndFrg=      218867
 Counterpoise corrected energy =   -2903.677128900888
                   BSSE energy =      -0.000000001025
              sum of fragments =   -2903.677128518685
           complexation energy =      -0.00 kcal/mole (raw)
           complexation energy =      -0.00 kcal/mole (corrected)
 Leave Link  122 at Mon Apr  6 15:43:18 2020, MaxMem=  2147483648 cpu:               0.1 elap:               0.0
 (Enter /usr/local/g16/g16/l9999.exe)
 1\1\GINC-ARTHUR-MS-7B09\SP\RMP4SDTQ-FC\Aug-CC-pVTZ\H2Kr1O2\MATHEUS\06-
 Apr-2020\0\\#p mp4/aug-cc-PVTz int=ultrafine counterpoise=2\\TCC\\0,1\
 O,0,0.,0.,0.725\O,0,0.,0.,-0.725\H,0,0.,0.9187205947,1.0235104166\H,0,
 0.,0.9187205947,-1.0235104166\Kr,0,0.,15.,0.\\Version=ES64L-G16RevA.03
 \State=1-A1\HF=-2752.0522231\MP2=-2752.2941143\MP3=-2752.304055\MP4D=-
 2752.3077463\MP4DQ=-2752.3035385\MP4SDQ=-2752.304612\MP4SDTQ=-2752.312
 3106\RMSD=9.887e-10\PG=C02V [C2(Kr1),SGV(H2O2)]\\@


 ONE BIG VICE IN A MAN IS APT TO KEEP OUT MANY SMALLER ONES.

                           -- BRET HARTE
 Job cpu time:       0 days  0 hours 31 minutes 58.3 seconds.
 Elapsed time:       0 days  0 hours  2 minutes  0.4 seconds.
 File lengths (MBytes):  RWF=   1260 Int=      0 D2E=      0 Chk=     10 Scr=      1
 Normal termination of Gaussian 16 at Mon Apr  6 15:43:18 2020.
