 Entering Gaussian System, Link 0=g16
 Input=Inputs/H2O2-Kr_33.com
 Output=Logs/H2O2-Kr_33.log
 Initial command:
 /usr/local/g16/g16/l1.exe "/mnt/driveB/scratch/matheus/Gau-112373.inp" -scrdir="/mnt/driveB/scratch/matheus/"
 Entering Link 1 = /usr/local/g16/g16/l1.exe PID=    112375.
  
 Copyright (c) 1988,1990,1992,1993,1995,1998,2003,2009,2016,
            Gaussian, Inc.  All Rights Reserved.
  
 This is part of the Gaussian(R) 16 program.  It is based on
 the Gaussian(R) 09 system (copyright 2009, Gaussian, Inc.),
 the Gaussian(R) 03 system (copyright 2003, Gaussian, Inc.),
 the Gaussian(R) 98 system (copyright 1998, Gaussian, Inc.),
 the Gaussian(R) 94 system (copyright 1995, Gaussian, Inc.),
 the Gaussian 92(TM) system (copyright 1992, Gaussian, Inc.),
 the Gaussian 90(TM) system (copyright 1990, Gaussian, Inc.),
 the Gaussian 88(TM) system (copyright 1988, Gaussian, Inc.),
 the Gaussian 86(TM) system (copyright 1986, Carnegie Mellon
 University), and the Gaussian 82(TM) system (copyright 1983,
 Carnegie Mellon University). Gaussian is a federally registered
 trademark of Gaussian, Inc.
  
 This software contains proprietary and confidential information,
 including trade secrets, belonging to Gaussian, Inc.
  
 This software is provided under written license and may be
 used, copied, transmitted, or stored only in accord with that
 written license.
  
 The following legend is applicable only to US Government
 contracts under FAR:
  
                    RESTRICTED RIGHTS LEGEND
  
 Use, reproduction and disclosure by the US Government is
 subject to restrictions as set forth in subparagraphs (a)
 and (c) of the Commercial Computer Software - Restricted
 Rights clause in FAR 52.227-19.
  
 Gaussian, Inc.
 340 Quinnipiac St., Bldg. 40, Wallingford CT 06492
  
  
 ---------------------------------------------------------------
 Warning -- This program may not be used in any manner that
 competes with the business of Gaussian, Inc. or will provide
 assistance to any competitor of Gaussian, Inc.  The licensee
 of this program is prohibited from giving any competitor of
 Gaussian, Inc. access to this program.  By using this program,
 the user acknowledges that Gaussian, Inc. is engaged in the
 business of creating and licensing software in the field of
 computational chemistry and represents and warrants to the
 licensee that it is not a competitor of Gaussian, Inc. and that
 it will not use this program in any manner prohibited above.
 ---------------------------------------------------------------
  

 Cite this work as:
 Gaussian 16, Revision A.03,
 M. J. Frisch, G. W. Trucks, H. B. Schlegel, G. E. Scuseria, 
 M. A. Robb, J. R. Cheeseman, G. Scalmani, V. Barone, 
 G. A. Petersson, H. Nakatsuji, X. Li, M. Caricato, A. V. Marenich, 
 J. Bloino, B. G. Janesko, R. Gomperts, B. Mennucci, H. P. Hratchian, 
 J. V. Ortiz, A. F. Izmaylov, J. L. Sonnenberg, D. Williams-Young, 
 F. Ding, F. Lipparini, F. Egidi, J. Goings, B. Peng, A. Petrone, 
 T. Henderson, D. Ranasinghe, V. G. Zakrzewski, J. Gao, N. Rega, 
 G. Zheng, W. Liang, M. Hada, M. Ehara, K. Toyota, R. Fukuda, 
 J. Hasegawa, M. Ishida, T. Nakajima, Y. Honda, O. Kitao, H. Nakai, 
 T. Vreven, K. Throssell, J. A. Montgomery, Jr., J. E. Peralta, 
 F. Ogliaro, M. J. Bearpark, J. J. Heyd, E. N. Brothers, K. N. Kudin, 
 V. N. Staroverov, T. A. Keith, R. Kobayashi, J. Normand, 
 K. Raghavachari, A. P. Rendell, J. C. Burant, S. S. Iyengar, 
 J. Tomasi, M. Cossi, J. M. Millam, M. Klene, C. Adamo, R. Cammi, 
 J. W. Ochterski, R. L. Martin, K. Morokuma, O. Farkas, 
 J. B. Foresman, and D. J. Fox, Gaussian, Inc., Wallingford CT, 2016.
 
 ******************************************
 Gaussian 16:  ES64L-G16RevA.03 25-Dec-2016
                 3-Apr-2020 
 ******************************************
 %mem=16GB
 %nproc=16
 Will use up to   16 processors via shared memory.
 ----------------------------------------------------
 #p mp4/aug-cc-PVTz int=ultrafine counterpoise=2 Scan
 ----------------------------------------------------
 1/38=1,60=1,62=2,172=1/1,8;
 2/12=2,17=6,18=5,29=3,40=1/2;
 1/38=1,53=2,62=2,63=1/22;
 3/5=16,6=1,7=10,11=9,25=1,30=1,75=-5/1,2,3;
 4//1;
 5/5=2,38=5/2;
 8/6=4,9=120000,10=1/1,4;
 9/5=5/13;
 6/7=2,8=2,9=2,10=2,18=1/1;
 1/53=2,62=2,63=1/22;
 3/5=7,6=11,7=10,11=9,25=1,30=1,75=-5,82=7/1,2,3;
 4//1;
 5/5=2,38=5/2;
 8/6=4,9=120000,10=1/1,4;
 9/5=5/13;
 6/7=2,8=2,9=2,10=2,18=1/1;
 1/53=2,62=2,63=1/22(-6);
 1/60=1,62=2/8(1);
 99/9=1/99;
 2/29=3/2;
 1/53=3,62=2,63=1/22;
 3/5=7,6=11,7=10,11=9,25=1,30=1,75=-5,82=7/1,2,3;
 4/5=5,16=3,69=1/1;
 5/5=2,38=5/2;
 8/6=4,9=120000,10=1/1,4;
 9/5=5/13;
 1/53=3,62=2,63=1/22(-5);
 1/60=1,62=2/8(-8);
 99/9=1/99;
 Leave Link    1 at Fri Apr  3 14:22:46 2020, MaxMem=  2147483648 cpu:               0.3 elap:               0.0
 (Enter /usr/local/g16/g16/l101.exe)
 ----
 PTCC
 ----
 Symbolic Z-matrix:
 Charge =  0 Multiplicity = 1 in supermolecule
 Charge =  0 Multiplicity = 1 in fragment      1.
 Charge =  0 Multiplicity = 1 in fragment      2.
 O(Fragment=1)         0.        0.        0.725 
 O(Fragment=1)         0.        0.       -0.725 
 H(Fragment=1)        -0.45936   0.79564   1.02351 
 H(Fragment=1)         0.        0.91872  -1.02351 
 Kr(Fragment=2)        0.       R1        0. 
       Variables:
  R1                    3.     Scan 20    0.1    
 
 ITRead=  0  0  0  0  0
 MicOpt= -1 -1 -1 -1 -1
 NAtoms=      5 NQM=        5 NQMF=       0 NMMI=      0 NMMIF=      0
                NMic=       0 NMicF=      0.
                    Isotopes and Nuclear Properties:
 (Nuclear quadrupole moments (NQMom) in fm**2, nuclear magnetic moments (NMagM)
  in nuclear magnetons)

  Atom         1           2           3           4           5
 IAtWgt=          16          16           1           1          84
 AtmWgt=  15.9949146  15.9949146   1.0078250   1.0078250  83.9115064
 NucSpn=           0           0           1           1           0
 AtZEff=  -0.0000000  -0.0000000  -0.0000000  -0.0000000  -0.0000000
 NQMom=    0.0000000   0.0000000   0.0000000   0.0000000   0.0000000
 NMagM=    0.0000000   0.0000000   2.7928460   2.7928460   0.0000000
 AtZNuc=   8.0000000   8.0000000   1.0000000   1.0000000  36.0000000
 Leave Link  101 at Fri Apr  3 14:22:46 2020, MaxMem=  2147483648 cpu:               1.4 elap:               0.1
 (Enter /usr/local/g16/g16/l108.exe)
 Scan the potential surface.
 Variable   Value     No. Steps Step-Size
 -------- ----------- --------- ---------
     1       3.000000      20      0.1000
 A total of     21 points will be computed.
 Leave Link  108 at Fri Apr  3 14:22:46 2020, MaxMem=  2147483648 cpu:               0.0 elap:               0.0
 (Enter /usr/local/g16/g16/l202.exe)
 ---------------------------------------------------------------------------------------------------
                            Z-MATRIX (ANGSTROMS AND DEGREES)
   CD    Cent   Atom    N1       Length/X        N2       Alpha/Y        N3        Beta/Z          J
 ---------------------------------------------------------------------------------------------------
      1      1  O        0   0.000000          0.000000          0.725000
      2      2  O        0   0.000000          0.000000         -0.725000
      3      3  H        0  -0.459360          0.795635          1.023510
      4      4  H        0   0.000000          0.918721         -1.023510
      5      5  Kr       0   0.000000          3.000000          0.000000
 ---------------------------------------------------------------------------------------------------
                         Z-Matrix orientation:                         
 ---------------------------------------------------------------------
 Center     Atomic      Atomic             Coordinates (Angstroms)
 Number     Number       Type             X           Y           Z
 ---------------------------------------------------------------------
      1          8           0        0.000000    0.000000    0.725000
      2          8           0        0.000000    0.000000   -0.725000
      3          1           0       -0.459360    0.795635    1.023510
      4          1           0        0.000000    0.918721   -1.023510
      5         36           0        0.000000    3.000000    0.000000
 ---------------------------------------------------------------------
                    Distance matrix (angstroms):
                    1          2          3          4          5
     1  O    0.000000
     2  O    1.450000   0.000000
     3  H    0.966000   1.975180   0.000000
     4  H    1.975180   0.966000   2.101537   0.000000
     5  Kr   3.086361   3.086361   2.473420   2.319331   0.000000
 Stoichiometry    H2KrO2
 Framework group  C1[X(H2KrO2)]
 Deg. of freedom     9
 Full point group                 C1      NOp   1
 Largest Abelian subgroup         C1      NOp   1
 Largest concise Abelian subgroup C1      NOp   1
                         Standard orientation:                         
 ---------------------------------------------------------------------
 Center     Atomic      Atomic             Coordinates (Angstroms)
 Number     Number       Type             X           Y           Z
 ---------------------------------------------------------------------
      1          8           0       -2.032679   -0.720517   -0.052579
      2          8           0       -2.030654    0.727985    0.013298
      3          1           0       -1.240025   -1.040895    0.397102
      4          1           0       -1.111532    1.024673    0.031898
      5         36           0        0.968284   -0.001209   -0.003188
 ---------------------------------------------------------------------
 Rotational constants (GHZ):          26.4110986           2.3830253           2.1895357
 Leave Link  202 at Fri Apr  3 14:22:46 2020, MaxMem=  2147483648 cpu:               0.0 elap:               0.0
 (Enter /usr/local/g16/g16/l122.exe)
 Counterpoise: doing full-system calculation.
 Leave Link  122 at Fri Apr  3 14:22:46 2020, MaxMem=  2147483648 cpu:               0.0 elap:               0.0
 (Enter /usr/local/g16/g16/l301.exe)
 Standard basis: Aug-CC-pVTZ (5D, 7F)
 Ernie: Thresh=  0.10000D-02 Tol=  0.10000D-05 Strict=F.
 Ernie:  38 primitive shells out of 205 were deleted.
 There are   229 symmetry adapted cartesian basis functions of A   symmetry.
 There are   197 symmetry adapted basis functions of A   symmetry.
   197 basis functions,   415 primitive gaussians,   229 cartesian basis functions
    27 alpha electrons       27 beta electrons
       nuclear repulsion energy       151.3348668345 Hartrees.
 IExCor=    0 DFT=F Ex=HF Corr=None ExCW=0 ScaHFX=  1.000000
 ScaDFX=  1.000000  1.000000  1.000000  1.000000 ScalE2=  1.000000  1.000000
 IRadAn=      5 IRanWt=     -1 IRanGd=            0 ICorTp=0 IEmpDi=  4
 NAtoms=    5 NActive=    5 NUniq=    5 SFac= 1.00D+00 NAtFMM=   60 NAOKFM=F Big=F
 Integral buffers will be    131072 words long.
 Raffenetti 1 integral format.
 Two-electron integral symmetry is turned on.
 Leave Link  301 at Fri Apr  3 14:22:46 2020, MaxMem=  2147483648 cpu:               0.3 elap:               0.0
 (Enter /usr/local/g16/g16/l302.exe)
 NPDir=0 NMtPBC=     1 NCelOv=     1 NCel=       1 NClECP=     1 NCelD=      1
         NCelK=      1 NCelE2=     1 NClLst=     1 CellRange=     0.0.
 One-electron integrals computed using PRISM.
 One-electron integral symmetry used in STVInt
 NBasis=   197 RedAO= T EigKep=  1.72D-04  NBF=   197
 NBsUse=   197 1.00D-06 EigRej= -1.00D+00 NBFU=   197
 Leave Link  302 at Fri Apr  3 14:22:46 2020, MaxMem=  2147483648 cpu:               1.6 elap:               0.1
 (Enter /usr/local/g16/g16/l303.exe)
 DipDrv:  MaxL=1.
 Leave Link  303 at Fri Apr  3 14:22:47 2020, MaxMem=  2147483648 cpu:               0.4 elap:               0.0
 (Enter /usr/local/g16/g16/l401.exe)
 ExpMin= 2.53D-02 ExpMax= 1.17D+07 ExpMxC= 1.33D+04 IAcc=3 IRadAn=         5 AccDes= 0.00D+00
 Harris functional with IExCor=  205 and IRadAn=       5 diagonalized for initial guess.
 HarFok:  IExCor=  205 AccDes= 0.00D+00 IRadAn=         5 IDoV= 1 UseB2=F ITyADJ=14
 ICtDFT=  3500011 ScaDFX=  1.000000  1.000000  1.000000  1.000000
 FoFCou: FMM=F IPFlag=           0 FMFlag=      100000 FMFlg1=           0
         NFxFlg=           0 DoJE=T BraDBF=F KetDBF=T FulRan=T
         wScrn=  0.000000 ICntrl=       500 IOpCl=  0 I1Cent=   200000004 NGrid=           0
         NMat0=    1 NMatS0=      1 NMatT0=    0 NMatD0=    1 NMtDS0=    0 NMtDT0=    0
 Petite list used in FoFCou.
 Harris En= -2901.98702032462    
 JPrj=0 DoOrth=F DoCkMO=F.
 Leave Link  401 at Fri Apr  3 14:22:47 2020, MaxMem=  2147483648 cpu:               3.6 elap:               0.2
 (Enter /usr/local/g16/g16/l502.exe)
 Keep R1 ints in memory in canonical form, NReq=203139858.
 FoFCou: FMM=F IPFlag=           0 FMFlag=           0 FMFlg1=           0
         NFxFlg=           0 DoJE=F BraDBF=F KetDBF=F FulRan=T
         wScrn=  0.000000 ICntrl=       600 IOpCl=  0 I1Cent=           0 NGrid=           0
         NMat0=    1 NMatS0=  19503 NMatT0=    0 NMatD0=    1 NMtDS0=    0 NMtDT0=    0
 Symmetry not used in FoFCou.
 Two-electron integral symmetry not used.
 Closed shell SCF:
 Using DIIS extrapolation, IDIIS=  1040.
 NGot=  2147483648 LenX=  1957179903 LenY=  1957127021
 Requested convergence on RMS density matrix=1.00D-08 within 128 cycles.
 Requested convergence on MAX density matrix=1.00D-06.
 Requested convergence on             energy=1.00D-06.
 No special actions if energy rises.

 Cycle   1  Pass 1  IDiag  1:
 E= -2902.75666840525    
 DIIS: error= 5.96D-02 at cycle   1 NSaved=   1.
 NSaved= 1 IEnMin= 1 EnMin= -2902.75666840525     IErMin= 1 ErrMin= 5.96D-02
 ErrMax= 5.96D-02  0.00D+00 EMaxC= 1.00D-01 BMatC= 6.68D-01 BMatP= 6.68D-01
 IDIUse=3 WtCom= 4.04D-01 WtEn= 5.96D-01
 Coeff-Com:  0.100D+01
 Coeff-En:   0.100D+01
 Coeff:      0.100D+01
 Gap=     0.686 Goal=   None    Shift=    0.000
 GapD=    0.686 DampG=2.000 DampE=0.500 DampFc=1.0000 IDamp=-1.
 RMSDP=2.03D-03 MaxDP=1.33D-01              OVMax= 5.85D-02

 Cycle   2  Pass 1  IDiag  1:
 E= -2902.85493365674     Delta-E=       -0.098265251489 Rises=F Damp=F
 DIIS: error= 7.19D-03 at cycle   2 NSaved=   2.
 NSaved= 2 IEnMin= 2 EnMin= -2902.85493365674     IErMin= 2 ErrMin= 7.19D-03
 ErrMax= 7.19D-03  0.00D+00 EMaxC= 1.00D-01 BMatC= 3.88D-02 BMatP= 6.68D-01
 IDIUse=3 WtCom= 9.28D-01 WtEn= 7.19D-02
 Coeff-Com:  0.143D+00 0.857D+00
 Coeff-En:   0.000D+00 0.100D+01
 Coeff:      0.133D+00 0.867D+00
 Gap=     0.521 Goal=   None    Shift=    0.000
 RMSDP=8.05D-04 MaxDP=3.80D-02 DE=-9.83D-02 OVMax= 2.77D-02

 Cycle   3  Pass 1  IDiag  1:
 E= -2902.86959353584     Delta-E=       -0.014659879106 Rises=F Damp=F
 DIIS: error= 2.56D-03 at cycle   3 NSaved=   3.
 NSaved= 3 IEnMin= 3 EnMin= -2902.86959353584     IErMin= 3 ErrMin= 2.56D-03
 ErrMax= 2.56D-03  0.00D+00 EMaxC= 1.00D-01 BMatC= 2.98D-03 BMatP= 3.88D-02
 IDIUse=3 WtCom= 9.74D-01 WtEn= 2.56D-02
 Coeff-Com: -0.594D-02 0.196D+00 0.809D+00
 Coeff-En:   0.000D+00 0.000D+00 0.100D+01
 Coeff:     -0.579D-02 0.191D+00 0.814D+00
 Gap=     0.492 Goal=   None    Shift=    0.000
 RMSDP=1.44D-04 MaxDP=4.96D-03 DE=-1.47D-02 OVMax= 8.65D-03

 Cycle   4  Pass 1  IDiag  1:
 E= -2902.87114170547     Delta-E=       -0.001548169622 Rises=F Damp=F
 DIIS: error= 3.81D-04 at cycle   4 NSaved=   4.
 NSaved= 4 IEnMin= 4 EnMin= -2902.87114170547     IErMin= 4 ErrMin= 3.81D-04
 ErrMax= 3.81D-04  0.00D+00 EMaxC= 1.00D-01 BMatC= 5.19D-05 BMatP= 2.98D-03
 IDIUse=3 WtCom= 9.96D-01 WtEn= 3.81D-03
 Coeff-Com: -0.428D-02 0.151D-01 0.146D+00 0.843D+00
 Coeff-En:   0.000D+00 0.000D+00 0.000D+00 0.100D+01
 Coeff:     -0.427D-02 0.150D-01 0.145D+00 0.844D+00
 Gap=     0.497 Goal=   None    Shift=    0.000
 RMSDP=2.43D-05 MaxDP=6.60D-04 DE=-1.55D-03 OVMax= 1.73D-03

 Cycle   5  Pass 1  IDiag  1:
 E= -2902.87118505562     Delta-E=       -0.000043350156 Rises=F Damp=F
 DIIS: error= 1.45D-04 at cycle   5 NSaved=   5.
 NSaved= 5 IEnMin= 5 EnMin= -2902.87118505562     IErMin= 5 ErrMin= 1.45D-04
 ErrMax= 1.45D-04  0.00D+00 EMaxC= 1.00D-01 BMatC= 3.69D-06 BMatP= 5.19D-05
 IDIUse=3 WtCom= 9.99D-01 WtEn= 1.45D-03
 Coeff-Com:  0.889D-03-0.166D-01-0.705D-01-0.449D-02 0.109D+01
 Coeff-En:   0.000D+00 0.000D+00 0.000D+00 0.000D+00 0.100D+01
 Coeff:      0.888D-03-0.166D-01-0.704D-01-0.449D-02 0.109D+01
 Gap=     0.497 Goal=   None    Shift=    0.000
 RMSDP=1.14D-05 MaxDP=3.38D-04 DE=-4.34D-05 OVMax= 7.41D-04

 Cycle   6  Pass 1  IDiag  1:
 E= -2902.87119053323     Delta-E=       -0.000005477612 Rises=F Damp=F
 DIIS: error= 2.74D-05 at cycle   6 NSaved=   6.
 NSaved= 6 IEnMin= 6 EnMin= -2902.87119053323     IErMin= 6 ErrMin= 2.74D-05
 ErrMax= 2.74D-05  0.00D+00 EMaxC= 1.00D-01 BMatC= 2.07D-07 BMatP= 3.69D-06
 IDIUse=1 WtCom= 1.00D+00 WtEn= 0.00D+00
 Coeff-Com:  0.162D-03 0.159D-03-0.512D-02-0.503D-01-0.402D-01 0.110D+01
 Coeff:      0.162D-03 0.159D-03-0.512D-02-0.503D-01-0.402D-01 0.110D+01
 Gap=     0.497 Goal=   None    Shift=    0.000
 RMSDP=3.26D-06 MaxDP=1.02D-04 DE=-5.48D-06 OVMax= 2.30D-04

 Cycle   7  Pass 1  IDiag  1:
 E= -2902.87119097153     Delta-E=       -0.000000438295 Rises=F Damp=F
 DIIS: error= 8.66D-06 at cycle   7 NSaved=   7.
 NSaved= 7 IEnMin= 7 EnMin= -2902.87119097153     IErMin= 7 ErrMin= 8.66D-06
 ErrMax= 8.66D-06  0.00D+00 EMaxC= 1.00D-01 BMatC= 2.20D-08 BMatP= 2.07D-07
 IDIUse=1 WtCom= 1.00D+00 WtEn= 0.00D+00
 Coeff-Com: -0.419D-04 0.112D-02 0.440D-02-0.230D-02-0.782D-01 0.237D-01
 Coeff-Com:  0.105D+01
 Coeff:     -0.419D-04 0.112D-02 0.440D-02-0.230D-02-0.782D-01 0.237D-01
 Coeff:      0.105D+01
 Gap=     0.497 Goal=   None    Shift=    0.000
 RMSDP=1.19D-06 MaxDP=4.53D-05 DE=-4.38D-07 OVMax= 8.13D-05

 Cycle   8  Pass 1  IDiag  1:
 E= -2902.87119101904     Delta-E=       -0.000000047509 Rises=F Damp=F
 DIIS: error= 4.36D-06 at cycle   8 NSaved=   8.
 NSaved= 8 IEnMin= 8 EnMin= -2902.87119101904     IErMin= 8 ErrMin= 4.36D-06
 ErrMax= 4.36D-06  0.00D+00 EMaxC= 1.00D-01 BMatC= 6.01D-09 BMatP= 2.20D-08
 IDIUse=1 WtCom= 1.00D+00 WtEn= 0.00D+00
 Coeff-Com: -0.286D-04 0.277D-03 0.181D-02 0.542D-02-0.188D-01-0.126D+00
 Coeff-Com:  0.351D+00 0.786D+00
 Coeff:     -0.286D-04 0.277D-03 0.181D-02 0.542D-02-0.188D-01-0.126D+00
 Coeff:      0.351D+00 0.786D+00
 Gap=     0.497 Goal=   None    Shift=    0.000
 RMSDP=4.15D-07 MaxDP=1.52D-05 DE=-4.75D-08 OVMax= 2.97D-05

 Cycle   9  Pass 1  IDiag  1:
 E= -2902.87119102727     Delta-E=       -0.000000008230 Rises=F Damp=F
 DIIS: error= 1.87D-06 at cycle   9 NSaved=   9.
 NSaved= 9 IEnMin= 9 EnMin= -2902.87119102727     IErMin= 9 ErrMin= 1.87D-06
 ErrMax= 1.87D-06  0.00D+00 EMaxC= 1.00D-01 BMatC= 5.65D-10 BMatP= 6.01D-09
 IDIUse=1 WtCom= 1.00D+00 WtEn= 0.00D+00
 Coeff-Com:  0.793D-05-0.213D-03-0.875D-03-0.525D-04 0.141D-01 0.101D-01
 Coeff-Com: -0.211D+00-0.108D+00 0.130D+01
 Coeff:      0.793D-05-0.213D-03-0.875D-03-0.525D-04 0.141D-01 0.101D-01
 Coeff:     -0.211D+00-0.108D+00 0.130D+01
 Gap=     0.497 Goal=   None    Shift=    0.000
 RMSDP=2.29D-07 MaxDP=5.42D-06 DE=-8.23D-09 OVMax= 2.19D-05

 Cycle  10  Pass 1  IDiag  1:
 E= -2902.87119102917     Delta-E=       -0.000000001901 Rises=F Damp=F
 DIIS: error= 5.78D-07 at cycle  10 NSaved=  10.
 NSaved=10 IEnMin=10 EnMin= -2902.87119102917     IErMin=10 ErrMin= 5.78D-07
 ErrMax= 5.78D-07  0.00D+00 EMaxC= 1.00D-01 BMatC= 5.62D-11 BMatP= 5.65D-10
 IDIUse=1 WtCom= 1.00D+00 WtEn= 0.00D+00
 Coeff-Com:  0.100D-05 0.496D-04 0.919D-04-0.836D-03-0.269D-02 0.125D-01
 Coeff-Com:  0.368D-01-0.554D-01-0.474D+00 0.148D+01
 Coeff:      0.100D-05 0.496D-04 0.919D-04-0.836D-03-0.269D-02 0.125D-01
 Coeff:      0.368D-01-0.554D-01-0.474D+00 0.148D+01
 Gap=     0.497 Goal=   None    Shift=    0.000
 RMSDP=8.41D-08 MaxDP=2.11D-06 DE=-1.90D-09 OVMax= 9.04D-06

 Cycle  11  Pass 1  IDiag  1:
 E= -2902.87119102939     Delta-E=       -0.000000000223 Rises=F Damp=F
 DIIS: error= 1.38D-07 at cycle  11 NSaved=  11.
 NSaved=11 IEnMin=11 EnMin= -2902.87119102939     IErMin=11 ErrMin= 1.38D-07
 ErrMax= 1.38D-07  0.00D+00 EMaxC= 1.00D-01 BMatC= 3.27D-12 BMatP= 5.62D-11
 IDIUse=1 WtCom= 1.00D+00 WtEn= 0.00D+00
 Coeff-Com: -0.745D-06 0.230D-05 0.384D-04 0.244D-03-0.462D-03-0.380D-02
 Coeff-Com:  0.896D-02 0.192D-01-0.576D-02-0.253D+00 0.123D+01
 Coeff:     -0.745D-06 0.230D-05 0.384D-04 0.244D-03-0.462D-03-0.380D-02
 Coeff:      0.896D-02 0.192D-01-0.576D-02-0.253D+00 0.123D+01
 Gap=     0.497 Goal=   None    Shift=    0.000
 RMSDP=1.72D-08 MaxDP=4.56D-07 DE=-2.23D-10 OVMax= 1.63D-06

 Cycle  12  Pass 1  IDiag  1:
 E= -2902.87119102941     Delta-E=       -0.000000000016 Rises=F Damp=F
 DIIS: error= 5.57D-08 at cycle  12 NSaved=  12.
 NSaved=12 IEnMin=12 EnMin= -2902.87119102941     IErMin=12 ErrMin= 5.57D-08
 ErrMax= 5.57D-08  0.00D+00 EMaxC= 1.00D-01 BMatC= 4.16D-13 BMatP= 3.27D-12
 IDIUse=1 WtCom= 1.00D+00 WtEn= 0.00D+00
 Coeff-Com: -0.938D-07-0.657D-05-0.143D-04 0.113D-03 0.350D-03-0.178D-02
 Coeff-Com: -0.390D-02 0.732D-02 0.530D-01-0.164D+00-0.775D-01 0.119D+01
 Coeff:     -0.938D-07-0.657D-05-0.143D-04 0.113D-03 0.350D-03-0.178D-02
 Coeff:     -0.390D-02 0.732D-02 0.530D-01-0.164D+00-0.775D-01 0.119D+01
 Gap=     0.497 Goal=   None    Shift=    0.000
 RMSDP=6.31D-09 MaxDP=1.74D-07 DE=-1.59D-11 OVMax= 7.15D-07

 SCF Done:  E(RHF) =  -2902.87119103     A.U. after   12 cycles
            NFock= 12  Conv=0.63D-08     -V/T= 2.0001
 KE= 2.902664762265D+03 PE=-7.242311941607D+03 EE= 1.285441121478D+03
 Leave Link  502 at Fri Apr  3 14:22:50 2020, MaxMem=  2147483648 cpu:              26.5 elap:               3.4
 (Enter /usr/local/g16/g16/l801.exe)
 Windowed orbitals will be sorted by symmetry type.
 ExpMin= 2.53D-02 ExpMax= 1.17D+07 ExpMxC= 1.33D+04 IAcc=3 IRadAn=         5 AccDes= 0.00D+00
 HarFok:  IExCor=  205 AccDes= 0.00D+00 IRadAn=         5 IDoV=-2 UseB2=F ITyADJ=14
 ICtDFT= 12500011 ScaDFX=  1.000000  1.000000  1.000000  1.000000
 Largest valence mixing into a core orbital is  1.17D-04
 Largest core mixing into a valence orbital is  3.83D-05
 Range of M.O.s used for correlation:    12   197
 NBasis=   197 NAE=    27 NBE=    27 NFC=    11 NFV=     0
 NROrb=    186 NOA=    16 NOB=    16 NVA=   170 NVB=   170

 **** Warning!!: The largest alpha MO coefficient is  0.17109189D+02

 Leave Link  801 at Fri Apr  3 14:22:50 2020, MaxMem=  2147483648 cpu:               0.6 elap:               0.0
 (Enter /usr/local/g16/g16/l804.exe)
 Closed-shell transformation, MDV=  2147483648 ITran=4 ISComp=1.
 Unit  1 TFree=       1248993 TCopy=        808885.
 Semi-Direct transformation.
 ModeAB=           2 MOrb=            16 LenV=    2146358878
 LASXX=     48528660 LTotXX=    48528660 LenRXX=    48528660
 LTotAB=    49298776 MaxLAS=    78372960 LenRXY=    78372960
 NonZer=    97057320 LenScr=   146313216 LnRSAI=           0
 LnScr1=           0 LExtra=           0 Total=    273214836
 MaxDsk=          -1 SrtSym=           F ITran=            4
 DoSDTr:  NPSUse= 16
 JobTyp=0 Pass  1:  I=   1 to  16.
 (rs|ai) integrals will be sorted in core.
 Complete sort for first half transformation.
 First half transformation complete.
 Begin second half transformation for I=  10.
 Begin second half transformation for I=  10.
 Complete sort for second half transformation.
 Second half transformation complete.
 SymMOI:  orbitals are not symmetric.
 Spin components of T(2) and E(2):
     alpha-alpha T2 =       0.2618960809D-01 E2=     -0.1004732646D+00
     alpha-beta  T2 =       0.1424376354D+00 E2=     -0.5579691933D+00
     beta-beta   T2 =       0.2618960809D-01 E2=     -0.1004732646D+00
 ANorm=    0.1093076782D+01
 E2 =    -0.7589157224D+00 EUMP2 =    -0.29036301067518D+04
 Leave Link  804 at Fri Apr  3 14:23:01 2020, MaxMem=  2147483648 cpu:             175.2 elap:              11.0
 (Enter /usr/local/g16/g16/l913.exe)
 CIDS:  MDV=  2147483648.
 Frozen-core window:  NFC=  11 NFV=   0.
 IFCWin=0 IBDFC=1 NFBD=     0     0 NFCmp=     0     0 NFFFC=     0     0
 Using DD3R+UMP44R for 1st iteration.
 Using DD4RQ for 2nd and later iterations.
 Keep R2 and R3 ints in memory in canonical form, NReq=393341343.
 FoFCou: FMM=F IPFlag=           0 FMFlag=           0 FMFlg1=           0
         NFxFlg=           0 DoJE=F BraDBF=F KetDBF=F FulRan=T
         wScrn=  0.000000 ICntrl=       600 IOpCl=  0 I1Cent=           0 NGrid=           0
         NMat0=    1 NMatS0=  19503 NMatT0=    0 NMatD0=    1 NMtDS0=    0 NMtDT0=    0
 Symmetry not used in FoFCou.
 Two-electron integral symmetry not used.
 CIDS: In Core Option IDoMem=           1.
 MP4(SDTQ)
 =========
 Produce multiple copies of IABC intergrals
 DD1Dir will call FoFMem   1 times, MxPair=       272
 NAB=   136 NAA=     0 NBB=     0.
 MP4(D)= -0.14926871D-01
 MP4(S)= -0.65703682D-02
 MP4(R+Q)=  0.15638922D-01
 T4(AAA)= -0.10694023D-02
 T4(AAB)= -0.14382227D-01
 Time for triples=     1743.72 seconds.
 MP4(T)=   -0.30903258D-01
 E3=       -0.11003024D-01        EUMP3=      -0.29036411098D+04
 E4(DQ)=    0.71205128D-03        UMP4(DQ)=   -0.29036403977D+04
 E4(SDQ)=  -0.58583169D-02        UMP4(SDQ)=  -0.29036469681D+04
 E4(SDTQ)= -0.36761575D-01        UMP4(SDTQ)= -0.29036778714D+04
 VARIATIONAL ENERGIES WITH THE FIRST-ORDER WAVEFUNCTION:
 E(VAR1)=  -0.29035155733D+04     E(CISD,4)=  -0.29035147574D+04
 Largest amplitude= 4.53D-02
 Discarding MO integrals.
 Leave Link  913 at Fri Apr  3 14:24:58 2020, MaxMem=  2147483648 cpu:            1863.4 elap:             116.7
 (Enter /usr/local/g16/g16/l601.exe)
 Copying SCF densities to generalized density rwf, IOpCl= 0 IROHF=0.

 **********************************************************************

            Population analysis using the SCF density.

 **********************************************************************

 Orbital symmetries:
       Occupied  (A) (A) (A) (A) (A) (A) (A) (A) (A) (A) (A) (A)
                 (A) (A) (A) (A) (A) (A) (A) (A) (A) (A) (A) (A)
                 (A) (A) (A)
       Virtual   (A) (A) (A) (A) (A) (A) (A) (A) (A) (A) (A) (A)
                 (A) (A) (A) (A) (A) (A) (A) (A) (A) (A) (A) (A)
                 (A) (A) (A) (A) (A) (A) (A) (A) (A) (A) (A) (A)
                 (A) (A) (A) (A) (A) (A) (A) (A) (A) (A) (A) (A)
                 (A) (A) (A) (A) (A) (A) (A) (A) (A) (A) (A) (A)
                 (A) (A) (A) (A) (A) (A) (A) (A) (A) (A) (A) (A)
                 (A) (A) (A) (A) (A) (A) (A) (A) (A) (A) (A) (A)
                 (A) (A) (A) (A) (A) (A) (A) (A) (A) (A) (A) (A)
                 (A) (A) (A) (A) (A) (A) (A) (A) (A) (A) (A) (A)
                 (A) (A) (A) (A) (A) (A) (A) (A) (A) (A) (A) (A)
                 (A) (A) (A) (A) (A) (A) (A) (A) (A) (A) (A) (A)
                 (A) (A) (A) (A) (A) (A) (A) (A) (A) (A) (A) (A)
                 (A) (A) (A) (A) (A) (A) (A) (A) (A) (A) (A) (A)
                 (A) (A) (A) (A) (A) (A) (A) (A) (A) (A) (A) (A)
                 (A) (A)
 The electronic state is 1-A.
 Alpha  occ. eigenvalues -- -520.20013 -69.93770 -63.04427 -63.04426 -63.04424
 Alpha  occ. eigenvalues --  -20.62754 -20.62625 -10.88436  -8.36651  -8.36639
 Alpha  occ. eigenvalues --   -8.36621  -3.86029  -3.86028  -3.86006  -3.85997
 Alpha  occ. eigenvalues --   -3.85992  -1.46773  -1.21535  -1.19130  -0.76703
 Alpha  occ. eigenvalues --   -0.64071  -0.59911  -0.57752  -0.55841  -0.55291
 Alpha  occ. eigenvalues --   -0.54333  -0.46070
 Alpha virt. eigenvalues --    0.03607   0.04605   0.08514   0.09360   0.11392
 Alpha virt. eigenvalues --    0.13536   0.14506   0.16278   0.18221   0.18939
 Alpha virt. eigenvalues --    0.19414   0.20599   0.22927   0.25783   0.25990
 Alpha virt. eigenvalues --    0.26735   0.28500   0.30198   0.34376   0.35483
 Alpha virt. eigenvalues --    0.36058   0.37940   0.40395   0.41070   0.42269
 Alpha virt. eigenvalues --    0.45798   0.48620   0.51545   0.56719   0.57919
 Alpha virt. eigenvalues --    0.63586   0.64881   0.66096   0.69146   0.71449
 Alpha virt. eigenvalues --    0.73385   0.75477   0.78642   0.79871   0.82027
 Alpha virt. eigenvalues --    0.82220   0.82993   0.86623   0.88038   0.90567
 Alpha virt. eigenvalues --    0.91698   0.93138   0.93804   0.97153   0.98708
 Alpha virt. eigenvalues --    1.00391   1.00710   1.02566   1.05161   1.06896
 Alpha virt. eigenvalues --    1.09812   1.11127   1.12727   1.14989   1.18217
 Alpha virt. eigenvalues --    1.20475   1.25839   1.30039   1.30886   1.31843
 Alpha virt. eigenvalues --    1.39571   1.43788   1.46659   1.49225   1.52416
 Alpha virt. eigenvalues --    1.59098   1.59777   1.63028   1.65501   1.70017
 Alpha virt. eigenvalues --    1.71148   1.79543   1.97914   2.02841   2.08057
 Alpha virt. eigenvalues --    2.14155   2.22262   2.24357   2.28335   2.31094
 Alpha virt. eigenvalues --    2.34256   2.36738   2.37661   2.42133   2.46360
 Alpha virt. eigenvalues --    2.47042   2.47893   2.49879   2.51610   2.52957
 Alpha virt. eigenvalues --    2.57432   2.58946   2.60479   2.64542   2.67370
 Alpha virt. eigenvalues --    2.69167   2.69749   2.74019   2.75158   2.77923
 Alpha virt. eigenvalues --    2.79892   2.83480   2.84189   2.86109   2.90794
 Alpha virt. eigenvalues --    2.93237   2.96063   3.00091   3.07244   3.10889
 Alpha virt. eigenvalues --    3.11691   3.25256   3.30740   3.31167   3.79947
 Alpha virt. eigenvalues --    3.90137   4.15869   4.22947   4.23396   4.31579
 Alpha virt. eigenvalues --    4.36399   4.38708   4.41003   4.41571   4.50092
 Alpha virt. eigenvalues --    4.68853   4.72022   4.82383   4.97280   5.00684
 Alpha virt. eigenvalues --    5.23900   5.24565   5.33242   5.35159   5.36981
 Alpha virt. eigenvalues --    5.40060   5.83672   6.16484   6.37374   6.38908
 Alpha virt. eigenvalues --    6.45903   6.69417   6.72333   6.80258   6.91239
 Alpha virt. eigenvalues --    7.02919   7.12821   7.17352   7.20356   7.21687
 Alpha virt. eigenvalues --    7.24082   7.26152   7.29706   7.30751   7.44306
 Alpha virt. eigenvalues --    7.54510   7.55639   7.63456   7.77753   7.94088
 Alpha virt. eigenvalues --    8.38153   8.40762   8.56848  14.51478  15.35624
          Condensed to atoms (all electrons):
               1          2          3          4          5
     1  O    8.149553  -0.107173   0.224612   0.013228  -0.018156
     2  O   -0.107173   8.143121   0.020977   0.237569  -0.013272
     3  H    0.224612   0.020977   0.509462  -0.011557  -0.002795
     4  H    0.013228   0.237569  -0.011557   0.501914  -0.011712
     5  Kr  -0.018156  -0.013272  -0.002795  -0.011712  36.032509
 Mulliken charges:
               1
     1  O   -0.262064
     2  O   -0.281222
     3  H    0.259302
     4  H    0.270558
     5  Kr   0.013425
 Sum of Mulliken charges =  -0.00000
 Mulliken charges with hydrogens summed into heavy atoms:
               1
     1  O   -0.002762
     2  O   -0.010664
     5  Kr   0.013425
         Mulliken charges condensed to fragments:
      1     -0.013425
      2      0.013425
 Electronic spatial extent (au):  <R**2>=            476.6378
 Charge=             -0.0000 electrons
 Dipole moment (field-independent basis, Debye):
    X=              3.4970    Y=             -0.0910    Z=              0.7062  Tot=              3.5687
 Quadrupole moment (field-independent basis, Debye-Ang):
   XX=            -38.9845   YY=            -28.0289   ZZ=            -29.9858
   XY=              0.3074   XZ=             -0.8748   YZ=             -0.9243
 Traceless Quadrupole moment (field-independent basis, Debye-Ang):
   XX=             -6.6514   YY=              4.3042   ZZ=              2.3473
   XY=              0.3074   XZ=             -0.8748   YZ=             -0.9243
 Octapole moment (field-independent basis, Debye-Ang**2):
  XXX=             44.4489  YYY=             -0.2298  ZZZ=              0.1475  XYY=              7.5233
  XXY=             -0.7297  XXZ=              0.3089  XZZ=              7.8353  YZZ=             -0.4671
  YYZ=              1.0792  XYZ=              1.1304
 Hexadecapole moment (field-independent basis, Debye-Ang**3):
 XXXX=           -457.9463 YYYY=            -62.4299 ZZZZ=            -28.5912 XXXY=              0.8305
 XXXZ=              0.5973 YYYX=              0.5755 YYYZ=             -1.2839 ZZZX=             -0.4897
 ZZZY=             -0.6111 XXYY=            -85.9093 XXZZ=            -75.0633 YYZZ=            -16.6391
 XXYZ=             -1.3831 YYXZ=             -1.3515 ZZXY=              0.6239
 N-N= 1.513348668345D+02 E-N=-7.242311941293D+03  KE= 2.902664762265D+03
 Leave Link  601 at Fri Apr  3 14:24:59 2020, MaxMem=  2147483648 cpu:               0.5 elap:               0.0
 (Enter /usr/local/g16/g16/l122.exe)
 CPIOFr:  IOpCl= 0 IRwI=-1 IRwCP=  731 ICalc= -1 LCPTot=       59414 Len1MO=      159453 IndFrg=       59414
 CPIOFr:  IOpCl= 0 IRwI=-1 IRwCP=  731 ICalc=  0 LCPTot=       59414 Len1MO=      159453 IndFrg=      218867
 Counterpoise: doing calculation for fragment   1 using the basis set of the full-system, NewBq=T
 Leave Link  122 at Fri Apr  3 14:24:59 2020, MaxMem=  2147483648 cpu:               0.0 elap:               0.0
 (Enter /usr/local/g16/g16/l301.exe)
 Basis read from rwf:  (5D, 7F)
 No pseudopotential information found on rwf file.
 There are   229 symmetry adapted cartesian basis functions of A   symmetry.
 There are   197 symmetry adapted basis functions of A   symmetry.
   197 basis functions,   415 primitive gaussians,   229 cartesian basis functions
     9 alpha electrons        9 beta electrons
       nuclear repulsion energy        36.6600465477 Hartrees.
 IExCor=    0 DFT=F Ex=HF Corr=None ExCW=0 ScaHFX=  1.000000
 ScaDFX=  1.000000  1.000000  1.000000  1.000000 ScalE2=  1.000000  1.000000
 IRadAn=      5 IRanWt=     -1 IRanGd=            0 ICorTp=0 IEmpDi=  4
 NAtoms=    5 NActive=    5 NUniq=    5 SFac= 1.00D+00 NAtFMM=   60 NAOKFM=F Big=F
 Integral buffers will be    131072 words long.
 Raffenetti 1 integral format.
 Two-electron integral symmetry is turned on.
 No density basis found on file   718.
 Leave Link  301 at Fri Apr  3 14:24:59 2020, MaxMem=  2147483648 cpu:               0.4 elap:               0.0
 (Enter /usr/local/g16/g16/l302.exe)
 NPDir=0 NMtPBC=     1 NCelOv=     1 NCel=       1 NClECP=     1 NCelD=      1
         NCelK=      1 NCelE2=     1 NClLst=     1 CellRange=     0.0.
 One-electron integrals computed using PRISM.
 One-electron integral symmetry used in STVInt
 NBasis=   197 RedAO= T EigKep=  1.72D-04  NBF=   197
 NBsUse=   197 1.00D-06 EigRej= -1.00D+00 NBFU=   197
 Leave Link  302 at Fri Apr  3 14:24:59 2020, MaxMem=  2147483648 cpu:               1.7 elap:               0.1
 (Enter /usr/local/g16/g16/l303.exe)
 DipDrv:  MaxL=1.
 Leave Link  303 at Fri Apr  3 14:24:59 2020, MaxMem=  2147483648 cpu:               0.4 elap:               0.0
 (Enter /usr/local/g16/g16/l401.exe)
 ExpMin= 2.53D-02 ExpMax= 1.17D+07 ExpMxC= 1.33D+04 IAcc=3 IRadAn=         5 AccDes= 0.00D+00
 Harris functional with IExCor=  205 and IRadAn=       5 diagonalized for initial guess.
 HarFok:  IExCor=  205 AccDes= 0.00D+00 IRadAn=         5 IDoV= 1 UseB2=F ITyADJ=14
 ICtDFT=  3500011 ScaDFX=  1.000000  1.000000  1.000000  1.000000
 FoFCou: FMM=F IPFlag=           0 FMFlag=      100000 FMFlg1=           0
         NFxFlg=           0 DoJE=T BraDBF=F KetDBF=T FulRan=T
         wScrn=  0.000000 ICntrl=       500 IOpCl=  0 I1Cent=   200000004 NGrid=           0
         NMat0=    1 NMatS0=      1 NMatT0=    0 NMatD0=    1 NMtDS0=    0 NMtDT0=    0
 Petite list used in FoFCou.
 Harris En= -150.933323941314    
 JPrj=0 DoOrth=F DoCkMO=F.
 Leave Link  401 at Fri Apr  3 14:24:59 2020, MaxMem=  2147483648 cpu:               3.2 elap:               0.2
 (Enter /usr/local/g16/g16/l502.exe)
 Keep R1 ints in memory in canonical form, NReq=203139858.
 FoFCou: FMM=F IPFlag=           0 FMFlag=           0 FMFlg1=           0
         NFxFlg=           0 DoJE=F BraDBF=F KetDBF=F FulRan=T
         wScrn=  0.000000 ICntrl=       600 IOpCl=  0 I1Cent=           0 NGrid=           0
         NMat0=    1 NMatS0=  19503 NMatT0=    0 NMatD0=    1 NMtDS0=    0 NMtDT0=    0
 Symmetry not used in FoFCou.
 Two-electron integral symmetry not used.
 Closed shell SCF:
 Using DIIS extrapolation, IDIIS=  1040.
 NGot=  2147483648 LenX=  1957179903 LenY=  1957127021
 Requested convergence on RMS density matrix=1.00D-08 within 128 cycles.
 Requested convergence on MAX density matrix=1.00D-06.
 Requested convergence on             energy=1.00D-06.
 No special actions if energy rises.

 Cycle   1  Pass 1  IDiag  1:
 E= -150.763962265847    
 DIIS: error= 2.37D-02 at cycle   1 NSaved=   1.
 NSaved= 1 IEnMin= 1 EnMin= -150.763962265847     IErMin= 1 ErrMin= 2.37D-02
 ErrMax= 2.37D-02  0.00D+00 EMaxC= 1.00D-01 BMatC= 2.31D-01 BMatP= 2.31D-01
 IDIUse=3 WtCom= 7.63D-01 WtEn= 2.37D-01
 Coeff-Com:  0.100D+01
 Coeff-En:   0.100D+01
 Coeff:      0.100D+01
 Gap=     0.691 Goal=   None    Shift=    0.000
 GapD=    0.691 DampG=2.000 DampE=0.500 DampFc=1.0000 IDamp=-1.
 RMSDP=9.00D-04 MaxDP=2.88D-02              OVMax= 6.85D-02

 Cycle   2  Pass 1  IDiag  1:
 E= -150.818954032946     Delta-E=       -0.054991767099 Rises=F Damp=F
 DIIS: error= 6.36D-03 at cycle   2 NSaved=   2.
 NSaved= 2 IEnMin= 2 EnMin= -150.818954032946     IErMin= 2 ErrMin= 6.36D-03
 ErrMax= 6.36D-03  0.00D+00 EMaxC= 1.00D-01 BMatC= 1.77D-02 BMatP= 2.31D-01
 IDIUse=3 WtCom= 9.36D-01 WtEn= 6.36D-02
 Coeff-Com:  0.116D+00 0.884D+00
 Coeff-En:   0.000D+00 0.100D+01
 Coeff:      0.108D+00 0.892D+00
 Gap=     0.517 Goal=   None    Shift=    0.000
 RMSDP=5.38D-04 MaxDP=2.52D-02 DE=-5.50D-02 OVMax= 2.97D-02

 Cycle   3  Pass 1  IDiag  1:
 E= -150.828073468687     Delta-E=       -0.009119435741 Rises=F Damp=F
 DIIS: error= 2.77D-03 at cycle   3 NSaved=   3.
 NSaved= 3 IEnMin= 3 EnMin= -150.828073468687     IErMin= 3 ErrMin= 2.77D-03
 ErrMax= 2.77D-03  0.00D+00 EMaxC= 1.00D-01 BMatC= 2.47D-03 BMatP= 1.77D-02
 IDIUse=3 WtCom= 9.72D-01 WtEn= 2.77D-02
 Coeff-Com: -0.211D-01 0.250D+00 0.771D+00
 Coeff-En:   0.000D+00 0.000D+00 0.100D+01
 Coeff:     -0.205D-01 0.243D+00 0.777D+00
 Gap=     0.487 Goal=   None    Shift=    0.000
 RMSDP=1.22D-04 MaxDP=4.45D-03 DE=-9.12D-03 OVMax= 9.83D-03

 Cycle   4  Pass 1  IDiag  1:
 E= -150.829630120531     Delta-E=       -0.001556651844 Rises=F Damp=F
 DIIS: error= 2.78D-04 at cycle   4 NSaved=   4.
 NSaved= 4 IEnMin= 4 EnMin= -150.829630120531     IErMin= 4 ErrMin= 2.78D-04
 ErrMax= 2.78D-04  0.00D+00 EMaxC= 1.00D-01 BMatC= 1.59D-05 BMatP= 2.47D-03
 IDIUse=3 WtCom= 9.97D-01 WtEn= 2.78D-03
 Coeff-Com: -0.187D-02-0.109D-01 0.569D-02 0.101D+01
 Coeff-En:   0.000D+00 0.000D+00 0.000D+00 0.100D+01
 Coeff:     -0.187D-02-0.109D-01 0.568D-02 0.101D+01
 Gap=     0.489 Goal=   None    Shift=    0.000
 RMSDP=1.84D-05 MaxDP=5.05D-04 DE=-1.56D-03 OVMax= 1.34D-03

 Cycle   5  Pass 1  IDiag  1:
 E= -150.829653206032     Delta-E=       -0.000023085501 Rises=F Damp=F
 DIIS: error= 8.53D-05 at cycle   5 NSaved=   5.
 NSaved= 5 IEnMin= 5 EnMin= -150.829653206032     IErMin= 5 ErrMin= 8.53D-05
 ErrMax= 8.53D-05  0.00D+00 EMaxC= 1.00D-01 BMatC= 1.59D-06 BMatP= 1.59D-05
 IDIUse=1 WtCom= 1.00D+00 WtEn= 0.00D+00
 Coeff-Com:  0.175D-02-0.168D-01-0.588D-01-0.158D+00 0.123D+01
 Coeff:      0.175D-02-0.168D-01-0.588D-01-0.158D+00 0.123D+01
 Gap=     0.489 Goal=   None    Shift=    0.000
 RMSDP=9.72D-06 MaxDP=3.08D-04 DE=-2.31D-05 OVMax= 8.67D-04

 Cycle   6  Pass 1  IDiag  1:
 E= -150.829657010467     Delta-E=       -0.000003804435 Rises=F Damp=F
 DIIS: error= 1.92D-05 at cycle   6 NSaved=   6.
 NSaved= 6 IEnMin= 6 EnMin= -150.829657010467     IErMin= 6 ErrMin= 1.92D-05
 ErrMax= 1.92D-05  0.00D+00 EMaxC= 1.00D-01 BMatC= 7.15D-08 BMatP= 1.59D-06
 IDIUse=1 WtCom= 1.00D+00 WtEn= 0.00D+00
 Coeff-Com: -0.477D-03 0.554D-02 0.202D-01 0.304D-01-0.481D+00 0.143D+01
 Coeff:     -0.477D-03 0.554D-02 0.202D-01 0.304D-01-0.481D+00 0.143D+01
 Gap=     0.489 Goal=   None    Shift=    0.000
 RMSDP=2.78D-06 MaxDP=8.08D-05 DE=-3.80D-06 OVMax= 2.79D-04

 Cycle   7  Pass 1  IDiag  1:
 E= -150.829657228194     Delta-E=       -0.000000217727 Rises=F Damp=F
 DIIS: error= 3.99D-06 at cycle   7 NSaved=   7.
 NSaved= 7 IEnMin= 7 EnMin= -150.829657228194     IErMin= 7 ErrMin= 3.99D-06
 ErrMax= 3.99D-06  0.00D+00 EMaxC= 1.00D-01 BMatC= 2.89D-09 BMatP= 7.15D-08
 IDIUse=1 WtCom= 1.00D+00 WtEn= 0.00D+00
 Coeff-Com:  0.909D-04-0.124D-02-0.490D-02-0.286D-02 0.113D+00-0.449D+00
 Coeff-Com:  0.135D+01
 Coeff:      0.909D-04-0.124D-02-0.490D-02-0.286D-02 0.113D+00-0.449D+00
 Coeff:      0.135D+01
 Gap=     0.489 Goal=   None    Shift=    0.000
 RMSDP=5.23D-07 MaxDP=1.25D-05 DE=-2.18D-07 OVMax= 6.14D-05

 Cycle   8  Pass 1  IDiag  1:
 E= -150.829657237851     Delta-E=       -0.000000009657 Rises=F Damp=F
 DIIS: error= 1.51D-06 at cycle   8 NSaved=   8.
 NSaved= 8 IEnMin= 8 EnMin= -150.829657237851     IErMin= 8 ErrMin= 1.51D-06
 ErrMax= 1.51D-06  0.00D+00 EMaxC= 1.00D-01 BMatC= 3.68D-10 BMatP= 2.89D-09
 IDIUse=1 WtCom= 1.00D+00 WtEn= 0.00D+00
 Coeff-Com: -0.349D-05 0.139D-03 0.793D-03-0.195D-02-0.141D-01 0.103D+00
 Coeff-Com: -0.677D+00 0.159D+01
 Coeff:     -0.349D-05 0.139D-03 0.793D-03-0.195D-02-0.141D-01 0.103D+00
 Coeff:     -0.677D+00 0.159D+01
 Gap=     0.489 Goal=   None    Shift=    0.000
 RMSDP=2.05D-07 MaxDP=5.05D-06 DE=-9.66D-09 OVMax= 3.02D-05

 Cycle   9  Pass 1  IDiag  1:
 E= -150.829657239293     Delta-E=       -0.000000001442 Rises=F Damp=F
 DIIS: error= 4.50D-07 at cycle   9 NSaved=   9.
 NSaved= 9 IEnMin= 9 EnMin= -150.829657239293     IErMin= 9 ErrMin= 4.50D-07
 ErrMax= 4.50D-07  0.00D+00 EMaxC= 1.00D-01 BMatC= 4.60D-11 BMatP= 3.68D-10
 IDIUse=1 WtCom= 1.00D+00 WtEn= 0.00D+00
 Coeff-Com: -0.755D-05 0.127D-03 0.560D-03-0.165D-03-0.124D-01 0.616D-01
 Coeff-Com: -0.278D+00 0.399D+00 0.829D+00
 Coeff:     -0.755D-05 0.127D-03 0.560D-03-0.165D-03-0.124D-01 0.616D-01
 Coeff:     -0.278D+00 0.399D+00 0.829D+00
 Gap=     0.489 Goal=   None    Shift=    0.000
 RMSDP=3.91D-08 MaxDP=1.45D-06 DE=-1.44D-09 OVMax= 5.58D-06

 Cycle  10  Pass 1  IDiag  1:
 E= -150.829657239373     Delta-E=       -0.000000000080 Rises=F Damp=F
 DIIS: error= 1.72D-07 at cycle  10 NSaved=  10.
 NSaved=10 IEnMin=10 EnMin= -150.829657239373     IErMin=10 ErrMin= 1.72D-07
 ErrMax= 1.72D-07  0.00D+00 EMaxC= 1.00D-01 BMatC= 8.05D-12 BMatP= 4.60D-11
 IDIUse=1 WtCom= 1.00D+00 WtEn= 0.00D+00
 Coeff-Com:  0.258D-06-0.237D-04-0.154D-03 0.608D-03 0.192D-02-0.184D-01
 Coeff-Com:  0.137D+00-0.357D+00 0.129D+00 0.111D+01
 Coeff:      0.258D-06-0.237D-04-0.154D-03 0.608D-03 0.192D-02-0.184D-01
 Coeff:      0.137D+00-0.357D+00 0.129D+00 0.111D+01
 Gap=     0.489 Goal=   None    Shift=    0.000
 RMSDP=2.29D-08 MaxDP=7.45D-07 DE=-7.97D-11 OVMax= 3.13D-06

 Cycle  11  Pass 1  IDiag  1:
 E= -150.829657239389     Delta-E=       -0.000000000016 Rises=F Damp=F
 DIIS: error= 3.40D-08 at cycle  11 NSaved=  11.
 NSaved=11 IEnMin=11 EnMin= -150.829657239389     IErMin=11 ErrMin= 3.40D-08
 ErrMax= 3.40D-08  0.00D+00 EMaxC= 1.00D-01 BMatC= 1.93D-13 BMatP= 8.05D-12
 IDIUse=1 WtCom= 1.00D+00 WtEn= 0.00D+00
 Coeff-Com:  0.466D-06-0.304D-05 0.259D-05-0.107D-03 0.166D-03 0.888D-03
 Coeff-Com: -0.174D-01 0.650D-01-0.790D-01-0.285D+00 0.132D+01
 Coeff:      0.466D-06-0.304D-05 0.259D-05-0.107D-03 0.166D-03 0.888D-03
 Coeff:     -0.174D-01 0.650D-01-0.790D-01-0.285D+00 0.132D+01
 Gap=     0.489 Goal=   None    Shift=    0.000
 RMSDP=4.40D-09 MaxDP=1.08D-07 DE=-1.62D-11 OVMax= 5.40D-07

 SCF Done:  E(RHF) =  -150.829657239     A.U. after   11 cycles
            NFock= 11  Conv=0.44D-08     -V/T= 2.0019
 KE= 1.505426139571D+02 PE=-4.315112083772D+02 EE= 9.347889063305D+01
 Leave Link  502 at Fri Apr  3 14:25:02 2020, MaxMem=  2147483648 cpu:              26.4 elap:               3.3
 (Enter /usr/local/g16/g16/l801.exe)
 Windowed orbitals will be sorted by symmetry type.
 ExpMin= 2.53D-02 ExpMax= 1.17D+07 ExpMxC= 1.33D+04 IAcc=3 IRadAn=         5 AccDes= 0.00D+00
 HarFok:  IExCor=  205 AccDes= 0.00D+00 IRadAn=         5 IDoV=-2 UseB2=F ITyADJ=14
 ICtDFT= 12500011 ScaDFX=  1.000000  1.000000  1.000000  1.000000
 Largest valence mixing into a core orbital is  1.19D-04
 Largest core mixing into a valence orbital is  2.08D-05
 Range of M.O.s used for correlation:     3   197
 NBasis=   197 NAE=     9 NBE=     9 NFC=     2 NFV=     0
 NROrb=    195 NOA=     7 NOB=     7 NVA=   188 NVB=   188

 **** Warning!!: The largest alpha MO coefficient is  0.15186602D+02

 Leave Link  801 at Fri Apr  3 14:25:02 2020, MaxMem=  2147483648 cpu:               0.6 elap:               0.0
 (Enter /usr/local/g16/g16/l804.exe)
 Closed-shell transformation, MDV=  2147483648 ITran=4 ISComp=1.
 Semi-Direct transformation.
 ModeAB=           2 MOrb=             7 LenV=    2146278895
 LASXX=     25261509 LTotXX=    25261509 LenRXX=    25261509
 LTotAB=    25646992 MaxLAS=    35947275 LenRXY=    35947275
 NonZer=    50523018 LenScr=    76544000 LnRSAI=           0
 LnScr1=           0 LExtra=           0 Total=    137752784
 MaxDsk=          -1 SrtSym=           F ITran=            4
 DoSDTr:  NPSUse= 16
 JobTyp=0 Pass  1:  I=   1 to   7.
 (rs|ai) integrals will be sorted in core.
 Complete sort for first half transformation.
 First half transformation complete.
 Complete sort for second half transformation.
 Second half transformation complete.
 SymMOI:  orbitals are not symmetric.
 Spin components of T(2) and E(2):
     alpha-alpha T2 =       0.1606424564D-01 E2=     -0.6287489715D-01
     alpha-beta  T2 =       0.9338750012D-01 E2=     -0.3821100179D+00
     beta-beta   T2 =       0.1606424564D-01 E2=     -0.6287489715D-01
 ANorm=    0.1060903385D+01
 E2 =    -0.5078598122D+00 EUMP2 =    -0.15133751705156D+03
 Leave Link  804 at Fri Apr  3 14:25:10 2020, MaxMem=  2147483648 cpu:             118.9 elap:               7.4
 (Enter /usr/local/g16/g16/l913.exe)
 CIDS:  MDV=  2147483648.
 Frozen-core window:  NFC=   2 NFV=   0.
 IFCWin=0 IBDFC=1 NFBD=     0     0 NFCmp=     0     0 NFFFC=     0     0
 Using DD3R+UMP44R for 1st iteration.
 Using DD4RQ for 2nd and later iterations.
 Keep R2 and R3 ints in memory in canonical form, NReq=393338535.
 FoFCou: FMM=F IPFlag=           0 FMFlag=           0 FMFlg1=           0
         NFxFlg=           0 DoJE=F BraDBF=F KetDBF=F FulRan=T
         wScrn=  0.000000 ICntrl=       600 IOpCl=  0 I1Cent=           0 NGrid=           0
         NMat0=    1 NMatS0=  19503 NMatT0=    0 NMatD0=    1 NMtDS0=    0 NMtDT0=    0
 Symmetry not used in FoFCou.
 Two-electron integral symmetry not used.
 CIDS: In Core Option IDoMem=           1.
 MP4(SDTQ)
 =========
 Produce multiple copies of IABC intergrals
 DD1Dir will call FoFMem   1 times, MxPair=        56
 NAB=    28 NAA=     0 NBB=     0.
 MP4(D)= -0.11225422D-01
 MP4(S)= -0.52173092D-02
 MP4(R+Q)=  0.10826972D-01
 T4(AAA)= -0.66512080D-03
 T4(AAB)= -0.10323514D-01
 Time for triples=      367.49 seconds.
 MP4(T)=   -0.21977269D-01
 E3=       -0.20476170D-02        EUMP3=      -0.15133956467D+03
 E4(DQ)=   -0.39844988D-03        UMP4(DQ)=   -0.15133996312D+03
 E4(SDQ)=  -0.56157590D-02        UMP4(SDQ)=  -0.15134518043D+03
 E4(SDTQ)= -0.27593028D-01        UMP4(SDTQ)= -0.15136715770D+03
 VARIATIONAL ENERGIES WITH THE FIRST-ORDER WAVEFUNCTION:
 E(VAR1)=  -0.15128270050D+03     E(CISD,4)=  -0.15129226287D+03
 Largest amplitude= 3.75D-02
 Discarding MO integrals.
 Leave Link  913 at Fri Apr  3 14:25:36 2020, MaxMem=  2147483648 cpu:             423.4 elap:              26.5
 (Enter /usr/local/g16/g16/l601.exe)
 Copying SCF densities to generalized density rwf, IOpCl= 0 IROHF=0.

 **********************************************************************

            Population analysis using the SCF density.

 **********************************************************************

 Orbital symmetries:
       Occupied  (A) (A) (A) (A) (A) (A) (A) (A) (A)
       Virtual   (A) (A) (A) (A) (A) (A) (A) (A) (A) (A) (A) (A)
                 (A) (A) (A) (A) (A) (A) (A) (A) (A) (A) (A) (A)
                 (A) (A) (A) (A) (A) (A) (A) (A) (A) (A) (A) (A)
                 (A) (A) (A) (A) (A) (A) (A) (A) (A) (A) (A) (A)
                 (A) (A) (A) (A) (A) (A) (A) (A) (A) (A) (A) (A)
                 (A) (A) (A) (A) (A) (A) (A) (A) (A) (A) (A) (A)
                 (A) (A) (A) (A) (A) (A) (A) (A) (A) (A) (A) (A)
                 (A) (A) (A) (A) (A) (A) (A) (A) (A) (A) (A) (A)
                 (A) (A) (A) (A) (A) (A) (A) (A) (A) (A) (A) (A)
                 (A) (A) (A) (A) (A) (A) (A) (A) (A) (A) (A) (A)
                 (A) (A) (A) (A) (A) (A) (A) (A) (A) (A) (A) (A)
                 (A) (A) (A) (A) (A) (A) (A) (A) (A) (A) (A) (A)
                 (A) (A) (A) (A) (A) (A) (A) (A) (A) (A) (A) (A)
                 (A) (A) (A) (A) (A) (A) (A) (A) (A) (A) (A) (A)
                 (A) (A) (A) (A) (A) (A) (A) (A) (A) (A) (A) (A)
                 (A) (A) (A) (A) (A) (A) (A) (A)
 The electronic state is 1-A.
 Alpha  occ. eigenvalues --  -20.63490 -20.63462  -1.47289  -1.22049  -0.76689
 Alpha  occ. eigenvalues --   -0.64428  -0.59989  -0.56428  -0.46717
 Alpha virt. eigenvalues --    0.02191   0.04124   0.07180   0.07822   0.10017
 Alpha virt. eigenvalues --    0.10276   0.13924   0.16245   0.17665   0.18428
 Alpha virt. eigenvalues --    0.19172   0.20948   0.22524   0.26613   0.27716
 Alpha virt. eigenvalues --    0.28364   0.29472   0.29886   0.33066   0.35290
 Alpha virt. eigenvalues --    0.36080   0.36111   0.38928   0.41715   0.43746
 Alpha virt. eigenvalues --    0.44612   0.46716   0.47795   0.50968   0.53627
 Alpha virt. eigenvalues --    0.56389   0.59081   0.62769   0.66707   0.71490
 Alpha virt. eigenvalues --    0.74017   0.76030   0.80851   0.81144   0.84760
 Alpha virt. eigenvalues --    0.87142   0.88450   0.91646   0.92087   0.94993
 Alpha virt. eigenvalues --    0.96796   0.99422   0.99806   1.02350   1.03880
 Alpha virt. eigenvalues --    1.05804   1.07806   1.11337   1.12392   1.13297
 Alpha virt. eigenvalues --    1.14486   1.18182   1.24247   1.26191   1.28348
 Alpha virt. eigenvalues --    1.29787   1.30539   1.32160   1.33699   1.35234
 Alpha virt. eigenvalues --    1.36499   1.38704   1.41658   1.47480   1.50915
 Alpha virt. eigenvalues --    1.53094   1.55090   1.58446   1.62072   1.65049
 Alpha virt. eigenvalues --    1.67949   1.71033   1.73923   1.81118   1.82572
 Alpha virt. eigenvalues --    1.88798   1.98669   2.04718   2.10561   2.16341
 Alpha virt. eigenvalues --    2.22707   2.27978   2.30710   2.36304   2.37258
 Alpha virt. eigenvalues --    2.41483   2.47328   2.48134   2.49700   2.54429
 Alpha virt. eigenvalues --    2.63001   2.67584   2.72091   2.78216   2.80098
 Alpha virt. eigenvalues --    2.83450   2.86199   3.03618   3.08181   3.09959
 Alpha virt. eigenvalues --    3.20687   3.24017   3.28753   3.29666   3.32987
 Alpha virt. eigenvalues --    3.45612   3.61412   3.72534   3.77087   3.79723
 Alpha virt. eigenvalues --    3.80517   3.81928   3.82341   3.83005   3.90519
 Alpha virt. eigenvalues --    3.92273   3.96069   3.97292   3.99724   4.10172
 Alpha virt. eigenvalues --    4.17891   4.18324   4.23829   4.26426   4.33418
 Alpha virt. eigenvalues --    4.37407   4.42285   4.42728   4.48577   4.50693
 Alpha virt. eigenvalues --    4.72885   4.74408   4.82524   4.97910   5.23636
 Alpha virt. eigenvalues --    5.23975   5.32979   5.34950   5.36950   5.39793
 Alpha virt. eigenvalues --    5.83226   6.15999   6.36632   6.38279   6.45022
 Alpha virt. eigenvalues --    6.68890   6.71761   6.79783   6.90676   7.02364
 Alpha virt. eigenvalues --    7.12078   7.16538   7.19746   7.21025   7.23413
 Alpha virt. eigenvalues --    7.25522   7.29041   7.30180   7.43767   7.53879
 Alpha virt. eigenvalues --    7.55058   7.62641   7.77104   7.93503   8.37498
 Alpha virt. eigenvalues --    8.40016   8.55944  11.07015  14.49371  14.81240
 Alpha virt. eigenvalues --   14.91557  15.07658  15.37039  29.01302  29.02014
 Alpha virt. eigenvalues --   29.06044  29.19100  29.21606  49.21716 148.29474
 Alpha virt. eigenvalues --  148.44354 148.71068 752.92363
          Condensed to atoms (all electrons):
               1          2          3          4          5
     1  O    8.129298  -0.107224   0.224206   0.012935   0.004033
     2  O   -0.107224   8.123259   0.020298   0.232689  -0.000233
     3  H    0.224206   0.020298   0.502464  -0.008222  -0.002761
     4  H    0.012935   0.232689  -0.008222   0.500666  -0.004670
     5  Kr   0.004033  -0.000233  -0.002761  -0.004670   0.002215
 Mulliken charges:
               1
     1  O   -0.263247
     2  O   -0.268788
     3  H    0.264016
     4  H    0.266603
     5  Kr   0.001416
 Sum of Mulliken charges =  -0.00000
 Mulliken charges with hydrogens summed into heavy atoms:
               1
     1  O    0.000769
     2  O   -0.002185
     5  Kr   0.001416
         Mulliken charges condensed to fragments:
      1     -0.001416
      2      0.001416
 Electronic spatial extent (au):  <R**2>=            316.8838
 Charge=             -0.0000 electrons
 Dipole moment (field-independent basis, Debye):
    X=              3.0510    Y=             -0.0425    Z=              0.8344  Tot=              3.1633
 Quadrupole moment (field-independent basis, Debye-Ang):
   XX=            -21.4440   YY=            -10.3678   ZZ=            -12.4358
   XY=              0.3363   XZ=             -0.7774   YZ=             -0.9479
 Traceless Quadrupole moment (field-independent basis, Debye-Ang):
   XX=             -6.6948   YY=              4.3814   ZZ=              2.3134
   XY=              0.3363   XZ=             -0.7774   YZ=             -0.9479
 Octapole moment (field-independent basis, Debye-Ang**2):
  XXX=             93.2695  YYY=             -0.2497  ZZZ=              0.1767  XYY=             24.2622
  XXY=             -0.6661  XXZ=              0.3650  XZZ=             24.6751  YZZ=             -0.4777
  YYZ=              1.0973  XYZ=              1.1261
 Hexadecapole moment (field-independent basis, Debye-Ang**3):
 XXXX=           -339.1966 YYYY=            -44.2349 ZZZZ=            -10.6163 XXXY=              0.7609
 XXXZ=              0.7282 YYYX=              0.5882 YYYZ=             -1.3178 ZZZX=             -0.4962
 ZZZY=             -0.6390 XXYY=            -63.1336 XXZZ=            -52.5908 YYZZ=            -10.6012
 XXYZ=             -1.3729 YYXZ=             -1.3410 ZZXY=              0.6129
 N-N= 3.666004654772D+01 E-N=-4.315112085569D+02  KE= 1.505426139571D+02
 Leave Link  601 at Fri Apr  3 14:25:37 2020, MaxMem=  2147483648 cpu:               0.5 elap:               0.0
 (Enter /usr/local/g16/g16/l122.exe)
 CPIOFr:  IOpCl= 0 IRwI=-1 IRwCP=  731 ICalc=  1 LCPTot=       59414 Len1MO=      159453 IndFrg=      378320
 Counterpoise: doing calculation for fragment   2 using the basis set of the full-system, NewBq=T
 Leave Link  122 at Fri Apr  3 14:25:37 2020, MaxMem=  2147483648 cpu:               0.0 elap:               0.0
 (Enter /usr/local/g16/g16/l301.exe)
 Basis read from rwf:  (5D, 7F)
 No pseudopotential information found on rwf file.
 There are   229 symmetry adapted cartesian basis functions of A   symmetry.
 There are   197 symmetry adapted basis functions of A   symmetry.
   197 basis functions,   415 primitive gaussians,   229 cartesian basis functions
    18 alpha electrons       18 beta electrons
       nuclear repulsion energy         0.0000000000 Hartrees.
 IExCor=    0 DFT=F Ex=HF Corr=None ExCW=0 ScaHFX=  1.000000
 ScaDFX=  1.000000  1.000000  1.000000  1.000000 ScalE2=  1.000000  1.000000
 IRadAn=      5 IRanWt=     -1 IRanGd=            0 ICorTp=0 IEmpDi=  4
 NAtoms=    5 NActive=    5 NUniq=    5 SFac= 1.00D+00 NAtFMM=   60 NAOKFM=F Big=F
 Integral buffers will be    131072 words long.
 Raffenetti 1 integral format.
 Two-electron integral symmetry is turned on.
 No density basis found on file   718.
 Leave Link  301 at Fri Apr  3 14:25:37 2020, MaxMem=  2147483648 cpu:               0.4 elap:               0.0
 (Enter /usr/local/g16/g16/l302.exe)
 NPDir=0 NMtPBC=     1 NCelOv=     1 NCel=       1 NClECP=     1 NCelD=      1
         NCelK=      1 NCelE2=     1 NClLst=     1 CellRange=     0.0.
 One-electron integrals computed using PRISM.
 One-electron integral symmetry used in STVInt
 NBasis=   197 RedAO= T EigKep=  1.72D-04  NBF=   197
 NBsUse=   197 1.00D-06 EigRej= -1.00D+00 NBFU=   197
 Leave Link  302 at Fri Apr  3 14:25:37 2020, MaxMem=  2147483648 cpu:               1.8 elap:               0.1
 (Enter /usr/local/g16/g16/l303.exe)
 DipDrv:  MaxL=1.
 Leave Link  303 at Fri Apr  3 14:25:37 2020, MaxMem=  2147483648 cpu:               0.4 elap:               0.0
 (Enter /usr/local/g16/g16/l401.exe)
 ExpMin= 2.53D-02 ExpMax= 1.17D+07 ExpMxC= 1.33D+04 IAcc=3 IRadAn=         5 AccDes= 0.00D+00
 Harris functional with IExCor=  205 and IRadAn=       5 diagonalized for initial guess.
 HarFok:  IExCor=  205 AccDes= 0.00D+00 IRadAn=         5 IDoV= 1 UseB2=F ITyADJ=14
 ICtDFT=  3500011 ScaDFX=  1.000000  1.000000  1.000000  1.000000
 FoFCou: FMM=F IPFlag=           0 FMFlag=      100000 FMFlg1=           0
         NFxFlg=           0 DoJE=T BraDBF=F KetDBF=T FulRan=T
         wScrn=  0.000000 ICntrl=       500 IOpCl=  0 I1Cent=   200000004 NGrid=           0
         NMat0=    1 NMatS0=      1 NMatT0=    0 NMatD0=    1 NMtDS0=    0 NMtDT0=    0
 Petite list used in FoFCou.
 Harris En= -2751.06017302908    
 JPrj=0 DoOrth=F DoCkMO=F.
 Leave Link  401 at Fri Apr  3 14:25:37 2020, MaxMem=  2147483648 cpu:               3.0 elap:               0.2
 (Enter /usr/local/g16/g16/l502.exe)
 Keep R1 ints in memory in canonical form, NReq=203139858.
 FoFCou: FMM=F IPFlag=           0 FMFlag=           0 FMFlg1=           0
         NFxFlg=           0 DoJE=F BraDBF=F KetDBF=F FulRan=T
         wScrn=  0.000000 ICntrl=       600 IOpCl=  0 I1Cent=           0 NGrid=           0
         NMat0=    1 NMatS0=  19503 NMatT0=    0 NMatD0=    1 NMtDS0=    0 NMtDT0=    0
 Symmetry not used in FoFCou.
 Two-electron integral symmetry not used.
 Closed shell SCF:
 Using DIIS extrapolation, IDIIS=  1040.
 NGot=  2147483648 LenX=  1957179903 LenY=  1957127021
 Requested convergence on RMS density matrix=1.00D-08 within 128 cycles.
 Requested convergence on MAX density matrix=1.00D-06.
 Requested convergence on             energy=1.00D-06.
 No special actions if energy rises.

 Cycle   1  Pass 1  IDiag  1:
 E= -2752.00348273961    
 DIIS: error= 5.94D-02 at cycle   1 NSaved=   1.
 NSaved= 1 IEnMin= 1 EnMin= -2752.00348273961     IErMin= 1 ErrMin= 5.94D-02
 ErrMax= 5.94D-02  0.00D+00 EMaxC= 1.00D-01 BMatC= 4.33D-01 BMatP= 4.33D-01
 IDIUse=3 WtCom= 4.06D-01 WtEn= 5.94D-01
 Coeff-Com:  0.100D+01
 Coeff-En:   0.100D+01
 Coeff:      0.100D+01
 Gap=     0.630 Goal=   None    Shift=    0.000
 GapD=    0.630 DampG=2.000 DampE=0.500 DampFc=1.0000 IDamp=-1.
 RMSDP=1.79D-03 MaxDP=1.32D-01              OVMax= 2.38D-02

 Cycle   2  Pass 1  IDiag  1:
 E= -2752.04696490995     Delta-E=       -0.043482170341 Rises=F Damp=F
 DIIS: error= 6.71D-03 at cycle   2 NSaved=   2.
 NSaved= 2 IEnMin= 2 EnMin= -2752.04696490995     IErMin= 2 ErrMin= 6.71D-03
 ErrMax= 6.71D-03  0.00D+00 EMaxC= 1.00D-01 BMatC= 1.99D-02 BMatP= 4.33D-01
 IDIUse=3 WtCom= 9.33D-01 WtEn= 6.71D-02
 Coeff-Com:  0.151D+00 0.849D+00
 Coeff-En:   0.000D+00 0.100D+01
 Coeff:      0.141D+00 0.859D+00
 Gap=     0.545 Goal=   None    Shift=    0.000
 RMSDP=5.79D-04 MaxDP=3.59D-02 DE=-4.35D-02 OVMax= 1.31D-02

 Cycle   3  Pass 1  IDiag  1:
 E= -2752.05206187069     Delta-E=       -0.005096960743 Rises=F Damp=F
 DIIS: error= 1.21D-03 at cycle   3 NSaved=   3.
 NSaved= 3 IEnMin= 3 EnMin= -2752.05206187069     IErMin= 3 ErrMin= 1.21D-03
 ErrMax= 1.21D-03  0.00D+00 EMaxC= 1.00D-01 BMatC= 7.17D-04 BMatP= 1.99D-02
 IDIUse=3 WtCom= 9.88D-01 WtEn= 1.21D-02
 Coeff-Com: -0.131D-02 0.155D+00 0.846D+00
 Coeff-En:   0.000D+00 0.000D+00 0.100D+01
 Coeff:     -0.129D-02 0.153D+00 0.848D+00
 Gap=     0.556 Goal=   None    Shift=    0.000
 RMSDP=7.60D-05 MaxDP=4.48D-03 DE=-5.10D-03 OVMax= 2.88D-03

 Cycle   4  Pass 1  IDiag  1:
 E= -2752.05227406718     Delta-E=       -0.000212196492 Rises=F Damp=F
 DIIS: error= 4.62D-05 at cycle   4 NSaved=   4.
 NSaved= 4 IEnMin= 4 EnMin= -2752.05227406718     IErMin= 4 ErrMin= 4.62D-05
 ErrMax= 4.62D-05  0.00D+00 EMaxC= 1.00D-01 BMatC= 7.15D-07 BMatP= 7.17D-04
 IDIUse=1 WtCom= 1.00D+00 WtEn= 0.00D+00
 Coeff-Com: -0.357D-03-0.172D-01-0.577D-01 0.108D+01
 Coeff:     -0.357D-03-0.172D-01-0.577D-01 0.108D+01
 Gap=     0.555 Goal=   None    Shift=    0.000
 RMSDP=6.16D-06 MaxDP=2.88D-04 DE=-2.12D-04 OVMax= 2.70D-04

 Cycle   5  Pass 1  IDiag  1:
 E= -2752.05227449881     Delta-E=       -0.000000431625 Rises=F Damp=F
 DIIS: error= 2.90D-06 at cycle   5 NSaved=   5.
 NSaved= 5 IEnMin= 5 EnMin= -2752.05227449881     IErMin= 5 ErrMin= 2.90D-06
 ErrMax= 2.90D-06  0.00D+00 EMaxC= 1.00D-01 BMatC= 6.14D-09 BMatP= 7.15D-07
 IDIUse=1 WtCom= 1.00D+00 WtEn= 0.00D+00
 Coeff-Com:  0.611D-04-0.934D-05-0.528D-02-0.851D-01 0.109D+01
 Coeff:      0.611D-04-0.934D-05-0.528D-02-0.851D-01 0.109D+01
 Gap=     0.555 Goal=   None    Shift=    0.000
 RMSDP=6.97D-07 MaxDP=2.94D-05 DE=-4.32D-07 OVMax= 2.80D-05

 Cycle   6  Pass 1  IDiag  1:
 E= -2752.05227450476     Delta-E=       -0.000000005957 Rises=F Damp=F
 DIIS: error= 3.13D-07 at cycle   6 NSaved=   6.
 NSaved= 6 IEnMin= 6 EnMin= -2752.05227450476     IErMin= 6 ErrMin= 3.13D-07
 ErrMax= 3.13D-07  0.00D+00 EMaxC= 1.00D-01 BMatC= 4.24D-11 BMatP= 6.14D-09
 IDIUse=1 WtCom= 1.00D+00 WtEn= 0.00D+00
 Coeff-Com: -0.293D-05 0.100D-03 0.870D-03-0.207D-02-0.918D-01 0.109D+01
 Coeff:     -0.293D-05 0.100D-03 0.870D-03-0.207D-02-0.918D-01 0.109D+01
 Gap=     0.555 Goal=   None    Shift=    0.000
 RMSDP=6.43D-08 MaxDP=3.76D-06 DE=-5.96D-09 OVMax= 3.34D-06

 Cycle   7  Pass 1  IDiag  1:
 E= -2752.05227450480     Delta-E=       -0.000000000036 Rises=F Damp=F
 DIIS: error= 2.35D-08 at cycle   7 NSaved=   7.
 NSaved= 7 IEnMin= 7 EnMin= -2752.05227450480     IErMin= 7 ErrMin= 2.35D-08
 ErrMax= 2.35D-08  0.00D+00 EMaxC= 1.00D-01 BMatC= 1.81D-13 BMatP= 4.24D-11
 IDIUse=1 WtCom= 1.00D+00 WtEn= 0.00D+00
 Coeff-Com: -0.911D-07 0.366D-06 0.516D-05 0.181D-03-0.135D-02-0.182D-01
 Coeff-Com:  0.102D+01
 Coeff:     -0.911D-07 0.366D-06 0.516D-05 0.181D-03-0.135D-02-0.182D-01
 Coeff:      0.102D+01
 Gap=     0.555 Goal=   None    Shift=    0.000
 RMSDP=5.36D-09 MaxDP=1.99D-07 DE=-3.64D-11 OVMax= 2.69D-07

 SCF Done:  E(RHF) =  -2752.05227450     A.U. after    7 cycles
            NFock=  7  Conv=0.54D-08     -V/T= 2.0000
 KE= 2.752038065832D+03 PE=-6.582552555589D+03 EE= 1.078462215253D+03
 Leave Link  502 at Fri Apr  3 14:25:40 2020, MaxMem=  2147483648 cpu:              25.2 elap:               2.7
 (Enter /usr/local/g16/g16/l801.exe)
 Windowed orbitals will be sorted by symmetry type.
 ExpMin= 2.53D-02 ExpMax= 1.17D+07 ExpMxC= 1.33D+04 IAcc=3 IRadAn=         5 AccDes= 0.00D+00
 HarFok:  IExCor=  205 AccDes= 0.00D+00 IRadAn=         5 IDoV=-2 UseB2=F ITyADJ=14
 ICtDFT= 12500011 ScaDFX=  1.000000  1.000000  1.000000  1.000000
 Largest valence mixing into a core orbital is  9.81D-05
 Largest core mixing into a valence orbital is  3.83D-05
 Range of M.O.s used for correlation:    10   197
 NBasis=   197 NAE=    18 NBE=    18 NFC=     9 NFV=     0
 NROrb=    188 NOA=     9 NOB=     9 NVA=   179 NVB=   179

 **** Warning!!: The largest alpha MO coefficient is  0.15593660D+02

 Leave Link  801 at Fri Apr  3 14:25:40 2020, MaxMem=  2147483648 cpu:               0.5 elap:               0.0
 (Enter /usr/local/g16/g16/l804.exe)
 Closed-shell transformation, MDV=  2147483648 ITran=4 ISComp=1.
 Semi-Direct transformation.
 ModeAB=           2 MOrb=             9 LenV=    2146333386
 LASXX=     28892340 LTotXX=    28892340 LenRXX=    28892340
 LTotAB=    29348001 MaxLAS=    44558820 LenRXY=    44558820
 NonZer=    57784680 LenScr=    87449600 LnRSAI=           0
 LnScr1=           0 LExtra=           0 Total=    160900760
 MaxDsk=          -1 SrtSym=           F ITran=            4
 DoSDTr:  NPSUse= 16
 JobTyp=0 Pass  1:  I=   1 to   9.
 (rs|ai) integrals will be sorted in core.
 Complete sort for first half transformation.
 First half transformation complete.
 Complete sort for second half transformation.
 Second half transformation complete.
 SymMOI:  orbitals are not symmetric.
 Spin components of T(2) and E(2):
     alpha-alpha T2 =       0.9507732336D-02 E2=     -0.3587361149D-01
     alpha-beta  T2 =       0.4823525052D-01 E2=     -0.1727258616D+00
     beta-beta   T2 =       0.9507732336D-02 E2=     -0.3587361149D-01
 ANorm=    0.1033078272D+01
 E2 =    -0.2444730845D+00 EUMP2 =    -0.27522967475893D+04
 Leave Link  804 at Fri Apr  3 14:25:48 2020, MaxMem=  2147483648 cpu:             128.8 elap:               8.1
 (Enter /usr/local/g16/g16/l913.exe)
 CIDS:  MDV=  2147483648.
 Frozen-core window:  NFC=   9 NFV=   0.
 IFCWin=0 IBDFC=1 NFBD=     0     0 NFCmp=     0     0 NFFFC=     0     0
 Using DD3R+UMP44R for 1st iteration.
 Using DD4RQ for 2nd and later iterations.
 Keep R2 and R3 ints in memory in canonical form, NReq=393339125.
 FoFCou: FMM=F IPFlag=           0 FMFlag=           0 FMFlg1=           0
         NFxFlg=           0 DoJE=F BraDBF=F KetDBF=F FulRan=T
         wScrn=  0.000000 ICntrl=       600 IOpCl=  0 I1Cent=           0 NGrid=           0
         NMat0=    1 NMatS0=  19503 NMatT0=    0 NMatD0=    1 NMtDS0=    0 NMtDT0=    0
 Symmetry not used in FoFCou.
 Two-electron integral symmetry not used.
 CIDS: In Core Option IDoMem=           1.
 MP4(SDTQ)
 =========
 Produce multiple copies of IABC intergrals
 DD1Dir will call FoFMem   1 times, MxPair=        90
 NAB=    45 NAA=     0 NBB=     0.
 MP4(D)= -0.37304755D-02
 MP4(S)= -0.10932812D-02
 MP4(R+Q)=  0.42592930D-02
 T4(AAA)= -0.32634374D-03
 T4(AAB)= -0.35742108D-02
 Time for triples=      472.85 seconds.
 MP4(T)=   -0.78011092D-02
 E3=       -0.98469989D-02        EUMP3=      -0.27523065946D+04
 E4(DQ)=    0.52881749D-03        UMP4(DQ)=   -0.27523060658D+04
 E4(SDQ)=  -0.56446374D-03        UMP4(SDQ)=  -0.27523071591D+04
 E4(SDTQ)= -0.83655729D-02        UMP4(SDTQ)= -0.27523149602D+04
 VARIATIONAL ENERGIES WITH THE FIRST-ORDER WAVEFUNCTION:
 E(VAR1)=  -0.27522905691D+04     E(CISD,4)=  -0.27522949774D+04
 Largest amplitude= 1.29D-02
 Discarding MO integrals.
 Leave Link  913 at Fri Apr  3 14:26:22 2020, MaxMem=  2147483648 cpu:             538.6 elap:              33.7
 (Enter /usr/local/g16/g16/l601.exe)
 Copying SCF densities to generalized density rwf, IOpCl= 0 IROHF=0.

 **********************************************************************

            Population analysis using the SCF density.

 **********************************************************************

 Orbital symmetries:
       Occupied  (A) (A) (A) (A) (A) (A) (A) (A) (A) (A) (A) (A)
                 (A) (A) (A) (A) (A) (A)
       Virtual   (A) (A) (A) (A) (A) (A) (A) (A) (A) (A) (A) (A)
                 (A) (A) (A) (A) (A) (A) (A) (A) (A) (A) (A) (A)
                 (A) (A) (A) (A) (A) (A) (A) (A) (A) (A) (A) (A)
                 (A) (A) (A) (A) (A) (A) (A) (A) (A) (A) (A) (A)
                 (A) (A) (A) (A) (A) (A) (A) (A) (A) (A) (A) (A)
                 (A) (A) (A) (A) (A) (A) (A) (A) (A) (A) (A) (A)
                 (A) (A) (A) (A) (A) (A) (A) (A) (A) (A) (A) (A)
                 (A) (A) (A) (A) (A) (A) (A) (A) (A) (A) (A) (A)
                 (A) (A) (A) (A) (A) (A) (A) (A) (A) (A) (A) (A)
                 (A) (A) (A) (A) (A) (A) (A) (A) (A) (A) (A) (A)
                 (A) (A) (A) (A) (A) (A) (A) (A) (A) (A) (A) (A)
                 (A) (A) (A) (A) (A) (A) (A) (A) (A) (A) (A) (A)
                 (A) (A) (A) (A) (A) (A) (A) (A) (A) (A) (A) (A)
                 (A) (A) (A) (A) (A) (A) (A) (A) (A) (A) (A) (A)
                 (A) (A) (A) (A) (A) (A) (A) (A) (A) (A) (A)
 The electronic state is 1-A.
 Alpha  occ. eigenvalues -- -520.16586 -69.90318 -63.00976 -63.00976 -63.00976
 Alpha  occ. eigenvalues --  -10.84955  -8.33155  -8.33154  -8.33153  -3.82532
 Alpha  occ. eigenvalues --   -3.82532  -3.82532  -3.82531  -3.82530  -1.15310
 Alpha  occ. eigenvalues --   -0.52430  -0.52429  -0.52428
 Alpha virt. eigenvalues --    0.03118   0.04962   0.08686   0.09704   0.12247
 Alpha virt. eigenvalues --    0.13376   0.13683   0.13934   0.16024   0.17254
 Alpha virt. eigenvalues --    0.17906   0.18818   0.21778   0.27399   0.28636
 Alpha virt. eigenvalues --    0.28895   0.30237   0.33362   0.34521   0.38219
 Alpha virt. eigenvalues --    0.38878   0.39687   0.40500   0.41651   0.42717
 Alpha virt. eigenvalues --    0.42790   0.47440   0.55899   0.58218   0.62238
 Alpha virt. eigenvalues --    0.64276   0.65465   0.69350   0.71251   0.74049
 Alpha virt. eigenvalues --    0.74449   0.76492   0.79394   0.80207   0.81270
 Alpha virt. eigenvalues --    0.82793   0.86650   0.87200   0.88589   0.90512
 Alpha virt. eigenvalues --    0.91011   0.92726   0.93384   0.95641   1.00329
 Alpha virt. eigenvalues --    1.01780   1.02621   1.04003   1.04955   1.07071
 Alpha virt. eigenvalues --    1.09720   1.10768   1.12530   1.18855   1.19819
 Alpha virt. eigenvalues --    1.23497   1.25465   1.33687   1.36841   1.40976
 Alpha virt. eigenvalues --    1.42543   1.44652   1.50942   1.51411   1.54675
 Alpha virt. eigenvalues --    1.62756   1.63905   1.66167   1.75740   1.78353
 Alpha virt. eigenvalues --    1.85424   1.87052   1.89942   1.91135   2.24154
 Alpha virt. eigenvalues --    2.26361   2.36359   2.37567   2.38353   2.40727
 Alpha virt. eigenvalues --    2.42112   2.47256   2.48639   2.49711   2.53462
 Alpha virt. eigenvalues --    2.54953   2.55874   2.57649   2.60366   2.62721
 Alpha virt. eigenvalues --    2.64526   2.65504   2.66810   2.70289   2.71230
 Alpha virt. eigenvalues --    2.71804   2.73763   2.79314   2.81519   2.82630
 Alpha virt. eigenvalues --    2.83573   2.88654   2.93757   2.96041   3.00266
 Alpha virt. eigenvalues --    3.02400   3.04530   3.08060   3.12305   3.21128
 Alpha virt. eigenvalues --    3.25309   3.28190   3.32037   3.42615   3.50304
 Alpha virt. eigenvalues --    3.61687   3.65974   3.85872   3.88060   4.02417
 Alpha virt. eigenvalues --    4.47256   4.52357   4.55234   4.60864   4.71929
 Alpha virt. eigenvalues --    4.79592   4.89253   4.90751   5.02181   5.07803
 Alpha virt. eigenvalues --    5.22701   5.25284   5.60253   5.61437   5.74768
 Alpha virt. eigenvalues --    5.98390   6.03426   6.14557   6.76018   6.90053
 Alpha virt. eigenvalues --    7.33406   7.36790   7.64536   7.69291   7.77118
 Alpha virt. eigenvalues --    7.85944   8.01493   8.14479   8.19039   8.26804
 Alpha virt. eigenvalues --    8.27233   8.42087   8.68306   8.97571   9.51685
 Alpha virt. eigenvalues --    9.72561   9.80890   9.90337   9.93483   9.94670
 Alpha virt. eigenvalues --   10.19512  10.22212  10.64839  10.89986  11.52491
 Alpha virt. eigenvalues --   11.62627  11.71183  11.97426  12.01988  13.24762
 Alpha virt. eigenvalues --   13.62301  14.54061  62.42802  64.72112
          Condensed to atoms (all electrons):
               1          2          3          4          5
     1  O    0.000522  -0.000133  -0.000455   0.000146  -0.003083
     2  O   -0.000133   0.001032   0.000087  -0.000821  -0.002126
     3  H   -0.000455   0.000087   0.000599  -0.000143  -0.003926
     4  H    0.000146  -0.000821  -0.000143   0.000958  -0.007737
     5  Kr  -0.003083  -0.002126  -0.003926  -0.007737  36.033272
 Mulliken charges:
               1
     1  O    0.003004
     2  O    0.001960
     3  H    0.003838
     4  H    0.007597
     5  Kr  -0.016399
 Sum of Mulliken charges =  -0.00000
 Mulliken charges with hydrogens summed into heavy atoms:
               1
     1  O    0.006841
     2  O    0.009558
     5  Kr  -0.016399
         Mulliken charges condensed to fragments:
      1      0.016399
      2     -0.016399
 Electronic spatial extent (au):  <R**2>=            160.0838
 Charge=             -0.0000 electrons
 Dipole moment (field-independent basis, Debye):
    X=             -0.0012    Y=              0.0001    Z=              0.0001  Tot=              0.0012
 Quadrupole moment (field-independent basis, Debye-Ang):
   XX=            -17.7278   YY=            -17.7312   ZZ=            -17.7362
   XY=             -0.0007   XZ=             -0.0014   YZ=             -0.0007
 Traceless Quadrupole moment (field-independent basis, Debye-Ang):
   XX=              0.0039   YY=              0.0005   ZZ=             -0.0044
   XY=             -0.0007   XZ=             -0.0014   YZ=             -0.0007
 Octapole moment (field-independent basis, Debye-Ang**2):
  XXX=            -51.4961  YYY=              0.0645  ZZZ=              0.1693  XYY=            -17.1718
  XXY=              0.0196  XXZ=              0.0541  XZZ=            -17.1761  YZZ=              0.0219
  YYZ=              0.0566  XYZ=             -0.0004
 Hexadecapole moment (field-independent basis, Debye-Ang**3):
 XXXX=           -118.2543 YYYY=            -18.5385 ZZZZ=            -18.5570 XXXY=              0.0583
 XXXZ=              0.1596 YYYX=              0.0599 YYYZ=             -0.0003 ZZZX=              0.1597
 ZZZY=             -0.0017 XXYY=            -22.8037 XXZZ=            -22.8105 YYZZ=             -6.1822
 XXYZ=             -0.0007 YYXZ=              0.0535 ZZXY=              0.0195
 N-N= 0.000000000000D+00 E-N=-6.582552556852D+03  KE= 2.752038065832D+03
 Leave Link  601 at Fri Apr  3 14:26:22 2020, MaxMem=  2147483648 cpu:               0.5 elap:               0.0
 (Enter /usr/local/g16/g16/l122.exe)
 CPIOFr:  IOpCl= 0 IRwI=-1 IRwCP=  731 ICalc=  2 LCPTot=       59414 Len1MO=      159453 IndFrg=      537773
 Counterpoise: doing calculation for fragment   1 using the basis set of the fragment.
 Leave Link  122 at Fri Apr  3 14:26:22 2020, MaxMem=  2147483648 cpu:               0.0 elap:               0.0
 (Enter /usr/local/g16/g16/l301.exe)
 Basis read from rwf:  (5D, 7F)
 No pseudopotential information found on rwf file.
 There are   160 symmetry adapted cartesian basis functions of A   symmetry.
 There are   138 symmetry adapted basis functions of A   symmetry.
   138 basis functions,   198 primitive gaussians,   160 cartesian basis functions
     9 alpha electrons        9 beta electrons
       nuclear repulsion energy        36.6600465477 Hartrees.
 IExCor=    0 DFT=F Ex=HF Corr=None ExCW=0 ScaHFX=  1.000000
 ScaDFX=  1.000000  1.000000  1.000000  1.000000 ScalE2=  1.000000  1.000000
 IRadAn=      5 IRanWt=     -1 IRanGd=            0 ICorTp=0 IEmpDi=  4
 NAtoms=    5 NActive=    4 NUniq=    4 SFac= 1.00D+00 NAtFMM=   60 NAOKFM=F Big=F
 Integral buffers will be    131072 words long.
 Raffenetti 1 integral format.
 Two-electron integral symmetry is turned on.
 No density basis found on file   718.
 Leave Link  301 at Fri Apr  3 14:26:22 2020, MaxMem=  2147483648 cpu:               0.4 elap:               0.0
 (Enter /usr/local/g16/g16/l302.exe)
 NPDir=0 NMtPBC=     1 NCelOv=     1 NCel=       1 NClECP=     1 NCelD=      1
         NCelK=      1 NCelE2=     1 NClLst=     1 CellRange=     0.0.
 One-electron integrals computed using PRISM.
 One-electron integral symmetry used in STVInt
 NBasis=   138 RedAO= T EigKep=  2.13D-04  NBF=   138
 NBsUse=   138 1.00D-06 EigRej= -1.00D+00 NBFU=   138
 Leave Link  302 at Fri Apr  3 14:26:22 2020, MaxMem=  2147483648 cpu:               1.4 elap:               0.1
 (Enter /usr/local/g16/g16/l303.exe)
 DipDrv:  MaxL=1.
 Leave Link  303 at Fri Apr  3 14:26:22 2020, MaxMem=  2147483648 cpu:               0.3 elap:               0.0
 (Enter /usr/local/g16/g16/l401.exe)
 ExpMin= 2.53D-02 ExpMax= 1.53D+04 ExpMxC= 5.22D+02 IAcc=3 IRadAn=         5 AccDes= 0.00D+00
 Harris functional with IExCor=  205 and IRadAn=       5 diagonalized for initial guess.
 HarFok:  IExCor=  205 AccDes= 0.00D+00 IRadAn=         5 IDoV= 1 UseB2=F ITyADJ=14
 ICtDFT=  3500011 ScaDFX=  1.000000  1.000000  1.000000  1.000000
 FoFCou: FMM=F IPFlag=           0 FMFlag=      100000 FMFlg1=           0
         NFxFlg=           0 DoJE=T BraDBF=F KetDBF=T FulRan=T
         wScrn=  0.000000 ICntrl=       500 IOpCl=  0 I1Cent=   200000004 NGrid=           0
         NMat0=    1 NMatS0=      1 NMatT0=    0 NMatD0=    1 NMtDS0=    0 NMtDT0=    0
 Petite list used in FoFCou.
 Harris En= -150.933227359411    
 JPrj=0 DoOrth=F DoCkMO=F.
 Leave Link  401 at Fri Apr  3 14:26:22 2020, MaxMem=  2147483648 cpu:               2.2 elap:               0.1
 (Enter /usr/local/g16/g16/l502.exe)
 Keep R1 ints in memory in canonical form, NReq=53860811.
 FoFCou: FMM=F IPFlag=           0 FMFlag=           0 FMFlg1=           0
         NFxFlg=           0 DoJE=F BraDBF=F KetDBF=F FulRan=T
         wScrn=  0.000000 ICntrl=       600 IOpCl=  0 I1Cent=           0 NGrid=           0
         NMat0=    1 NMatS0=   9591 NMatT0=    0 NMatD0=    1 NMtDS0=    0 NMtDT0=    0
 Symmetry not used in FoFCou.
 Two-electron integral symmetry not used.
 Closed shell SCF:
 Using DIIS extrapolation, IDIIS=  1040.
 NGot=  2147483648 LenX=  2101430001 LenY=  2101403960
 Requested convergence on RMS density matrix=1.00D-08 within 128 cycles.
 Requested convergence on MAX density matrix=1.00D-06.
 Requested convergence on             energy=1.00D-06.
 No special actions if energy rises.

 Cycle   1  Pass 1  IDiag  1:
 E= -150.763907398489    
 DIIS: error= 3.72D-02 at cycle   1 NSaved=   1.
 NSaved= 1 IEnMin= 1 EnMin= -150.763907398489     IErMin= 1 ErrMin= 3.72D-02
 ErrMax= 3.72D-02  0.00D+00 EMaxC= 1.00D-01 BMatC= 2.31D-01 BMatP= 2.31D-01
 IDIUse=3 WtCom= 6.28D-01 WtEn= 3.72D-01
 Coeff-Com:  0.100D+01
 Coeff-En:   0.100D+01
 Coeff:      0.100D+01
 Gap=     0.691 Goal=   None    Shift=    0.000
 GapD=    0.691 DampG=2.000 DampE=0.500 DampFc=1.0000 IDamp=-1.
 RMSDP=1.28D-03 MaxDP=2.88D-02              OVMax= 6.84D-02

 Cycle   2  Pass 1  IDiag  1:
 E= -150.818880537359     Delta-E=       -0.054973138870 Rises=F Damp=F
 DIIS: error= 1.15D-02 at cycle   2 NSaved=   2.
 NSaved= 2 IEnMin= 2 EnMin= -150.818880537359     IErMin= 2 ErrMin= 1.15D-02
 ErrMax= 1.15D-02  0.00D+00 EMaxC= 1.00D-01 BMatC= 1.77D-02 BMatP= 2.31D-01
 IDIUse=3 WtCom= 8.85D-01 WtEn= 1.15D-01
 Coeff-Com:  0.116D+00 0.884D+00
 Coeff-En:   0.000D+00 0.100D+01
 Coeff:      0.103D+00 0.897D+00
 Gap=     0.522 Goal=   None    Shift=    0.000
 RMSDP=7.71D-04 MaxDP=2.54D-02 DE=-5.50D-02 OVMax= 2.98D-02

 Cycle   3  Pass 1  IDiag  1:
 E= -150.827933389645     Delta-E=       -0.009052852286 Rises=F Damp=F
 DIIS: error= 4.44D-03 at cycle   3 NSaved=   3.
 NSaved= 3 IEnMin= 3 EnMin= -150.827933389645     IErMin= 3 ErrMin= 4.44D-03
 ErrMax= 4.44D-03  0.00D+00 EMaxC= 1.00D-01 BMatC= 2.58D-03 BMatP= 1.77D-02
 IDIUse=3 WtCom= 9.56D-01 WtEn= 4.44D-02
 Coeff-Com: -0.212D-01 0.255D+00 0.766D+00
 Coeff-En:   0.000D+00 0.000D+00 0.100D+01
 Coeff:     -0.202D-01 0.244D+00 0.776D+00
 Gap=     0.491 Goal=   None    Shift=    0.000
 RMSDP=1.79D-04 MaxDP=4.62D-03 DE=-9.05D-03 OVMax= 1.00D-02

 Cycle   4  Pass 1  IDiag  1:
 E= -150.829552377339     Delta-E=       -0.001618987694 Rises=F Damp=F
 DIIS: error= 4.07D-04 at cycle   4 NSaved=   4.
 NSaved= 4 IEnMin= 4 EnMin= -150.829552377339     IErMin= 4 ErrMin= 4.07D-04
 ErrMax= 4.07D-04  0.00D+00 EMaxC= 1.00D-01 BMatC= 1.72D-05 BMatP= 2.58D-03
 IDIUse=3 WtCom= 9.96D-01 WtEn= 4.07D-03
 Coeff-Com: -0.188D-02-0.120D-01 0.119D-01 0.100D+01
 Coeff-En:   0.000D+00 0.000D+00 0.000D+00 0.100D+01
 Coeff:     -0.187D-02-0.119D-01 0.118D-01 0.100D+01
 Gap=     0.493 Goal=   None    Shift=    0.000
 RMSDP=2.51D-05 MaxDP=4.44D-04 DE=-1.62D-03 OVMax= 1.34D-03

 Cycle   5  Pass 1  IDiag  1:
 E= -150.829576248942     Delta-E=       -0.000023871603 Rises=F Damp=F
 DIIS: error= 1.34D-04 at cycle   5 NSaved=   5.
 NSaved= 5 IEnMin= 5 EnMin= -150.829576248942     IErMin= 5 ErrMin= 1.34D-04
 ErrMax= 1.34D-04  0.00D+00 EMaxC= 1.00D-01 BMatC= 1.59D-06 BMatP= 1.72D-05
 IDIUse=3 WtCom= 9.99D-01 WtEn= 1.34D-03
 Coeff-Com:  0.176D-02-0.169D-01-0.594D-01-0.157D+00 0.123D+01
 Coeff-En:   0.000D+00 0.000D+00 0.000D+00 0.000D+00 0.100D+01
 Coeff:      0.175D-02-0.169D-01-0.593D-01-0.157D+00 0.123D+01
 Gap=     0.494 Goal=   None    Shift=    0.000
 RMSDP=1.34D-05 MaxDP=2.86D-04 DE=-2.39D-05 OVMax= 8.66D-04

 Cycle   6  Pass 1  IDiag  1:
[...]
 Symmetry not used in FoFCou.
 Two-electron integral symmetry not used.
 Closed shell SCF:
 Using DIIS extrapolation, IDIIS=  1040.
 NGot=  2147483648 LenX=  2101430001 LenY=  2101403960
 Requested convergence on RMS density matrix=1.00D-08 within 128 cycles.
 Requested convergence on MAX density matrix=1.00D-06.
 Requested convergence on             energy=1.00D-06.
 No special actions if energy rises.

 Cycle   1  Pass 1  IDiag  1:
 E= -150.829580275432    
 DIIS: error= 1.02D-10 at cycle   1 NSaved=   1.
 NSaved= 1 IEnMin= 1 EnMin= -150.829580275432     IErMin= 1 ErrMin= 1.02D-10
 ErrMax= 1.02D-10  0.00D+00 EMaxC= 1.00D-01 BMatC= 1.28D-18 BMatP= 1.28D-18
 IDIUse=1 WtCom= 1.00D+00 WtEn= 0.00D+00
 Coeff-Com:  0.100D+01
 Coeff:      0.100D+01
 Gap=     0.861 Goal=   None    Shift=    0.000
 RMSDP=6.30D-12 MaxDP=1.89D-10              OVMax= 4.61D-10

 SCF Done:  E(RHF) =  -150.829580275     A.U. after    1 cycles
            NFock=  1  Conv=0.63D-11     -V/T= 2.0019
 KE= 1.505428200287D+02 PE=-4.315100429871D+02 EE= 9.347759613521D+01
 Leave Link  502 at Fri Apr  3 15:42:38 2020, MaxMem=  2147483648 cpu:               7.3 elap:               0.5
 (Enter /usr/local/g16/g16/l801.exe)
 Windowed orbitals will be sorted by symmetry type.
 ExpMin= 2.53D-02 ExpMax= 1.53D+04 ExpMxC= 5.22D+02 IAcc=3 IRadAn=         5 AccDes= 0.00D+00
 HarFok:  IExCor=  205 AccDes= 0.00D+00 IRadAn=         5 IDoV=-2 UseB2=F ITyADJ=14
 ICtDFT= 12500011 ScaDFX=  1.000000  1.000000  1.000000  1.000000
 Largest valence mixing into a core orbital is  1.19D-04
 Largest core mixing into a valence orbital is  2.08D-05
 Range of M.O.s used for correlation:     3   138
 NBasis=   138 NAE=     9 NBE=     9 NFC=     2 NFV=     0
 NROrb=    136 NOA=     7 NOB=     7 NVA=   129 NVB=   129

 **** Warning!!: The largest alpha MO coefficient is  0.16268762D+02

 Leave Link  801 at Fri Apr  3 15:42:38 2020, MaxMem=  2147483648 cpu:               0.6 elap:               0.0
 (Enter /usr/local/g16/g16/l804.exe)
 Closed-shell transformation, MDV=  2147483648 ITran=4 ISComp=1.
 Semi-Direct transformation.
 ModeAB=           2 MOrb=             7 LenV=    2146849405
 LASXX=      8463147 LTotXX=     8463147 LenRXX=     8463147
 LTotAB=     8647912 MaxLAS=    12261760 LenRXY=    12261760
 NonZer=    16926294 LenScr=    26146816 LnRSAI=           0
 LnScr1=           0 LExtra=           0 Total=     46871723
 MaxDsk=          -1 SrtSym=           F ITran=            4
 DoSDTr:  NPSUse= 16
 JobTyp=0 Pass  1:  I=   1 to   7.
 (rs|ai) integrals will be sorted in core.
 Complete sort for first half transformation.
 First half transformation complete.
 Complete sort for second half transformation.
 Second half transformation complete.
 SymMOI:  orbitals are not symmetric.
 Spin components of T(2) and E(2):
     alpha-alpha T2 =       0.1606356715D-01 E2=     -0.6286701267D-01
     alpha-beta  T2 =       0.9338052894D-01 E2=     -0.3819170132D+00
     beta-beta   T2 =       0.1606356715D-01 E2=     -0.6286701267D-01
 ANorm=    0.1060899460D+01
 E2 =    -0.5076510385D+00 EUMP2 =    -0.15133723131398D+03
 Leave Link  804 at Fri Apr  3 15:42:39 2020, MaxMem=  2147483648 cpu:              28.1 elap:               1.8
 (Enter /usr/local/g16/g16/l913.exe)
 CIDS:  MDV=  2147483648.
 Frozen-core window:  NFC=   2 NFV=   0.
 IFCWin=0 IBDFC=1 NFBD=     0     0 NFCmp=     0     0 NFFFC=     0     0
 Using DD3R+UMP44R for 1st iteration.
 Using DD4RQ for 2nd and later iterations.
 Keep R2 and R3 ints in memory in canonical form, NReq=99863705.
 FoFCou: FMM=F IPFlag=           0 FMFlag=           0 FMFlg1=           0
         NFxFlg=           0 DoJE=F BraDBF=F KetDBF=F FulRan=T
         wScrn=  0.000000 ICntrl=       600 IOpCl=  0 I1Cent=           0 NGrid=           0
         NMat0=    1 NMatS0=   9591 NMatT0=    0 NMatD0=    1 NMtDS0=    0 NMtDT0=    0
 Symmetry not used in FoFCou.
 Two-electron integral symmetry not used.
 CIDS: In Core Option IDoMem=           1.
 MP4(SDTQ)
 =========
 Produce multiple copies of IABC intergrals
 DD1Dir will call FoFMem   1 times, MxPair=        56
 NAB=    28 NAA=     0 NBB=     0.
 MP4(D)= -0.11222778D-01
 MP4(S)= -0.52153610D-02
 MP4(R+Q)=  0.10817047D-01
 T4(AAA)= -0.66440977D-03
 T4(AAB)= -0.10313245D-01
 Time for triples=       95.80 seconds.
 MP4(T)=   -0.21955310D-01
 E3=       -0.20444720D-02        EUMP3=      -0.15133927579D+03
 E4(DQ)=   -0.40573063D-03        UMP4(DQ)=   -0.15133968152D+03
 E4(SDQ)=  -0.56210916D-02        UMP4(SDQ)=  -0.15134489688D+03
 E4(SDTQ)= -0.27576402D-01        UMP4(SDTQ)= -0.15136685219D+03
 VARIATIONAL ENERGIES WITH THE FIRST-ORDER WAVEFUNCTION:
 E(VAR1)=  -0.15128243860D+03     E(CISD,4)=  -0.15129199983D+03
 Largest amplitude= 5.00D-02
 Discarding MO integrals.
 Leave Link  913 at Fri Apr  3 15:42:47 2020, MaxMem=  2147483648 cpu:             118.8 elap:               7.4
 (Enter /usr/local/g16/g16/l122.exe)
 CPIOFr:  IOpCl= 0 IRwI=-1 IRwCP=  731 ICalc=  3 LCPTot=       59414 Len1MO=      159453 IndFrg=      697226
 Restoring MOs from calculation   5 to rwf and chk.
 CPIOFr:  IOpCl= 0 IRwI=-2 IRwCP=20731 ICalc=  4 LCPTot=       59414 Len1MO=      159453 IndFrg=      856679
 CPIOFr:  IOpCl= 0 IRwI= 4 IRwCP=20731 ICalc=  4 LCPTot=       59414 Len1MO=      159453 IndFrg=      856679
 Counterpoise: doing calculation for fragment   2 using the basis set of the fragment.
 Leave Link  122 at Fri Apr  3 15:42:47 2020, MaxMem=  2147483648 cpu:               0.0 elap:               0.0
 (Enter /usr/local/g16/g16/l301.exe)
 Basis read from rwf:  (5D, 7F)
 No pseudopotential information found on rwf file.
 There are    69 symmetry adapted cartesian basis functions of A   symmetry.
 There are    59 symmetry adapted basis functions of A   symmetry.
    59 basis functions,   217 primitive gaussians,    69 cartesian basis functions
    18 alpha electrons       18 beta electrons
       nuclear repulsion energy         0.0000000000 Hartrees.
 IExCor=    0 DFT=F Ex=HF Corr=None ExCW=0 ScaHFX=  1.000000
 ScaDFX=  1.000000  1.000000  1.000000  1.000000 ScalE2=  1.000000  1.000000
 IRadAn=      5 IRanWt=     -1 IRanGd=            0 ICorTp=0 IEmpDi=  4
 NAtoms=    5 NActive=    1 NUniq=    1 SFac= 1.00D+00 NAtFMM=   60 NAOKFM=F Big=F
 Integral buffers will be    131072 words long.
 Raffenetti 1 integral format.
 Two-electron integral symmetry is turned on.
 No density basis found on file   718.
 Leave Link  301 at Fri Apr  3 15:42:47 2020, MaxMem=  2147483648 cpu:               0.4 elap:               0.0
 (Enter /usr/local/g16/g16/l302.exe)
 NPDir=0 NMtPBC=     1 NCelOv=     1 NCel=       1 NClECP=     1 NCelD=      1
         NCelK=      1 NCelE2=     1 NClLst=     1 CellRange=     0.0.
 One-electron integrals computed using PRISM.
 One-electron integral symmetry used in STVInt
 NBasis=    59 RedAO= T EigKep=  1.06D-02  NBF=    59
 NBsUse=    59 1.00D-06 EigRej= -1.00D+00 NBFU=    59
 Leave Link  302 at Fri Apr  3 15:42:47 2020, MaxMem=  2147483648 cpu:               1.3 elap:               0.1
 (Enter /usr/local/g16/g16/l303.exe)
 DipDrv:  MaxL=1.
 Leave Link  303 at Fri Apr  3 15:42:47 2020, MaxMem=  2147483648 cpu:               0.3 elap:               0.0
 (Enter /usr/local/g16/g16/l401.exe)
 Initial guess from the checkpoint file:  "/mnt/driveB/scratch/matheus/Gau-112375.chk"
 B after Tr=     0.062990    0.000028    0.000075
         Rot=    1.000000    0.000000    0.000000    0.000000 Ang=   0.00 deg.
 Guess basis will be translated and rotated to current coordinates.
 JPrj=2 DoOrth=T DoCkMO=T.
 Generating alternative initial guess.
 ExpMin= 4.00D-02 ExpMax= 1.17D+07 ExpMxC= 1.33D+04 IAcc=3 IRadAn=         5 AccDes= 0.00D+00
 Harris functional with IExCor=  205 and IRadAn=       5 diagonalized for initial guess.
 HarFok:  IExCor=  205 AccDes= 0.00D+00 IRadAn=         5 IDoV= 1 UseB2=F ITyADJ=14
 ICtDFT=  3500011 ScaDFX=  1.000000  1.000000  1.000000  1.000000
 FoFCou: FMM=F IPFlag=           0 FMFlag=      100000 FMFlg1=           0
         NFxFlg=           0 DoJE=T BraDBF=F KetDBF=T FulRan=T
         wScrn=  0.000000 ICntrl=       500 IOpCl=  0 I1Cent=   200000004 NGrid=           0
         NMat0=    1 NMatS0=      1 NMatT0=    0 NMatD0=    1 NMtDS0=    0 NMtDT0=    0
 Petite list used in FoFCou.
 Harris En= -2751.05937170533    
 Leave Link  401 at Fri Apr  3 15:42:47 2020, MaxMem=  2147483648 cpu:               2.3 elap:               0.2
 (Enter /usr/local/g16/g16/l502.exe)
 Keep R1 ints in memory in canonical form, NReq=14291944.
 FoFCou: FMM=F IPFlag=           0 FMFlag=           0 FMFlg1=           0
         NFxFlg=           0 DoJE=F BraDBF=F KetDBF=F FulRan=T
         wScrn=  0.000000 ICntrl=       600 IOpCl=  0 I1Cent=           0 NGrid=           0
         NMat0=    1 NMatS0=   1770 NMatT0=    0 NMatD0=    1 NMtDS0=    0 NMtDT0=    0
 Symmetry not used in FoFCou.
 Two-electron integral symmetry not used.
 Closed shell SCF:
 Using DIIS extrapolation, IDIIS=  1040.
 NGot=  2147483648 LenX=  2145904888 LenY=  2145899686
 Requested convergence on RMS density matrix=1.00D-08 within 128 cycles.
 Requested convergence on MAX density matrix=1.00D-06.
 Requested convergence on             energy=1.00D-06.
 No special actions if energy rises.

 Cycle   1  Pass 1  IDiag  1:
 E= -2752.05222307625    
 DIIS: error= 1.72D-13 at cycle   1 NSaved=   1.
 NSaved= 1 IEnMin= 1 EnMin= -2752.05222307625     IErMin= 1 ErrMin= 1.72D-13
 ErrMax= 1.72D-13  0.00D+00 EMaxC= 1.00D-01 BMatC= 6.18D-25 BMatP= 6.18D-25
 IDIUse=1 WtCom= 1.00D+00 WtEn= 0.00D+00
 Coeff-Com:  0.100D+01
 Coeff:      0.100D+01
 Gap=     0.719 Goal=   None    Shift=    0.000
 RMSDP=1.44D-14 MaxDP=2.33D-13              OVMax= 4.68D-13

 SCF Done:  E(RHF) =  -2752.05222308     A.U. after    1 cycles
            NFock=  1  Conv=0.14D-13     -V/T= 2.0000
 KE= 2.752048106937D+03 PE=-6.582565276257D+03 EE= 1.078464946243D+03
 Leave Link  502 at Fri Apr  3 15:42:48 2020, MaxMem=  2147483648 cpu:               8.9 elap:               0.6
 (Enter /usr/local/g16/g16/l801.exe)
 Windowed orbitals will be sorted by symmetry type.
 ExpMin= 4.00D-02 ExpMax= 1.17D+07 ExpMxC= 1.33D+04 IAcc=3 IRadAn=         5 AccDes= 0.00D+00
 HarFok:  IExCor=  205 AccDes= 0.00D+00 IRadAn=         5 IDoV=-2 UseB2=F ITyADJ=14
 ICtDFT= 12500011 ScaDFX=  1.000000  1.000000  1.000000  1.000000
 Largest valence mixing into a core orbital is  9.79D-05
 Largest core mixing into a valence orbital is  3.83D-05
 Range of M.O.s used for correlation:    10    59
 NBasis=    59 NAE=    18 NBE=    18 NFC=     9 NFV=     0
 NROrb=     50 NOA=     9 NOB=     9 NVA=    41 NVB=    41
 Leave Link  801 at Fri Apr  3 15:42:48 2020, MaxMem=  2147483648 cpu:               0.4 elap:               0.0
 (Enter /usr/local/g16/g16/l804.exe)
 Closed-shell transformation, MDV=  2147483648 ITran=4 ISComp=1.
 Semi-Direct transformation.
 ModeAB=           2 MOrb=             9 LenV=    2147140326
 LASXX=       482211 LTotXX=      482211 LenRXX=      482211
 LTotAB=      511245 MaxLAS=     1086750 LenRXY=     1086750
 NonZer=     1162350 LenScr=     2357760 LnRSAI=           0
 LnScr1=           0 LExtra=           0 Total=      3926721
 MaxDsk=          -1 SrtSym=           F ITran=            4
 DoSDTr:  NPSUse= 16
 JobTyp=0 Pass  1:  I=   1 to   9.
 (rs|ai) integrals will be sorted in core.
 Complete sort for first half transformation.
 First half transformation complete.
 Complete sort for second half transformation.
 Second half transformation complete.
 SymMOI:  orbitals are not symmetric.
 Spin components of T(2) and E(2):
     alpha-alpha T2 =       0.9484485167D-02 E2=     -0.3552398032D-01
     alpha-beta  T2 =       0.4799866946D-01 E2=     -0.1708433112D+00
     beta-beta   T2 =       0.9484485167D-02 E2=     -0.3552398032D-01
 ANorm=    0.1032941257D+01
 E2 =    -0.2418912719D+00 EUMP2 =    -0.27522941143481D+04
 Leave Link  804 at Fri Apr  3 15:42:48 2020, MaxMem=  2147483648 cpu:               5.4 elap:               0.3
 (Enter /usr/local/g16/g16/l913.exe)
 CIDS:  MDV=  2147483648.
 Frozen-core window:  NFC=   9 NFV=   0.
 IFCWin=0 IBDFC=1 NFBD=     0     0 NFCmp=     0     0 NFFFC=     0     0
 Using DD3R+UMP44R for 1st iteration.
 Using DD4RQ for 2nd and later iterations.
 Keep R2 and R3 ints in memory in canonical form, NReq=15862484.
 FoFCou: FMM=F IPFlag=           0 FMFlag=           0 FMFlg1=           0
         NFxFlg=           0 DoJE=F BraDBF=F KetDBF=F FulRan=T
         wScrn=  0.000000 ICntrl=       600 IOpCl=  0 I1Cent=           0 NGrid=           0
         NMat0=    1 NMatS0=   1770 NMatT0=    0 NMatD0=    1 NMtDS0=    0 NMtDT0=    0
 Symmetry not used in FoFCou.
 Two-electron integral symmetry not used.
 CIDS: In Core Option IDoMem=           1.
 MP4(SDTQ)
 =========
 Produce multiple copies of IABC intergrals
 DD1Dir will call FoFMem   1 times, MxPair=        90
 NAB=    45 NAA=     0 NBB=     0.
 MP4(D)= -0.36913093D-02
 MP4(S)= -0.10734540D-02
 MP4(R+Q)=  0.42077927D-02
 T4(AAA)= -0.32336090D-03
 T4(AAB)= -0.35259699D-02
 Time for triples=        3.42 seconds.
 MP4(T)=   -0.76986616D-02
 E3=       -0.99406389D-02        EUMP3=      -0.27523040550D+04
 E4(DQ)=    0.51648341D-03        UMP4(DQ)=   -0.27523035385D+04
 E4(SDQ)=  -0.55697064D-03        UMP4(SDQ)=  -0.27523046120D+04
 E4(SDTQ)= -0.82556322D-02        UMP4(SDTQ)= -0.27523123106D+04
 VARIATIONAL ENERGIES WITH THE FIRST-ORDER WAVEFUNCTION:
 E(VAR1)=  -0.27522882489D+04     E(CISD,4)=  -0.27522926209D+04
 Largest amplitude= 2.38D-02
 Discarding MO integrals.
 Leave Link  913 at Fri Apr  3 15:42:49 2020, MaxMem=  2147483648 cpu:              13.7 elap:               0.9
 (Enter /usr/local/g16/g16/l122.exe)
 CPIOFr:  IOpCl= 0 IRwI=-1 IRwCP=  731 ICalc=  4 LCPTot=       59414 Len1MO=      159453 IndFrg=      856679
 Restoring MOs from calculation   1 to rwf.
 CPIOFr:  IOpCl= 0 IRwI=-2 IRwCP=  731 ICalc=  0 LCPTot=       59414 Len1MO=      159453 IndFrg=      218867
 Counterpoise corrected energy =   -2903.679526051159
                   BSSE energy =       0.000262426465
              sum of fragments =   -2903.679162807196
           complexation energy =      -0.39 kcal/mole (raw)
           complexation energy =      -0.23 kcal/mole (corrected)
 Leave Link  122 at Fri Apr  3 15:42:49 2020, MaxMem=  2147483648 cpu:               0.0 elap:               0.0
 (Enter /usr/local/g16/g16/l108.exe)
 Scan completed.
 
 Summary of the potential surface scan, energies are +2752 a.u.:
   N      R1          SCF          MP2          MP3         MP4DQ       MP4SDQ       MP4SDTQ  
 ----  ---------  -----------  -----------  -----------  -----------  -----------  -----------
    1     3.0000     -0.05222     -0.29411     -0.30405     -0.30354     -0.30461     -0.31231
    2     3.1000     -0.05222     -0.29411     -0.30405     -0.30354     -0.30461     -0.31231
    3     3.2000     -0.05222     -0.29411     -0.30405     -0.30354     -0.30461     -0.31231
    4     3.3000     -0.05222     -0.29411     -0.30405     -0.30354     -0.30461     -0.31231
    5     3.4000     -0.05222     -0.29411     -0.30405     -0.30354     -0.30461     -0.31231
    6     3.5000     -0.05222     -0.29411     -0.30405     -0.30354     -0.30461     -0.31231
    7     3.6000     -0.05222     -0.29411     -0.30405     -0.30354     -0.30461     -0.31231
    8     3.7000     -0.05222     -0.29411     -0.30405     -0.30354     -0.30461     -0.31231
    9     3.8000     -0.05222     -0.29411     -0.30405     -0.30354     -0.30461     -0.31231
   10     3.9000     -0.05222     -0.29411     -0.30405     -0.30354     -0.30461     -0.31231
   11     4.0000     -0.05222     -0.29411     -0.30405     -0.30354     -0.30461     -0.31231
   12     4.1000     -0.05222     -0.29411     -0.30405     -0.30354     -0.30461     -0.31231
   13     4.2000     -0.05222     -0.29411     -0.30405     -0.30354     -0.30461     -0.31231
   14     4.3000     -0.05222     -0.29411     -0.30405     -0.30354     -0.30461     -0.31231
   15     4.4000     -0.05222     -0.29411     -0.30405     -0.30354     -0.30461     -0.31231
   16     4.5000     -0.05222     -0.29411     -0.30405     -0.30354     -0.30461     -0.31231
   17     4.6000     -0.05222     -0.29411     -0.30405     -0.30354     -0.30461     -0.31231
   18     4.7000     -0.05222     -0.29411     -0.30405     -0.30354     -0.30461     -0.31231
   19     4.8000     -0.05222     -0.29411     -0.30405     -0.30354     -0.30461     -0.31231
   20     4.9000     -0.05222     -0.29411     -0.30405     -0.30354     -0.30461     -0.31231
   21     5.0000     -0.05222     -0.29411     -0.30405     -0.30354     -0.30461     -0.31231
 ----  ---------  -----------  -----------  -----------  -----------  -----------  -----------
  
 Leave Link  108 at Fri Apr  3 15:42:49 2020, MaxMem=  2147483648 cpu:               0.1 elap:               0.0
 (Enter /usr/local/g16/g16/l9999.exe)
 1\1\GINC-ARTHUR-MS-7B09\Scan\RMP4SDTQ-FC\Aug-CC-pVTZ\H2Kr1O2\MATHEUS\0
 3-Apr-2020\1\\#p mp4/aug-cc-PVTz int=ultrafine counterpoise=2 Scan\\PT
 CC\\0,1\O,0,0.,0.,0.725\O,0,0.,0.,-0.725\H,0,-0.4593602974,0.795635374
 ,1.0235104166\H,0,0.,0.9187205947,-1.0235104166\Kr,0,0.,R1,0.\\R1=3.,s
 ,20,0.1\\Version=ES64L-G16RevA.03\HF=-2752.0522231,-2752.0522231,-2752
 .0522231,-2752.0522231,-2752.0522231,-2752.0522231,-2752.0522231,-2752
 .0522231,-2752.0522231,-2752.0522231,-2752.0522231,-2752.0522231,-2752
 .0522231,-2752.0522231,-2752.0522231,-2752.0522231,-2752.0522231,-2752
 .0522231,-2752.0522231,-2752.0522231,-2752.0522231\MP2=-2752.2941143,-
 2752.2941143,-2752.2941143,-2752.2941143,-2752.2941143,-2752.2941143,-
 2752.2941143,-2752.2941143,-2752.2941143,-2752.2941143,-2752.2941143,-
 2752.2941143,-2752.2941143,-2752.2941143,-2752.2941143,-2752.2941143,-
 2752.2941143,-2752.2941143,-2752.2941143,-2752.2941143,-2752.2941143\M
 P3=-2752.304055,-2752.304055,-2752.304055,-2752.304055,-2752.304055,-2
 752.304055,-2752.304055,-2752.304055,-2752.304055,-2752.304055,-2752.3
 04055,-2752.304055,-2752.304055,-2752.304055,-2752.304055,-2752.304055
 ,-2752.304055,-2752.304055,-2752.304055,-2752.304055,-2752.304055\MP4D
 =-2752.3077463,-2752.3077463,-2752.3077463,-2752.3077463,-2752.3077463
 ,-2752.3077463,-2752.3077463,-2752.3077463,-2752.3077463,-2752.3077463
 ,-2752.3077463,-2752.3077463,-2752.3077463,-2752.3077463,-2752.3077463
 ,-2752.3077463,-2752.3077463,-2752.3077463,-2752.3077463,-2752.3077463
 ,-2752.3077463\MP4DQ=-2752.3035385,-2752.3035385,-2752.3035385,-2752.3
 035385,-2752.3035385,-2752.3035385,-2752.3035385,-2752.3035385,-2752.3
 035385,-2752.3035385,-2752.3035385,-2752.3035385,-2752.3035385,-2752.3
 035385,-2752.3035385,-2752.3035385,-2752.3035385,-2752.3035385,-2752.3
 035385,-2752.3035385,-2752.3035385\MP4SDQ=-2752.304612,-2752.304612,-2
 752.304612,-2752.304612,-2752.304612,-2752.304612,-2752.304612,-2752.3
 04612,-2752.304612,-2752.304612,-2752.304612,-2752.304612,-2752.304612
 ,-2752.304612,-2752.304612,-2752.304612,-2752.304612,-2752.304612,-275
 2.304612,-2752.304612,-2752.304612\MP4SDTQ=-2752.3123106,-2752.3123106
 ,-2752.3123106,-2752.3123106,-2752.3123106,-2752.3123106,-2752.3123106
 ,-2752.3123106,-2752.3123106,-2752.3123106,-2752.3123106,-2752.3123106
 ,-2752.3123106,-2752.3123106,-2752.3123106,-2752.3123106,-2752.3123106
 ,-2752.3123106,-2752.3123106,-2752.3123106,-2752.3123106\RMSD=9.887e-1
 0,1.149e-10,2.884e-11,7.214e-12,1.870e-12,4.672e-13,1.331e-13,3.545e-1
 4,1.476e-14,7.132e-15,6.997e-15,4.048e-15,5.427e-15,7.598e-15,7.046e-1
 5,4.899e-15,1.420e-14,1.367e-14,7.570e-15,4.871e-15,1.445e-14\PG=C01 [
 X(H2Kr1O2)]\\@


 TO BEHOLD HARMS OF OUR OWN HANDS DOING,
 WHERE NONE BESIDE US WROUGHT,
 CAUSES SHARP RUING...

                                         SOPHOCLES
 Job cpu time:       0 days 20 hours 49 minutes 56.8 seconds.
 Elapsed time:       0 days  1 hours 19 minutes 22.5 seconds.
 File lengths (MBytes):  RWF=   4068 Int=      0 D2E=      0 Chk=     12 Scr=      1
 Normal termination of Gaussian 16 at Fri Apr  3 15:42:49 2020.
