 Entering Gaussian System, Link 0=g16
 Input=Inputs/H2O2-Kr_26.com
 Output=Logs/H2O2-Kr_26.log
 Initial command:
 /usr/local/g16/g16/l1.exe "/mnt/driveB/scratch/matheus/Gau-128104.inp" -scrdir="/mnt/driveB/scratch/matheus/"
 Entering Link 1 = /usr/local/g16/g16/l1.exe PID=    128106.
  
 Copyright (c) 1988,1990,1992,1993,1995,1998,2003,2009,2016,
            Gaussian, Inc.  All Rights Reserved.
  
 This is part of the Gaussian(R) 16 program.  It is based on
 the Gaussian(R) 09 system (copyright 2009, Gaussian, Inc.),
 the Gaussian(R) 03 system (copyright 2003, Gaussian, Inc.),
 the Gaussian(R) 98 system (copyright 1998, Gaussian, Inc.),
 the Gaussian(R) 94 system (copyright 1995, Gaussian, Inc.),
 the Gaussian 92(TM) system (copyright 1992, Gaussian, Inc.),
 the Gaussian 90(TM) system (copyright 1990, Gaussian, Inc.),
 the Gaussian 88(TM) system (copyright 1988, Gaussian, Inc.),
 the Gaussian 86(TM) system (copyright 1986, Carnegie Mellon
 University), and the Gaussian 82(TM) system (copyright 1983,
 Carnegie Mellon University). Gaussian is a federally registered
 trademark of Gaussian, Inc.
  
 This software contains proprietary and confidential information,
 including trade secrets, belonging to Gaussian, Inc.
  
 This software is provided under written license and may be
 used, copied, transmitted, or stored only in accord with that
 written license.
  
 The following legend is applicable only to US Government
 contracts under FAR:
  
                    RESTRICTED RIGHTS LEGEND
  
 Use, reproduction and disclosure by the US Government is
 subject to restrictions as set forth in subparagraphs (a)
 and (c) of the Commercial Computer Software - Restricted
 Rights clause in FAR 52.227-19.
  
 Gaussian, Inc.
 340 Quinnipiac St., Bldg. 40, Wallingford CT 06492
  
  
 ---------------------------------------------------------------
 Warning -- This program may not be used in any manner that
 competes with the business of Gaussian, Inc. or will provide
 assistance to any competitor of Gaussian, Inc.  The licensee
 of this program is prohibited from giving any competitor of
 Gaussian, Inc. access to this program.  By using this program,
 the user acknowledges that Gaussian, Inc. is engaged in the
 business of creating and licensing software in the field of
 computational chemistry and represents and warrants to the
 licensee that it is not a competitor of Gaussian, Inc. and that
 it will not use this program in any manner prohibited above.
 ---------------------------------------------------------------
  

 Cite this work as:
 Gaussian 16, Revision A.03,
 M. J. Frisch, G. W. Trucks, H. B. Schlegel, G. E. Scuseria, 
 M. A. Robb, J. R. Cheeseman, G. Scalmani, V. Barone, 
 G. A. Petersson, H. Nakatsuji, X. Li, M. Caricato, A. V. Marenich, 
 J. Bloino, B. G. Janesko, R. Gomperts, B. Mennucci, H. P. Hratchian, 
 J. V. Ortiz, A. F. Izmaylov, J. L. Sonnenberg, D. Williams-Young, 
 F. Ding, F. Lipparini, F. Egidi, J. Goings, B. Peng, A. Petrone, 
 T. Henderson, D. Ranasinghe, V. G. Zakrzewski, J. Gao, N. Rega, 
 G. Zheng, W. Liang, M. Hada, M. Ehara, K. Toyota, R. Fukuda, 
 J. Hasegawa, M. Ishida, T. Nakajima, Y. Honda, O. Kitao, H. Nakai, 
 T. Vreven, K. Throssell, J. A. Montgomery, Jr., J. E. Peralta, 
 F. Ogliaro, M. J. Bearpark, J. J. Heyd, E. N. Brothers, K. N. Kudin, 
 V. N. Staroverov, T. A. Keith, R. Kobayashi, J. Normand, 
 K. Raghavachari, A. P. Rendell, J. C. Burant, S. S. Iyengar, 
 J. Tomasi, M. Cossi, J. M. Millam, M. Klene, C. Adamo, R. Cammi, 
 J. W. Ochterski, R. L. Martin, K. Morokuma, O. Farkas, 
 J. B. Foresman, and D. J. Fox, Gaussian, Inc., Wallingford CT, 2016.
 
 ******************************************
 Gaussian 16:  ES64L-G16RevA.03 25-Dec-2016
                 2-Apr-2020 
 ******************************************
 %mem=16GB
 %nproc=16
 Will use up to   16 processors via shared memory.
 ----------------------------------------------------
 #p mp4/aug-cc-PVTz int=ultrafine counterpoise=2 Scan
 ----------------------------------------------------
 1/38=1,60=1,62=2,172=1/1,8;
 2/12=2,17=6,18=5,29=3,40=1/2;
 1/38=1,53=2,62=2,63=1/22;
 3/5=16,6=1,7=10,11=9,25=1,30=1,75=-5/1,2,3;
 4//1;
 5/5=2,38=5/2;
 8/6=4,9=120000,10=1/1,4;
 9/5=5/13;
 6/7=2,8=2,9=2,10=2,18=1/1;
 1/53=2,62=2,63=1/22;
 3/5=7,6=11,7=10,11=9,25=1,30=1,75=-5,82=7/1,2,3;
 4//1;
 5/5=2,38=5/2;
 8/6=4,9=120000,10=1/1,4;
 9/5=5/13;
 6/7=2,8=2,9=2,10=2,18=1/1;
 1/53=2,62=2,63=1/22(-6);
 1/60=1,62=2/8(1);
 99/9=1/99;
 2/29=3/2;
 1/53=3,62=2,63=1/22;
 3/5=7,6=11,7=10,11=9,25=1,30=1,75=-5,82=7/1,2,3;
 4/5=5,16=3,69=1/1;
 5/5=2,38=5/2;
 8/6=4,9=120000,10=1/1,4;
 9/5=5/13;
 1/53=3,62=2,63=1/22(-5);
 1/60=1,62=2/8(-8);
 99/9=1/99;
 Leave Link    1 at Thu Apr  2 09:34:17 2020, MaxMem=  2147483648 cpu:               0.3 elap:               0.0
 (Enter /usr/local/g16/g16/l101.exe)
 ----
 PTCC
 ----
 Symbolic Z-matrix:
 Charge =  0 Multiplicity = 1 in supermolecule
 Charge =  0 Multiplicity = 1 in fragment      1.
 Charge =  0 Multiplicity = 1 in fragment      2.
 O(Fragment=1)         0.        0.        0.725 
 O(Fragment=1)         0.        0.       -0.725 
 H(Fragment=1)        -0.90476  -0.15953   1.02351 
 H(Fragment=1)         0.        0.91872  -1.02351 
 Kr(Fragment=2)        0.       R1        0. 
       Variables:
  R1                    3.     Scan 20    0.1    
 
 ITRead=  0  0  0  0  0
 MicOpt= -1 -1 -1 -1 -1
 NAtoms=      5 NQM=        5 NQMF=       0 NMMI=      0 NMMIF=      0
                NMic=       0 NMicF=      0.
                    Isotopes and Nuclear Properties:
 (Nuclear quadrupole moments (NQMom) in fm**2, nuclear magnetic moments (NMagM)
  in nuclear magnetons)

  Atom         1           2           3           4           5
 IAtWgt=          16          16           1           1          84
 AtmWgt=  15.9949146  15.9949146   1.0078250   1.0078250  83.9115064
 NucSpn=           0           0           1           1           0
 AtZEff=  -0.0000000  -0.0000000  -0.0000000  -0.0000000  -0.0000000
 NQMom=    0.0000000   0.0000000   0.0000000   0.0000000   0.0000000
 NMagM=    0.0000000   0.0000000   2.7928460   2.7928460   0.0000000
 AtZNuc=   8.0000000   8.0000000   1.0000000   1.0000000  36.0000000
 Leave Link  101 at Thu Apr  2 09:34:17 2020, MaxMem=  2147483648 cpu:               1.8 elap:               0.1
 (Enter /usr/local/g16/g16/l108.exe)
 Scan the potential surface.
 Variable   Value     No. Steps Step-Size
 -------- ----------- --------- ---------
     1       3.000000      20      0.1000
 A total of     21 points will be computed.
 Leave Link  108 at Thu Apr  2 09:34:17 2020, MaxMem=  2147483648 cpu:               0.0 elap:               0.0
 (Enter /usr/local/g16/g16/l202.exe)
 ---------------------------------------------------------------------------------------------------
                            Z-MATRIX (ANGSTROMS AND DEGREES)
   CD    Cent   Atom    N1       Length/X        N2       Alpha/Y        N3        Beta/Z          J
 ---------------------------------------------------------------------------------------------------
      1      1  O        0   0.000000          0.000000          0.725000
      2      2  O        0   0.000000          0.000000         -0.725000
      3      3  H        0  -0.904763         -0.159534          1.023510
      4      4  H        0   0.000000          0.918721         -1.023510
      5      5  Kr       0   0.000000          3.000000          0.000000
 ---------------------------------------------------------------------------------------------------
                         Z-Matrix orientation:                         
 ---------------------------------------------------------------------
 Center     Atomic      Atomic             Coordinates (Angstroms)
 Number     Number       Type             X           Y           Z
 ---------------------------------------------------------------------
      1          8           0        0.000000    0.000000    0.725000
      2          8           0        0.000000    0.000000   -0.725000
      3          1           0       -0.904763   -0.159534    1.023510
      4          1           0        0.000000    0.918721   -1.023510
      5         36           0        0.000000    3.000000    0.000000
 ---------------------------------------------------------------------
                    Distance matrix (angstroms):
                    1          2          3          4          5
     1  O    0.000000
     2  O    1.450000   0.000000
     3  H    0.966000   1.975180   0.000000
     4  H    1.975180   0.966000   2.484255   0.000000
     5  Kr   3.086361   3.086361   3.442212   2.319331   0.000000
 Stoichiometry    H2KrO2
 Framework group  C1[X(H2KrO2)]
 Deg. of freedom     9
 Full point group                 C1      NOp   1
 Largest Abelian subgroup         C1      NOp   1
 Largest concise Abelian subgroup C1      NOp   1
                         Standard orientation:                         
 ---------------------------------------------------------------------
 Center     Atomic      Atomic             Coordinates (Angstroms)
 Number     Number       Type             X           Y           Z
 ---------------------------------------------------------------------
      1          8           0       -2.021768   -0.693300   -0.118861
      2          8           0       -2.004728    0.750466    0.014370
      3          1           0       -2.201795   -1.071309    0.751687
      4          1           0       -1.082725    1.035355    0.058021
      5         36           0        0.986014   -0.011705    0.000728
 ---------------------------------------------------------------------
 Rotational constants (GHZ):          25.6313316           2.3378634           2.1561704
 Leave Link  202 at Thu Apr  2 09:34:17 2020, MaxMem=  2147483648 cpu:               0.0 elap:               0.0
 (Enter /usr/local/g16/g16/l122.exe)
 Counterpoise: doing full-system calculation.
 Leave Link  122 at Thu Apr  2 09:34:17 2020, MaxMem=  2147483648 cpu:               0.0 elap:               0.0
 (Enter /usr/local/g16/g16/l301.exe)
 Standard basis: Aug-CC-pVTZ (5D, 7F)
 Ernie: Thresh=  0.10000D-02 Tol=  0.10000D-05 Strict=F.
 Ernie:  38 primitive shells out of 205 were deleted.
 There are   229 symmetry adapted cartesian basis functions of A   symmetry.
 There are   197 symmetry adapted basis functions of A   symmetry.
   197 basis functions,   415 primitive gaussians,   229 cartesian basis functions
    27 alpha electrons       27 beta electrons
       nuclear repulsion energy       149.1283776456 Hartrees.
 IExCor=    0 DFT=F Ex=HF Corr=None ExCW=0 ScaHFX=  1.000000
 ScaDFX=  1.000000  1.000000  1.000000  1.000000 ScalE2=  1.000000  1.000000
 IRadAn=      5 IRanWt=     -1 IRanGd=            0 ICorTp=0 IEmpDi=  4
 NAtoms=    5 NActive=    5 NUniq=    5 SFac= 1.00D+00 NAtFMM=   60 NAOKFM=F Big=F
 Integral buffers will be    131072 words long.
 Raffenetti 1 integral format.
 Two-electron integral symmetry is turned on.
 Leave Link  301 at Thu Apr  2 09:34:17 2020, MaxMem=  2147483648 cpu:               0.4 elap:               0.0
 (Enter /usr/local/g16/g16/l302.exe)
 NPDir=0 NMtPBC=     1 NCelOv=     1 NCel=       1 NClECP=     1 NCelD=      1
         NCelK=      1 NCelE2=     1 NClLst=     1 CellRange=     0.0.
 One-electron integrals computed using PRISM.
 One-electron integral symmetry used in STVInt
 NBasis=   197 RedAO= T EigKep=  2.11D-04  NBF=   197
 NBsUse=   197 1.00D-06 EigRej= -1.00D+00 NBFU=   197
 Leave Link  302 at Thu Apr  2 09:34:17 2020, MaxMem=  2147483648 cpu:               1.9 elap:               0.1
 (Enter /usr/local/g16/g16/l303.exe)
 DipDrv:  MaxL=1.
 Leave Link  303 at Thu Apr  2 09:34:17 2020, MaxMem=  2147483648 cpu:               0.4 elap:               0.0
 (Enter /usr/local/g16/g16/l401.exe)
 ExpMin= 2.53D-02 ExpMax= 1.17D+07 ExpMxC= 1.33D+04 IAcc=3 IRadAn=         5 AccDes= 0.00D+00
 Harris functional with IExCor=  205 and IRadAn=       5 diagonalized for initial guess.
 HarFok:  IExCor=  205 AccDes= 0.00D+00 IRadAn=         5 IDoV= 1 UseB2=F ITyADJ=14
 ICtDFT=  3500011 ScaDFX=  1.000000  1.000000  1.000000  1.000000
 FoFCou: FMM=F IPFlag=           0 FMFlag=      100000 FMFlg1=           0
         NFxFlg=           0 DoJE=T BraDBF=F KetDBF=T FulRan=T
         wScrn=  0.000000 ICntrl=       500 IOpCl=  0 I1Cent=   200000004 NGrid=           0
         NMat0=    1 NMatS0=      1 NMatT0=    0 NMatD0=    1 NMtDS0=    0 NMtDT0=    0
 Petite list used in FoFCou.
 Harris En= -2901.99379026204    
 JPrj=0 DoOrth=F DoCkMO=F.
 Leave Link  401 at Thu Apr  2 09:34:18 2020, MaxMem=  2147483648 cpu:               3.2 elap:               0.2
 (Enter /usr/local/g16/g16/l502.exe)
 Keep R1 ints in memory in canonical form, NReq=203134348.
 FoFCou: FMM=F IPFlag=           0 FMFlag=           0 FMFlg1=           0
         NFxFlg=           0 DoJE=F BraDBF=F KetDBF=F FulRan=T
         wScrn=  0.000000 ICntrl=       600 IOpCl=  0 I1Cent=           0 NGrid=           0
         NMat0=    1 NMatS0=  19503 NMatT0=    0 NMatD0=    1 NMtDS0=    0 NMtDT0=    0
 Symmetry not used in FoFCou.
 Two-electron integral symmetry not used.
 Closed shell SCF:
 Using DIIS extrapolation, IDIIS=  1040.
 NGot=  2147483648 LenX=  1957179903 LenY=  1957127021
 Requested convergence on RMS density matrix=1.00D-08 within 128 cycles.
 Requested convergence on MAX density matrix=1.00D-06.
 Requested convergence on             energy=1.00D-06.
 No special actions if energy rises.

 Cycle   1  Pass 1  IDiag  1:
 E= -2902.76909886074    
 DIIS: error= 4.15D-02 at cycle   1 NSaved=   1.
 NSaved= 1 IEnMin= 1 EnMin= -2902.76909886074     IErMin= 1 ErrMin= 4.15D-02
 ErrMax= 4.15D-02  0.00D+00 EMaxC= 1.00D-01 BMatC= 6.56D-01 BMatP= 6.56D-01
 IDIUse=3 WtCom= 5.85D-01 WtEn= 4.15D-01
 Coeff-Com:  0.100D+01
 Coeff-En:   0.100D+01
 Coeff:      0.100D+01
 Gap=     0.718 Goal=   None    Shift=    0.000
 GapD=    0.718 DampG=2.000 DampE=0.500 DampFc=1.0000 IDamp=-1.
 RMSDP=1.98D-03 MaxDP=1.30D-01              OVMax= 5.60D-02

 Cycle   2  Pass 1  IDiag  1:
 E= -2902.86533807823     Delta-E=       -0.096239217494 Rises=F Damp=F
 DIIS: error= 7.10D-03 at cycle   2 NSaved=   2.
 NSaved= 2 IEnMin= 2 EnMin= -2902.86533807823     IErMin= 2 ErrMin= 7.10D-03
 ErrMax= 7.10D-03  0.00D+00 EMaxC= 1.00D-01 BMatC= 3.54D-02 BMatP= 6.56D-01
 IDIUse=3 WtCom= 9.29D-01 WtEn= 7.10D-02
 Coeff-Com:  0.137D+00 0.863D+00
 Coeff-En:   0.000D+00 0.100D+01
 Coeff:      0.127D+00 0.873D+00
 Gap=     0.551 Goal=   None    Shift=    0.000
 RMSDP=7.46D-04 MaxDP=3.63D-02 DE=-9.62D-02 OVMax= 2.49D-02

 Cycle   3  Pass 1  IDiag  1:
 E= -2902.87840368000     Delta-E=       -0.013065601766 Rises=F Damp=F
 DIIS: error= 2.26D-03 at cycle   3 NSaved=   3.
 NSaved= 3 IEnMin= 3 EnMin= -2902.87840368000     IErMin= 3 ErrMin= 2.26D-03
 ErrMax= 2.26D-03  0.00D+00 EMaxC= 1.00D-01 BMatC= 2.66D-03 BMatP= 3.54D-02
 IDIUse=3 WtCom= 9.77D-01 WtEn= 2.26D-02
 Coeff-Com: -0.640D-02 0.193D+00 0.813D+00
 Coeff-En:   0.000D+00 0.000D+00 0.100D+01
 Coeff:     -0.626D-02 0.189D+00 0.817D+00
 Gap=     0.533 Goal=   None    Shift=    0.000
 RMSDP=1.33D-04 MaxDP=4.85D-03 DE=-1.31D-02 OVMax= 8.28D-03

 Cycle   4  Pass 1  IDiag  1:
 E= -2902.87975892605     Delta-E=       -0.001355246055 Rises=F Damp=F
 DIIS: error= 3.26D-04 at cycle   4 NSaved=   4.
 NSaved= 4 IEnMin= 4 EnMin= -2902.87975892605     IErMin= 4 ErrMin= 3.26D-04
 ErrMax= 3.26D-04  0.00D+00 EMaxC= 1.00D-01 BMatC= 4.57D-05 BMatP= 2.66D-03
 IDIUse=3 WtCom= 9.97D-01 WtEn= 3.26D-03
 Coeff-Com: -0.403D-02 0.126D-01 0.137D+00 0.855D+00
 Coeff-En:   0.000D+00 0.000D+00 0.000D+00 0.100D+01
 Coeff:     -0.401D-02 0.126D-01 0.136D+00 0.855D+00
 Gap=     0.527 Goal=   None    Shift=    0.000
 RMSDP=2.15D-05 MaxDP=6.55D-04 DE=-1.36D-03 OVMax= 1.71D-03

 Cycle   5  Pass 1  IDiag  1:
 E= -2902.87979922650     Delta-E=       -0.000040300448 Rises=F Damp=F
 DIIS: error= 1.01D-04 at cycle   5 NSaved=   5.
 NSaved= 5 IEnMin= 5 EnMin= -2902.87979922650     IErMin= 5 ErrMin= 1.01D-04
 ErrMax= 1.01D-04  0.00D+00 EMaxC= 1.00D-01 BMatC= 3.76D-06 BMatP= 4.57D-05
 IDIUse=3 WtCom= 9.99D-01 WtEn= 1.01D-03
 Coeff-Com:  0.873D-03-0.167D-01-0.707D-01 0.271D-02 0.108D+01
 Coeff-En:   0.000D+00 0.000D+00 0.000D+00 0.000D+00 0.100D+01
 Coeff:      0.872D-03-0.167D-01-0.706D-01 0.271D-02 0.108D+01
 Gap=     0.527 Goal=   None    Shift=    0.000
 RMSDP=1.12D-05 MaxDP=3.04D-04 DE=-4.03D-05 OVMax= 8.11D-04

 Cycle   6  Pass 1  IDiag  1:
 E= -2902.87980524554     Delta-E=       -0.000006019043 Rises=F Damp=F
 DIIS: error= 3.01D-05 at cycle   6 NSaved=   6.
 NSaved= 6 IEnMin= 6 EnMin= -2902.87980524554     IErMin= 6 ErrMin= 3.01D-05
 ErrMax= 3.01D-05  0.00D+00 EMaxC= 1.00D-01 BMatC= 3.04D-07 BMatP= 3.76D-06
 IDIUse=1 WtCom= 1.00D+00 WtEn= 0.00D+00
 Coeff-Com:  0.227D-03-0.594D-03-0.921D-02-0.611D-01 0.164D-01 0.105D+01
 Coeff:      0.227D-03-0.594D-03-0.921D-02-0.611D-01 0.164D-01 0.105D+01
 Gap=     0.527 Goal=   None    Shift=    0.000
 RMSDP=3.75D-06 MaxDP=1.25D-04 DE=-6.02D-06 OVMax= 3.58D-04

 Cycle   7  Pass 1  IDiag  1:
 E= -2902.87980589181     Delta-E=       -0.000000646270 Rises=F Damp=F
 DIIS: error= 1.57D-05 at cycle   7 NSaved=   7.
 NSaved= 7 IEnMin= 7 EnMin= -2902.87980589181     IErMin= 7 ErrMin= 1.57D-05
 ErrMax= 1.57D-05  0.00D+00 EMaxC= 1.00D-01 BMatC= 5.83D-08 BMatP= 3.04D-07
 IDIUse=1 WtCom= 1.00D+00 WtEn= 0.00D+00
 Coeff-Com: -0.392D-04 0.164D-02 0.544D-02-0.138D-01-0.110D+00 0.203D+00
 Coeff-Com:  0.914D+00
 Coeff:     -0.392D-04 0.164D-02 0.544D-02-0.138D-01-0.110D+00 0.203D+00
 Coeff:      0.914D+00
 Gap=     0.527 Goal=   None    Shift=    0.000
 RMSDP=1.51D-06 MaxDP=5.16D-05 DE=-6.46D-07 OVMax= 1.82D-04

 Cycle   8  Pass 1  IDiag  1:
 E= -2902.87980600838     Delta-E=       -0.000000116565 Rises=F Damp=F
 DIIS: error= 6.44D-06 at cycle   8 NSaved=   8.
 NSaved= 8 IEnMin= 8 EnMin= -2902.87980600838     IErMin= 8 ErrMin= 6.44D-06
 ErrMax= 6.44D-06  0.00D+00 EMaxC= 1.00D-01 BMatC= 1.28D-08 BMatP= 5.83D-08
 IDIUse=1 WtCom= 1.00D+00 WtEn= 0.00D+00
 Coeff-Com: -0.387D-04 0.314D-03 0.236D-02 0.873D-02-0.217D-01-0.162D+00
 Coeff-Com:  0.195D+00 0.978D+00
 Coeff:     -0.387D-04 0.314D-03 0.236D-02 0.873D-02-0.217D-01-0.162D+00
 Coeff:      0.195D+00 0.978D+00
 Gap=     0.527 Goal=   None    Shift=    0.000
 RMSDP=8.86D-07 MaxDP=2.38D-05 DE=-1.17D-07 OVMax= 1.14D-04

 Cycle   9  Pass 1  IDiag  1:
 E= -2902.87980604114     Delta-E=       -0.000000032765 Rises=F Damp=F
 DIIS: error= 2.41D-06 at cycle   9 NSaved=   9.
 NSaved= 9 IEnMin= 9 EnMin= -2902.87980604114     IErMin= 9 ErrMin= 2.41D-06
 ErrMax= 2.41D-06  0.00D+00 EMaxC= 1.00D-01 BMatC= 2.00D-09 BMatP= 1.28D-08
 IDIUse=1 WtCom= 1.00D+00 WtEn= 0.00D+00
 Coeff-Com:  0.167D-04-0.382D-03-0.170D-02-0.720D-03 0.252D-01 0.293D-01
 Coeff-Com: -0.229D+00-0.404D+00 0.158D+01
 Coeff:      0.167D-04-0.382D-03-0.170D-02-0.720D-03 0.252D-01 0.293D-01
 Coeff:     -0.229D+00-0.404D+00 0.158D+01
 Gap=     0.527 Goal=   None    Shift=    0.000
 RMSDP=5.75D-07 MaxDP=1.38D-05 DE=-3.28D-08 OVMax= 9.08D-05

 Cycle  10  Pass 1  IDiag  1:
 E= -2902.87980605100     Delta-E=       -0.000000009859 Rises=F Damp=F
 DIIS: error= 8.32D-07 at cycle  10 NSaved=  10.
 NSaved=10 IEnMin=10 EnMin= -2902.87980605100     IErMin=10 ErrMin= 8.32D-07
 ErrMax= 8.32D-07  0.00D+00 EMaxC= 1.00D-01 BMatC= 2.07D-10 BMatP= 2.00D-09
 IDIUse=1 WtCom= 1.00D+00 WtEn= 0.00D+00
 Coeff-Com:  0.946D-06 0.956D-04 0.218D-03-0.132D-02-0.522D-02 0.141D-01
 Coeff-Com:  0.571D-01 0.376D-02-0.601D+00 0.153D+01
 Coeff:      0.946D-06 0.956D-04 0.218D-03-0.132D-02-0.522D-02 0.141D-01
 Coeff:      0.571D-01 0.376D-02-0.601D+00 0.153D+01
 Gap=     0.527 Goal=   None    Shift=    0.000
 RMSDP=2.14D-07 MaxDP=5.09D-06 DE=-9.86D-09 OVMax= 3.40D-05

 Cycle  11  Pass 1  IDiag  1:
 E= -2902.87980605201     Delta-E=       -0.000000001012 Rises=F Damp=F
 DIIS: error= 1.79D-07 at cycle  11 NSaved=  11.
 NSaved=11 IEnMin=11 EnMin= -2902.87980605201     IErMin=11 ErrMin= 1.79D-07
 ErrMax= 1.79D-07  0.00D+00 EMaxC= 1.00D-01 BMatC= 8.94D-12 BMatP= 2.07D-10
 IDIUse=1 WtCom= 1.00D+00 WtEn= 0.00D+00
 Coeff-Com: -0.153D-05-0.112D-04 0.391D-04 0.702D-03-0.164D-03-0.860D-02
 Coeff-Com: -0.521D-04 0.358D-01 0.619D-01-0.439D+00 0.135D+01
 Coeff:     -0.153D-05-0.112D-04 0.391D-04 0.702D-03-0.164D-03-0.860D-02
 Coeff:     -0.521D-04 0.358D-01 0.619D-01-0.439D+00 0.135D+01
 Gap=     0.527 Goal=   None    Shift=    0.000
 RMSDP=3.26D-08 MaxDP=6.57D-07 DE=-1.01D-09 OVMax= 4.09D-06

 Cycle  12  Pass 1  IDiag  1:
 E= -2902.87980605204     Delta-E=       -0.000000000031 Rises=F Damp=F
 DIIS: error= 3.56D-08 at cycle  12 NSaved=  12.
 NSaved=12 IEnMin=12 EnMin= -2902.87980605204     IErMin=12 ErrMin= 3.56D-08
 ErrMax= 3.56D-08  0.00D+00 EMaxC= 1.00D-01 BMatC= 4.16D-13 BMatP= 8.94D-12
 IDIUse=1 WtCom= 1.00D+00 WtEn= 0.00D+00
 Coeff-Com: -0.275D-07-0.628D-05-0.170D-04 0.992D-04 0.360D-03-0.125D-02
 Coeff-Com: -0.317D-02 0.210D-02 0.294D-01-0.806D-01-0.378D-01 0.109D+01
 Coeff:     -0.275D-07-0.628D-05-0.170D-04 0.992D-04 0.360D-03-0.125D-02
 Coeff:     -0.317D-02 0.210D-02 0.294D-01-0.806D-01-0.378D-01 0.109D+01
 Gap=     0.527 Goal=   None    Shift=    0.000
 RMSDP=5.39D-09 MaxDP=1.19D-07 DE=-3.09D-11 OVMax= 5.42D-07

 SCF Done:  E(RHF) =  -2902.87980605     A.U. after   12 cycles
            NFock= 12  Conv=0.54D-08     -V/T= 2.0001
 KE= 2.902632272264D+03 PE=-7.238664688527D+03 EE= 1.284024232566D+03
 Leave Link  502 at Thu Apr  2 09:34:21 2020, MaxMem=  2147483648 cpu:              26.4 elap:               3.5
 (Enter /usr/local/g16/g16/l801.exe)
 Windowed orbitals will be sorted by symmetry type.
 ExpMin= 2.53D-02 ExpMax= 1.17D+07 ExpMxC= 1.33D+04 IAcc=3 IRadAn=         5 AccDes= 0.00D+00
 HarFok:  IExCor=  205 AccDes= 0.00D+00 IRadAn=         5 IDoV=-2 UseB2=F ITyADJ=14
 ICtDFT= 12500011 ScaDFX=  1.000000  1.000000  1.000000  1.000000
 Largest valence mixing into a core orbital is  1.17D-04
 Largest core mixing into a valence orbital is  3.82D-05
 Range of M.O.s used for correlation:    12   197
 NBasis=   197 NAE=    27 NBE=    27 NFC=    11 NFV=     0
 NROrb=    186 NOA=    16 NOB=    16 NVA=   170 NVB=   170

 **** Warning!!: The largest alpha MO coefficient is  0.14806437D+02

 Leave Link  801 at Thu Apr  2 09:34:21 2020, MaxMem=  2147483648 cpu:               0.7 elap:               0.0
 (Enter /usr/local/g16/g16/l804.exe)
 Closed-shell transformation, MDV=  2147483648 ITran=4 ISComp=1.
 Unit  1 TFree=       1248993 TCopy=        808885.
 Semi-Direct transformation.
 ModeAB=           2 MOrb=            16 LenV=    2146361632
 LASXX=     48528660 LTotXX=    48528660 LenRXX=    48528660
 LTotAB=    49298776 MaxLAS=    78372960 LenRXY=    78372960
 NonZer=    97057320 LenScr=   146313216 LnRSAI=           0
 LnScr1=           0 LExtra=           0 Total=    273214836
 MaxDsk=          -1 SrtSym=           F ITran=            4
 DoSDTr:  NPSUse= 16
 JobTyp=0 Pass  1:  I=   1 to  16.
 (rs|ai) integrals will be sorted in core.
 Complete sort for first half transformation.
 First half transformation complete.
 Begin second half transformation for I=  10.
 Begin second half transformation for I=  10.
 Complete sort for second half transformation.
 Second half transformation complete.
 SymMOI:  orbitals are not symmetric.
 Spin components of T(2) and E(2):
     alpha-alpha T2 =       0.2602337017D-01 E2=     -0.1000614045D+00
     alpha-beta  T2 =       0.1421251810D+00 E2=     -0.5569903041D+00
     beta-beta   T2 =       0.2602337017D-01 E2=     -0.1000614045D+00
 ANorm=    0.1092781735D+01
 E2 =    -0.7571131131D+00 EUMP2 =    -0.29036369191652D+04
 Leave Link  804 at Thu Apr  2 09:34:33 2020, MaxMem=  2147483648 cpu:             181.5 elap:              11.4
 (Enter /usr/local/g16/g16/l913.exe)
 CIDS:  MDV=  2147483648.
 Frozen-core window:  NFC=  11 NFV=   0.
 IFCWin=0 IBDFC=1 NFBD=     0     0 NFCmp=     0     0 NFFFC=     0     0
 Using DD3R+UMP44R for 1st iteration.
 Using DD4RQ for 2nd and later iterations.
 Keep R2 and R3 ints in memory in canonical form, NReq=393335833.
 FoFCou: FMM=F IPFlag=           0 FMFlag=           0 FMFlg1=           0
         NFxFlg=           0 DoJE=F BraDBF=F KetDBF=F FulRan=T
         wScrn=  0.000000 ICntrl=       600 IOpCl=  0 I1Cent=           0 NGrid=           0
         NMat0=    1 NMatS0=  19503 NMatT0=    0 NMatD0=    1 NMtDS0=    0 NMtDT0=    0
 Symmetry not used in FoFCou.
 Two-electron integral symmetry not used.
 CIDS: In Core Option IDoMem=           1.
 MP4(SDTQ)
 =========
 Produce multiple copies of IABC intergrals
 DD1Dir will call FoFMem   1 times, MxPair=       272
 NAB=   136 NAA=     0 NBB=     0.
 MP4(D)= -0.14982424D-01
 MP4(S)= -0.65057123D-02
 MP4(R+Q)=  0.15450398D-01
 T4(AAA)= -0.10492678D-02
 T4(AAB)= -0.14227654D-01
 Time for triples=     1795.09 seconds.
 MP4(T)=   -0.30553844D-01
 E3=       -0.11176846D-01        EUMP3=      -0.29036480960D+04
 E4(DQ)=    0.46797428D-03        UMP4(DQ)=   -0.29036476280D+04
 E4(SDQ)=  -0.60377380D-02        UMP4(SDQ)=  -0.29036541337D+04
 E4(SDTQ)= -0.36591582D-01        UMP4(SDTQ)= -0.29036846876D+04
 VARIATIONAL ENERGIES WITH THE FIRST-ORDER WAVEFUNCTION:
 E(VAR1)=  -0.29035231723D+04     E(CISD,4)=  -0.29035225740D+04
 Largest amplitude= 2.11D-02
 Discarding MO integrals.
 Leave Link  913 at Thu Apr  2 09:36:33 2020, MaxMem=  2147483648 cpu:            1918.7 elap:             120.2
 (Enter /usr/local/g16/g16/l601.exe)
 Copying SCF densities to generalized density rwf, IOpCl= 0 IROHF=0.

 **********************************************************************

            Population analysis using the SCF density.

 **********************************************************************

 Orbital symmetries:
       Occupied  (A) (A) (A) (A) (A) (A) (A) (A) (A) (A) (A) (A)
                 (A) (A) (A) (A) (A) (A) (A) (A) (A) (A) (A) (A)
                 (A) (A) (A)
       Virtual   (A) (A) (A) (A) (A) (A) (A) (A) (A) (A) (A) (A)
                 (A) (A) (A) (A) (A) (A) (A) (A) (A) (A) (A) (A)
                 (A) (A) (A) (A) (A) (A) (A) (A) (A) (A) (A) (A)
                 (A) (A) (A) (A) (A) (A) (A) (A) (A) (A) (A) (A)
                 (A) (A) (A) (A) (A) (A) (A) (A) (A) (A) (A) (A)
                 (A) (A) (A) (A) (A) (A) (A) (A) (A) (A) (A) (A)
                 (A) (A) (A) (A) (A) (A) (A) (A) (A) (A) (A) (A)
                 (A) (A) (A) (A) (A) (A) (A) (A) (A) (A) (A) (A)
                 (A) (A) (A) (A) (A) (A) (A) (A) (A) (A) (A) (A)
                 (A) (A) (A) (A) (A) (A) (A) (A) (A) (A) (A) (A)
                 (A) (A) (A) (A) (A) (A) (A) (A) (A) (A) (A) (A)
                 (A) (A) (A) (A) (A) (A) (A) (A) (A) (A) (A) (A)
                 (A) (A) (A) (A) (A) (A) (A) (A) (A) (A) (A) (A)
                 (A) (A) (A) (A) (A) (A) (A) (A) (A) (A) (A) (A)
                 (A) (A)
 The electronic state is 1-A.
 Alpha  occ. eigenvalues -- -520.17773 -69.91528 -63.02186 -63.02184 -63.02181
 Alpha  occ. eigenvalues --  -20.63047 -20.62749 -10.86194  -8.34416  -8.34393
 Alpha  occ. eigenvalues --   -8.34375  -3.83797  -3.83792  -3.83769  -3.83745
 Alpha  occ. eigenvalues --   -3.83741  -1.46740  -1.21793  -1.16793  -0.73585
 Alpha  occ. eigenvalues --   -0.69445  -0.60558  -0.54340  -0.53729  -0.53187
 Alpha  occ. eigenvalues --   -0.49889  -0.49269
 Alpha virt. eigenvalues --    0.03454   0.04522   0.08864   0.09960   0.11648
 Alpha virt. eigenvalues --    0.12564   0.14553   0.15709   0.17689   0.18810
 Alpha virt. eigenvalues --    0.19062   0.21240   0.23048   0.25670   0.26799
 Alpha virt. eigenvalues --    0.27906   0.28368   0.31000   0.33701   0.35433
 Alpha virt. eigenvalues --    0.36063   0.37682   0.38576   0.41857   0.42089
 Alpha virt. eigenvalues --    0.44082   0.46664   0.51552   0.56793   0.59413
 Alpha virt. eigenvalues --    0.60140   0.64751   0.66522   0.69783   0.73973
 Alpha virt. eigenvalues --    0.75652   0.77762   0.78798   0.81519   0.82238
 Alpha virt. eigenvalues --    0.82434   0.83273   0.85454   0.86862   0.89255
 Alpha virt. eigenvalues --    0.90403   0.91469   0.93709   0.94376   0.96561
 Alpha virt. eigenvalues --    0.99149   0.99527   1.00755   1.02584   1.04811
 Alpha virt. eigenvalues --    1.06747   1.10046   1.13775   1.14156   1.16594
 Alpha virt. eigenvalues --    1.17180   1.23098   1.25065   1.27112   1.30320
 Alpha virt. eigenvalues --    1.32597   1.36292   1.44083   1.47224   1.50730
 Alpha virt. eigenvalues --    1.53783   1.58472   1.60248   1.62110   1.69149
 Alpha virt. eigenvalues --    1.78550   1.84798   1.95746   2.05113   2.09408
 Alpha virt. eigenvalues --    2.13626   2.17865   2.21739   2.27837   2.31717
 Alpha virt. eigenvalues --    2.33975   2.36328   2.37448   2.41406   2.43167
 Alpha virt. eigenvalues --    2.44990   2.46366   2.50135   2.52707   2.53567
 Alpha virt. eigenvalues --    2.55619   2.59329   2.61093   2.62971   2.66628
 Alpha virt. eigenvalues --    2.69396   2.69679   2.70408   2.73990   2.76679
 Alpha virt. eigenvalues --    2.77776   2.79777   2.81290   2.86016   2.88880
 Alpha virt. eigenvalues --    2.93227   2.94687   2.96831   3.03575   3.07317
 Alpha virt. eigenvalues --    3.11566   3.24853   3.31119   3.33144   3.82191
 Alpha virt. eigenvalues --    3.87267   4.08588   4.19455   4.27716   4.32722
 Alpha virt. eigenvalues --    4.38354   4.39044   4.43553   4.48649   4.49453
 Alpha virt. eigenvalues --    4.56202   4.75391   4.80634   4.84417   4.94537
 Alpha virt. eigenvalues --    5.14671   5.21226   5.25035   5.42135   5.43730
 Alpha virt. eigenvalues --    5.49371   5.80442   6.17552   6.39306   6.46322
 Alpha virt. eigenvalues --    6.50984   6.63420   6.65687   6.80500   6.85848
 Alpha virt. eigenvalues --    6.92873   7.16926   7.17447   7.19945   7.22240
 Alpha virt. eigenvalues --    7.24420   7.26680   7.29569   7.34455   7.38672
 Alpha virt. eigenvalues --    7.47596   7.53171   7.61625   7.83621   8.04372
 Alpha virt. eigenvalues --    8.20863   8.50217   8.53408  14.65915  15.32935
          Condensed to atoms (all electrons):
               1          2          3          4          5
     1  O    8.122105  -0.074706   0.247914  -0.011253  -0.023723
     2  O   -0.074706   8.147199   0.000654   0.243853  -0.012861
     3  H    0.247914   0.000654   0.486316   0.001286  -0.001439
     4  H   -0.011253   0.243853   0.001286   0.483274  -0.003667
     5  Kr  -0.023723  -0.012861  -0.001439  -0.003667  36.028992
 Mulliken charges:
               1
     1  O   -0.260336
     2  O   -0.304139
     3  H    0.265270
     4  H    0.286507
     5  Kr   0.012698
 Sum of Mulliken charges =  -0.00000
 Mulliken charges with hydrogens summed into heavy atoms:
               1
     1  O    0.004933
     2  O   -0.017632
     5  Kr   0.012698
         Mulliken charges condensed to fragments:
      1     -0.012698
      2      0.012698
 Electronic spatial extent (au):  <R**2>=            485.5891
 Charge=             -0.0000 electrons
 Dipole moment (field-independent basis, Debye):
    X=              1.4983    Y=             -0.3932    Z=              1.5610  Tot=              2.1991
 Quadrupole moment (field-independent basis, Debye-Ang):
   XX=            -33.7586   YY=            -27.8658   ZZ=            -28.9071
   XY=              2.7304   XZ=             -3.6719   YZ=             -1.8811
 Traceless Quadrupole moment (field-independent basis, Debye-Ang):
   XX=             -3.5814   YY=              2.3114   ZZ=              1.2700
   XY=              2.7304   XZ=             -3.6719   YZ=             -1.8811
 Octapole moment (field-independent basis, Debye-Ang**2):
  XXX=             29.3486  YYY=             -1.0804  ZZZ=              1.3223  XYY=              4.5245
  XXY=             -9.1001  XXZ=              8.0500  XZZ=              4.7037  YZZ=             -1.8442
  YYZ=              2.3508  XYZ=              4.3383
 Hexadecapole moment (field-independent basis, Debye-Ang**3):
 XXXX=           -438.8486 YYYY=            -62.2259 ZZZZ=            -28.9236 XXXY=             21.6044
 XXXZ=            -19.2114 YYYX=              4.9041 YYYZ=             -2.7366 ZZZX=             -3.4575
 ZZZY=             -2.0170 XXYY=            -78.8911 XXZZ=            -70.4215 YYZZ=            -15.5599
 XXYZ=            -10.0689 YYXZ=             -5.2026 ZZXY=              3.8264
 N-N= 1.491283776456D+02 E-N=-7.238664690618D+03  KE= 2.902632272264D+03
 Leave Link  601 at Thu Apr  2 09:36:33 2020, MaxMem=  2147483648 cpu:               0.5 elap:               0.0
 (Enter /usr/local/g16/g16/l122.exe)
 CPIOFr:  IOpCl= 0 IRwI=-1 IRwCP=  731 ICalc= -1 LCPTot=       59414 Len1MO=      159453 IndFrg=       59414
 CPIOFr:  IOpCl= 0 IRwI=-1 IRwCP=  731 ICalc=  0 LCPTot=       59414 Len1MO=      159453 IndFrg=      218867
 Counterpoise: doing calculation for fragment   1 using the basis set of the full-system, NewBq=T
 Leave Link  122 at Thu Apr  2 09:36:33 2020, MaxMem=  2147483648 cpu:               0.0 elap:               0.0
 (Enter /usr/local/g16/g16/l301.exe)
 Basis read from rwf:  (5D, 7F)
 No pseudopotential information found on rwf file.
 There are   229 symmetry adapted cartesian basis functions of A   symmetry.
 There are   197 symmetry adapted basis functions of A   symmetry.
   197 basis functions,   415 primitive gaussians,   229 cartesian basis functions
     9 alpha electrons        9 beta electrons
       nuclear repulsion energy        36.6212540688 Hartrees.
 IExCor=    0 DFT=F Ex=HF Corr=None ExCW=0 ScaHFX=  1.000000
 ScaDFX=  1.000000  1.000000  1.000000  1.000000 ScalE2=  1.000000  1.000000
 IRadAn=      5 IRanWt=     -1 IRanGd=            0 ICorTp=0 IEmpDi=  4
 NAtoms=    5 NActive=    5 NUniq=    5 SFac= 1.00D+00 NAtFMM=   60 NAOKFM=F Big=F
 Integral buffers will be    131072 words long.
 Raffenetti 1 integral format.
 Two-electron integral symmetry is turned on.
 No density basis found on file   718.
 Leave Link  301 at Thu Apr  2 09:36:33 2020, MaxMem=  2147483648 cpu:               0.4 elap:               0.0
 (Enter /usr/local/g16/g16/l302.exe)
 NPDir=0 NMtPBC=     1 NCelOv=     1 NCel=       1 NClECP=     1 NCelD=      1
         NCelK=      1 NCelE2=     1 NClLst=     1 CellRange=     0.0.
 One-electron integrals computed using PRISM.
 One-electron integral symmetry used in STVInt
 NBasis=   197 RedAO= T EigKep=  2.11D-04  NBF=   197
 NBsUse=   197 1.00D-06 EigRej= -1.00D+00 NBFU=   197
 Leave Link  302 at Thu Apr  2 09:36:34 2020, MaxMem=  2147483648 cpu:               1.7 elap:               0.1
 (Enter /usr/local/g16/g16/l303.exe)
 DipDrv:  MaxL=1.
 Leave Link  303 at Thu Apr  2 09:36:34 2020, MaxMem=  2147483648 cpu:               0.5 elap:               0.0
 (Enter /usr/local/g16/g16/l401.exe)
 ExpMin= 2.53D-02 ExpMax= 1.17D+07 ExpMxC= 1.33D+04 IAcc=3 IRadAn=         5 AccDes= 0.00D+00
 Harris functional with IExCor=  205 and IRadAn=       5 diagonalized for initial guess.
 HarFok:  IExCor=  205 AccDes= 0.00D+00 IRadAn=         5 IDoV= 1 UseB2=F ITyADJ=14
 ICtDFT=  3500011 ScaDFX=  1.000000  1.000000  1.000000  1.000000
 FoFCou: FMM=F IPFlag=           0 FMFlag=      100000 FMFlg1=           0
         NFxFlg=           0 DoJE=T BraDBF=F KetDBF=T FulRan=T
         wScrn=  0.000000 ICntrl=       500 IOpCl=  0 I1Cent=   200000004 NGrid=           0
         NMat0=    1 NMatS0=      1 NMatT0=    0 NMatD0=    1 NMtDS0=    0 NMtDT0=    0
 Petite list used in FoFCou.
 Harris En= -150.936269441665    
 JPrj=0 DoOrth=F DoCkMO=F.
 Leave Link  401 at Thu Apr  2 09:36:34 2020, MaxMem=  2147483648 cpu:               3.2 elap:               0.2
 (Enter /usr/local/g16/g16/l502.exe)
 Keep R1 ints in memory in canonical form, NReq=203134348.
 FoFCou: FMM=F IPFlag=           0 FMFlag=           0 FMFlg1=           0
         NFxFlg=           0 DoJE=F BraDBF=F KetDBF=F FulRan=T
         wScrn=  0.000000 ICntrl=       600 IOpCl=  0 I1Cent=           0 NGrid=           0
         NMat0=    1 NMatS0=  19503 NMatT0=    0 NMatD0=    1 NMtDS0=    0 NMtDT0=    0
 Symmetry not used in FoFCou.
 Two-electron integral symmetry not used.
 Closed shell SCF:
 Using DIIS extrapolation, IDIIS=  1040.
 NGot=  2147483648 LenX=  1957179903 LenY=  1957127021
 Requested convergence on RMS density matrix=1.00D-08 within 128 cycles.
 Requested convergence on MAX density matrix=1.00D-06.
 Requested convergence on             energy=1.00D-06.
 No special actions if energy rises.

 Cycle   1  Pass 1  IDiag  1:
 E= -150.774029641637    
 DIIS: error= 2.31D-02 at cycle   1 NSaved=   1.
 NSaved= 1 IEnMin= 1 EnMin= -150.774029641637     IErMin= 1 ErrMin= 2.31D-02
 ErrMax= 2.31D-02  0.00D+00 EMaxC= 1.00D-01 BMatC= 2.28D-01 BMatP= 2.28D-01
 IDIUse=3 WtCom= 7.69D-01 WtEn= 2.31D-01
 Coeff-Com:  0.100D+01
 Coeff-En:   0.100D+01
 Coeff:      0.100D+01
 Gap=     0.722 Goal=   None    Shift=    0.000
 GapD=    0.722 DampG=2.000 DampE=0.500 DampFc=1.0000 IDamp=-1.
 RMSDP=9.21D-04 MaxDP=2.90D-02              OVMax= 6.40D-02

 Cycle   2  Pass 1  IDiag  1:
 E= -150.826699081371     Delta-E=       -0.052669439734 Rises=F Damp=F
 DIIS: error= 7.82D-03 at cycle   2 NSaved=   2.
 NSaved= 2 IEnMin= 2 EnMin= -150.826699081371     IErMin= 2 ErrMin= 7.82D-03
 ErrMax= 7.82D-03  0.00D+00 EMaxC= 1.00D-01 BMatC= 1.58D-02 BMatP= 2.28D-01
 IDIUse=3 WtCom= 9.22D-01 WtEn= 7.82D-02
 Coeff-Com:  0.104D+00 0.896D+00
 Coeff-En:   0.000D+00 0.100D+01
 Coeff:      0.959D-01 0.904D+00
 Gap=     0.552 Goal=   None    Shift=    0.000
 RMSDP=4.88D-04 MaxDP=2.54D-02 DE=-5.27D-02 OVMax= 2.84D-02

 Cycle   3  Pass 1  IDiag  1:
 E= -150.834624542613     Delta-E=       -0.007925461242 Rises=F Damp=F
 DIIS: error= 2.58D-03 at cycle   3 NSaved=   3.
 NSaved= 3 IEnMin= 3 EnMin= -150.834624542613     IErMin= 3 ErrMin= 2.58D-03
 ErrMax= 2.58D-03  0.00D+00 EMaxC= 1.00D-01 BMatC= 2.29D-03 BMatP= 1.58D-02
 IDIUse=3 WtCom= 9.74D-01 WtEn= 2.58D-02
 Coeff-Com: -0.208D-01 0.254D+00 0.766D+00
 Coeff-En:   0.000D+00 0.000D+00 0.100D+01
 Coeff:     -0.203D-01 0.248D+00 0.772D+00
 Gap=     0.524 Goal=   None    Shift=    0.000
 RMSDP=1.10D-04 MaxDP=3.99D-03 DE=-7.93D-03 OVMax= 9.04D-03

 Cycle   4  Pass 1  IDiag  1:
 E= -150.836046865670     Delta-E=       -0.001422323057 Rises=F Damp=F
 DIIS: error= 2.03D-04 at cycle   4 NSaved=   4.
 NSaved= 4 IEnMin= 4 EnMin= -150.836046865670     IErMin= 4 ErrMin= 2.03D-04
 ErrMax= 2.03D-04  0.00D+00 EMaxC= 1.00D-01 BMatC= 1.46D-05 BMatP= 2.29D-03
 IDIUse=3 WtCom= 9.98D-01 WtEn= 2.03D-03
 Coeff-Com: -0.175D-02-0.105D-01 0.760D-02 0.100D+01
 Coeff-En:   0.000D+00 0.000D+00 0.000D+00 0.100D+01
 Coeff:     -0.175D-02-0.104D-01 0.759D-02 0.100D+01
 Gap=     0.525 Goal=   None    Shift=    0.000
 RMSDP=1.61D-05 MaxDP=3.89D-04 DE=-1.42D-03 OVMax= 1.35D-03

 Cycle   5  Pass 1  IDiag  1:
 E= -150.836068321061     Delta-E=       -0.000021455391 Rises=F Damp=F
 DIIS: error= 7.54D-05 at cycle   5 NSaved=   5.
 NSaved= 5 IEnMin= 5 EnMin= -150.836068321061     IErMin= 5 ErrMin= 7.54D-05
 ErrMax= 7.54D-05  0.00D+00 EMaxC= 1.00D-01 BMatC= 1.53D-06 BMatP= 1.46D-05
 IDIUse=1 WtCom= 1.00D+00 WtEn= 0.00D+00
 Coeff-Com:  0.168D-02-0.167D-01-0.576D-01-0.169D+00 0.124D+01
 Coeff:      0.168D-02-0.167D-01-0.576D-01-0.169D+00 0.124D+01
 Gap=     0.525 Goal=   None    Shift=    0.000
 RMSDP=9.20D-06 MaxDP=2.59D-04 DE=-2.15D-05 OVMax= 8.78D-04

 Cycle   6  Pass 1  IDiag  1:
 E= -150.836072228330     Delta-E=       -0.000003907269 Rises=F Damp=F
 DIIS: error= 1.85D-05 at cycle   6 NSaved=   6.
 NSaved= 6 IEnMin= 6 EnMin= -150.836072228330     IErMin= 6 ErrMin= 1.85D-05
 ErrMax= 1.85D-05  0.00D+00 EMaxC= 1.00D-01 BMatC= 9.70D-08 BMatP= 1.53D-06
 IDIUse=1 WtCom= 1.00D+00 WtEn= 0.00D+00
 Coeff-Com: -0.508D-03 0.623D-02 0.219D-01 0.313D-01-0.516D+00 0.146D+01
 Coeff:     -0.508D-03 0.623D-02 0.219D-01 0.313D-01-0.516D+00 0.146D+01
 Gap=     0.525 Goal=   None    Shift=    0.000
 RMSDP=3.32D-06 MaxDP=8.60D-05 DE=-3.91D-06 OVMax= 4.12D-04

 Cycle   7  Pass 1  IDiag  1:
 E= -150.836072585816     Delta-E=       -0.000000357486 Rises=F Damp=F
 DIIS: error= 5.11D-06 at cycle   7 NSaved=   7.
 NSaved= 7 IEnMin= 7 EnMin= -150.836072585816     IErMin= 7 ErrMin= 5.11D-06
 ErrMax= 5.11D-06  0.00D+00 EMaxC= 1.00D-01 BMatC= 9.35D-09 BMatP= 9.70D-08
 IDIUse=1 WtCom= 1.00D+00 WtEn= 0.00D+00
 Coeff-Com:  0.137D-03-0.193D-02-0.742D-02-0.538D-02 0.175D+00-0.687D+00
 Coeff-Com:  0.153D+01
 Coeff:      0.137D-03-0.193D-02-0.742D-02-0.538D-02 0.175D+00-0.687D+00
 Coeff:      0.153D+01
 Gap=     0.525 Goal=   None    Shift=    0.000
 RMSDP=1.12D-06 MaxDP=2.49D-05 DE=-3.57D-07 OVMax= 1.70D-04

 Cycle   8  Pass 1  IDiag  1:
 E= -150.836072628176     Delta-E=       -0.000000042360 Rises=F Damp=F
 DIIS: error= 2.22D-06 at cycle   8 NSaved=   8.
 NSaved= 8 IEnMin= 8 EnMin= -150.836072628176     IErMin= 8 ErrMin= 2.22D-06
 ErrMax= 2.22D-06  0.00D+00 EMaxC= 1.00D-01 BMatC= 1.48D-09 BMatP= 9.35D-09
 IDIUse=1 WtCom= 1.00D+00 WtEn= 0.00D+00
 Coeff-Com:  0.224D-05 0.147D-03 0.995D-03-0.325D-02-0.171D-01 0.173D+00
 Coeff-Com: -0.902D+00 0.175D+01
 Coeff:      0.224D-05 0.147D-03 0.995D-03-0.325D-02-0.171D-01 0.173D+00
 Coeff:     -0.902D+00 0.175D+01
 Gap=     0.525 Goal=   None    Shift=    0.000
 RMSDP=5.65D-07 MaxDP=1.41D-05 DE=-4.24D-08 OVMax= 9.37D-05

 Cycle   9  Pass 1  IDiag  1:
 E= -150.836072635809     Delta-E=       -0.000000007633 Rises=F Damp=F
 DIIS: error= 5.87D-07 at cycle   9 NSaved=   9.
 NSaved= 9 IEnMin= 9 EnMin= -150.836072635809     IErMin= 9 ErrMin= 5.87D-07
 ErrMax= 5.87D-07  0.00D+00 EMaxC= 1.00D-01 BMatC= 1.24D-10 BMatP= 1.48D-09
 IDIUse=1 WtCom= 1.00D+00 WtEn= 0.00D+00
 Coeff-Com: -0.110D-04 0.180D-03 0.760D-03 0.434D-03-0.188D-01 0.857D-01
 Coeff-Com: -0.260D+00 0.273D+00 0.920D+00
 Coeff:     -0.110D-04 0.180D-03 0.760D-03 0.434D-03-0.188D-01 0.857D-01
 Coeff:     -0.260D+00 0.273D+00 0.920D+00
 Gap=     0.525 Goal=   None    Shift=    0.000
 RMSDP=8.71D-08 MaxDP=2.39D-06 DE=-7.63D-09 OVMax= 1.31D-05

 Cycle  10  Pass 1  IDiag  1:
 E= -150.836072636085     Delta-E=       -0.000000000276 Rises=F Damp=F
 DIIS: error= 2.76D-07 at cycle  10 NSaved=  10.
 NSaved=10 IEnMin=10 EnMin= -150.836072636085     IErMin=10 ErrMin= 2.76D-07
 ErrMax= 2.76D-07  0.00D+00 EMaxC= 1.00D-01 BMatC= 2.92D-11 BMatP= 1.24D-10
 IDIUse=1 WtCom= 1.00D+00 WtEn= 0.00D+00
 Coeff-Com: -0.432D-05 0.193D-04-0.167D-04 0.131D-02-0.276D-02-0.154D-01
 Coeff-Com:  0.151D+00-0.366D+00 0.248D+00 0.984D+00
 Coeff:     -0.432D-05 0.193D-04-0.167D-04 0.131D-02-0.276D-02-0.154D-01
 Coeff:      0.151D+00-0.366D+00 0.248D+00 0.984D+00
 Gap=     0.525 Goal=   None    Shift=    0.000
 RMSDP=4.15D-08 MaxDP=1.19D-06 DE=-2.76D-10 OVMax= 5.71D-06

 Cycle  11  Pass 1  IDiag  1:
 E= -150.836072636137     Delta-E=       -0.000000000052 Rises=F Damp=F
 DIIS: error= 4.80D-08 at cycle  11 NSaved=  11.
 NSaved=11 IEnMin=11 EnMin= -150.836072636137     IErMin=11 ErrMin= 4.80D-08
 ErrMax= 4.80D-08  0.00D+00 EMaxC= 1.00D-01 BMatC= 6.74D-13 BMatP= 2.92D-11
 IDIUse=1 WtCom= 1.00D+00 WtEn= 0.00D+00
 Coeff-Com:  0.128D-05-0.165D-04-0.558D-04-0.631D-04 0.137D-02-0.379D-02
 Coeff-Com:  0.224D-03 0.222D-01-0.871D-01-0.847D-01 0.115D+01
 Coeff:      0.128D-05-0.165D-04-0.558D-04-0.631D-04 0.137D-02-0.379D-02
 Coeff:      0.224D-03 0.222D-01-0.871D-01-0.847D-01 0.115D+01
 Gap=     0.525 Goal=   None    Shift=    0.000
 RMSDP=6.73D-09 MaxDP=1.45D-07 DE=-5.22D-11 OVMax= 7.14D-07

 SCF Done:  E(RHF) =  -150.836072636     A.U. after   11 cycles
            NFock= 11  Conv=0.67D-08     -V/T= 2.0021
 KE= 1.505203111257D+02 PE=-4.314555665089D+02 EE= 9.347792867833D+01
 Leave Link  502 at Thu Apr  2 09:36:37 2020, MaxMem=  2147483648 cpu:              26.5 elap:               3.3
 (Enter /usr/local/g16/g16/l801.exe)
 Windowed orbitals will be sorted by symmetry type.
 ExpMin= 2.53D-02 ExpMax= 1.17D+07 ExpMxC= 1.33D+04 IAcc=3 IRadAn=         5 AccDes= 0.00D+00
 HarFok:  IExCor=  205 AccDes= 0.00D+00 IRadAn=         5 IDoV=-2 UseB2=F ITyADJ=14
 ICtDFT= 12500011 ScaDFX=  1.000000  1.000000  1.000000  1.000000
 Largest valence mixing into a core orbital is  1.19D-04
 Largest core mixing into a valence orbital is  2.05D-05
 Range of M.O.s used for correlation:     3   197
 NBasis=   197 NAE=     9 NBE=     9 NFC=     2 NFV=     0
 NROrb=    195 NOA=     7 NOB=     7 NVA=   188 NVB=   188

 **** Warning!!: The largest alpha MO coefficient is  0.15374358D+02

 Leave Link  801 at Thu Apr  2 09:36:37 2020, MaxMem=  2147483648 cpu:               0.6 elap:               0.0
 (Enter /usr/local/g16/g16/l804.exe)
 Closed-shell transformation, MDV=  2147483648 ITran=4 ISComp=1.
 Semi-Direct transformation.
 ModeAB=           2 MOrb=             7 LenV=    2146281649
 LASXX=     25261509 LTotXX=    25261509 LenRXX=    25261509
 LTotAB=    25646992 MaxLAS=    35947275 LenRXY=    35947275
 NonZer=    50523018 LenScr=    76544000 LnRSAI=           0
 LnScr1=           0 LExtra=           0 Total=    137752784
 MaxDsk=          -1 SrtSym=           F ITran=            4
 DoSDTr:  NPSUse= 16
 JobTyp=0 Pass  1:  I=   1 to   7.
 (rs|ai) integrals will be sorted in core.
 Complete sort for first half transformation.
 First half transformation complete.
 Complete sort for second half transformation.
 Second half transformation complete.
 SymMOI:  orbitals are not symmetric.
 Spin components of T(2) and E(2):
     alpha-alpha T2 =       0.1601246114D-01 E2=     -0.6283695158D-01
     alpha-beta  T2 =       0.9327277310D-01 E2=     -0.3821136620D+00
     beta-beta   T2 =       0.1601246114D-01 E2=     -0.6283695158D-01
 ANorm=    0.1060800497D+01
 E2 =    -0.5077875651D+00 EUMP2 =    -0.15134386020128D+03
 Leave Link  804 at Thu Apr  2 09:36:45 2020, MaxMem=  2147483648 cpu:             124.0 elap:               7.8
 (Enter /usr/local/g16/g16/l913.exe)
 CIDS:  MDV=  2147483648.
 Frozen-core window:  NFC=   2 NFV=   0.
 IFCWin=0 IBDFC=1 NFBD=     0     0 NFCmp=     0     0 NFFFC=     0     0
 Using DD3R+UMP44R for 1st iteration.
 Using DD4RQ for 2nd and later iterations.
 Keep R2 and R3 ints in memory in canonical form, NReq=393333025.
 FoFCou: FMM=F IPFlag=           0 FMFlag=           0 FMFlg1=           0
         NFxFlg=           0 DoJE=F BraDBF=F KetDBF=F FulRan=T
         wScrn=  0.000000 ICntrl=       600 IOpCl=  0 I1Cent=           0 NGrid=           0
         NMat0=    1 NMatS0=  19503 NMatT0=    0 NMatD0=    1 NMtDS0=    0 NMtDT0=    0
 Symmetry not used in FoFCou.
 Two-electron integral symmetry not used.
 CIDS: In Core Option IDoMem=           1.
 MP4(SDTQ)
 =========
 Produce multiple copies of IABC intergrals
 DD1Dir will call FoFMem   1 times, MxPair=        56
 NAB=    28 NAA=     0 NBB=     0.
 MP4(D)= -0.11282629D-01
 MP4(S)= -0.52144973D-02
 MP4(R+Q)=  0.10770512D-01
 T4(AAA)= -0.65994982D-03
 T4(AAB)= -0.10273063D-01
 Time for triples=      373.25 seconds.
 MP4(T)=   -0.21866026D-01
 E3=       -0.20670664D-02        EUMP3=      -0.15134592727D+03
 E4(DQ)=   -0.51211694D-03        UMP4(DQ)=   -0.15134643938D+03
 E4(SDQ)=  -0.57266142D-02        UMP4(SDQ)=  -0.15135165388D+03
 E4(SDTQ)= -0.27592640D-01        UMP4(SDTQ)= -0.15137351991D+03
 VARIATIONAL ENERGIES WITH THE FIRST-ORDER WAVEFUNCTION:
 E(VAR1)=  -0.15128915686D+03     E(CISD,4)=  -0.15129879978D+03
 Largest amplitude= 2.34D-02
 Discarding MO integrals.
 Leave Link  913 at Thu Apr  2 09:37:12 2020, MaxMem=  2147483648 cpu:             434.1 elap:              27.2
 (Enter /usr/local/g16/g16/l601.exe)
 Copying SCF densities to generalized density rwf, IOpCl= 0 IROHF=0.

 **********************************************************************

            Population analysis using the SCF density.

 **********************************************************************

 Orbital symmetries:
       Occupied  (A) (A) (A) (A) (A) (A) (A) (A) (A)
       Virtual   (A) (A) (A) (A) (A) (A) (A) (A) (A) (A) (A) (A)
                 (A) (A) (A) (A) (A) (A) (A) (A) (A) (A) (A) (A)
                 (A) (A) (A) (A) (A) (A) (A) (A) (A) (A) (A) (A)
                 (A) (A) (A) (A) (A) (A) (A) (A) (A) (A) (A) (A)
                 (A) (A) (A) (A) (A) (A) (A) (A) (A) (A) (A) (A)
                 (A) (A) (A) (A) (A) (A) (A) (A) (A) (A) (A) (A)
                 (A) (A) (A) (A) (A) (A) (A) (A) (A) (A) (A) (A)
                 (A) (A) (A) (A) (A) (A) (A) (A) (A) (A) (A) (A)
                 (A) (A) (A) (A) (A) (A) (A) (A) (A) (A) (A) (A)
                 (A) (A) (A) (A) (A) (A) (A) (A) (A) (A) (A) (A)
                 (A) (A) (A) (A) (A) (A) (A) (A) (A) (A) (A) (A)
                 (A) (A) (A) (A) (A) (A) (A) (A) (A) (A) (A) (A)
                 (A) (A) (A) (A) (A) (A) (A) (A) (A) (A) (A) (A)
                 (A) (A) (A) (A) (A) (A) (A) (A) (A) (A) (A) (A)
                 (A) (A) (A) (A) (A) (A) (A) (A) (A) (A) (A) (A)
                 (A) (A) (A) (A) (A) (A) (A) (A)
 The electronic state is 1-A.
 Alpha  occ. eigenvalues --  -20.63329 -20.63301  -1.46930  -1.21967  -0.73579
 Alpha  occ. eigenvalues --   -0.69190  -0.60626  -0.50344  -0.49704
 Alpha virt. eigenvalues --    0.02801   0.04002   0.07324   0.08531   0.10354
 Alpha virt. eigenvalues --    0.11274   0.13210   0.14762   0.17596   0.17878
 Alpha virt. eigenvalues --    0.19118   0.21041   0.23393   0.26651   0.27027
 Alpha virt. eigenvalues --    0.27810   0.31799   0.32114   0.33807   0.34143
 Alpha virt. eigenvalues --    0.34768   0.37734   0.37910   0.41675   0.42911
 Alpha virt. eigenvalues --    0.44264   0.44736   0.48789   0.49532   0.50969
 Alpha virt. eigenvalues --    0.55686   0.58806   0.64716   0.66534   0.70697
 Alpha virt. eigenvalues --    0.75936   0.77923   0.80245   0.82123   0.83532
 Alpha virt. eigenvalues --    0.84826   0.85415   0.91414   0.93865   0.93987
 Alpha virt. eigenvalues --    0.95103   0.96391   0.98861   1.01002   1.01604
 Alpha virt. eigenvalues --    1.03064   1.04560   1.08980   1.13197   1.14484
 Alpha virt. eigenvalues --    1.17018   1.17683   1.22113   1.26969   1.27912
 Alpha virt. eigenvalues --    1.29147   1.30548   1.32222   1.33092   1.34176
 Alpha virt. eigenvalues --    1.35398   1.37142   1.39676   1.42984   1.45412
 Alpha virt. eigenvalues --    1.47212   1.54416   1.55041   1.57232   1.60830
 Alpha virt. eigenvalues --    1.65344   1.70084   1.71795   1.78354   1.87602
 Alpha virt. eigenvalues --    1.89981   1.97086   2.06344   2.10064   2.17644
 Alpha virt. eigenvalues --    2.18714   2.22556   2.31071   2.32823   2.38102
 Alpha virt. eigenvalues --    2.40400   2.45438   2.49902   2.51491   2.54202
 Alpha virt. eigenvalues --    2.61539   2.65322   2.69791   2.74610   2.79226
 Alpha virt. eigenvalues --    2.83237   2.85029   2.98495   3.05379   3.10126
 Alpha virt. eigenvalues --    3.23253   3.25981   3.26885   3.29697   3.33566
 Alpha virt. eigenvalues --    3.44580   3.56821   3.76537   3.78027   3.79166
 Alpha virt. eigenvalues --    3.81198   3.82367   3.82735   3.84206   3.86860
 Alpha virt. eigenvalues --    3.90600   3.92729   3.99112   4.00070   4.01970
 Alpha virt. eigenvalues --    4.09236   4.17259   4.24184   4.33011   4.35066
 Alpha virt. eigenvalues --    4.39445   4.40688   4.48366   4.49581   4.52717
 Alpha virt. eigenvalues --    4.58993   4.76477   4.84169   4.93890   5.14829
 Alpha virt. eigenvalues --    5.21328   5.24807   5.42057   5.43912   5.49446
 Alpha virt. eigenvalues --    5.80128   6.17350   6.38788   6.46115   6.50709
 Alpha virt. eigenvalues --    6.63277   6.65543   6.80354   6.85667   6.92675
 Alpha virt. eigenvalues --    7.16694   7.17176   7.19418   7.21939   7.24224
 Alpha virt. eigenvalues --    7.26399   7.29170   7.34178   7.38432   7.47366
 Alpha virt. eigenvalues --    7.52920   7.61142   7.83403   8.04124   8.20573
 Alpha virt. eigenvalues --    8.49816   8.52608  10.88195  14.64900  14.83297
 Alpha virt. eigenvalues --   14.87614  15.08365  15.33959  29.03066  29.03237
 Alpha virt. eigenvalues --   29.07979  29.13228  29.22945  49.09373 148.31463
 Alpha virt. eigenvalues --  148.37959 148.70269 752.47800
          Condensed to atoms (all electrons):
               1          2          3          4          5
     1  O    8.096965  -0.071978   0.247241  -0.011104  -0.000407
     2  O   -0.071978   8.129880  -0.000182   0.238390  -0.001409
     3  H    0.247241  -0.000182   0.488641   0.001970  -0.001137
     4  H   -0.011104   0.238390   0.001970   0.486838  -0.003210
     5  Kr  -0.000407  -0.001409  -0.001137  -0.003210   0.001326
 Mulliken charges:
               1
     1  O   -0.260717
     2  O   -0.294701
     3  H    0.263466
     4  H    0.287116
     5  Kr   0.004836
 Sum of Mulliken charges =  -0.00000
 Mulliken charges with hydrogens summed into heavy atoms:
               1
     1  O    0.002749
     2  O   -0.007585
     5  Kr   0.004836
         Mulliken charges condensed to fragments:
      1     -0.004836
      2      0.004836
 Electronic spatial extent (au):  <R**2>=            321.0623
 Charge=              0.0000 electrons
 Dipole moment (field-independent basis, Debye):
    X=              1.3454    Y=             -0.1686    Z=              1.6563  Tot=              2.1405
 Quadrupole moment (field-independent basis, Debye-Ang):
   XX=            -15.9193   YY=            -10.1843   ZZ=            -11.2698
   XY=              2.8906   XZ=             -3.5988   YZ=             -1.8929
 Traceless Quadrupole moment (field-independent basis, Debye-Ang):
   XX=             -3.4615   YY=              2.2735   ZZ=              1.1880
   XY=              2.8906   XZ=             -3.5988   YZ=             -1.8929
 Octapole moment (field-independent basis, Debye-Ang**2):
  XXX=             80.5620  YYY=             -1.4211  ZZZ=              1.5284  XYY=             21.8363
  XXY=             -9.0310  XXZ=              8.1706  XZZ=             22.0745  YZZ=             -1.9572
  YYZ=              2.4188  XYZ=              4.3430
 Hexadecapole moment (field-independent basis, Debye-Ang**3):
 XXXX=           -315.4133 YYYY=            -43.9194 ZZZZ=            -10.6607 XXXY=             21.2590
 XXXZ=            -18.9789 YYYX=              4.6332 YYYZ=             -2.7600 ZZZX=             -3.2945
 ZZZY=             -2.0393 XXYY=            -55.3447 XXZZ=            -47.0654 YYZZ=             -9.4565
 XXYZ=            -10.0846 YYXZ=             -5.1387 ZZXY=              3.7032
 N-N= 3.662125406880D+01 E-N=-4.314555649499D+02  KE= 1.505203111257D+02
 Leave Link  601 at Thu Apr  2 09:37:12 2020, MaxMem=  2147483648 cpu:               0.7 elap:               0.1
 (Enter /usr/local/g16/g16/l122.exe)
 CPIOFr:  IOpCl= 0 IRwI=-1 IRwCP=  731 ICalc=  1 LCPTot=       59414 Len1MO=      159453 IndFrg=      378320
 Counterpoise: doing calculation for fragment   2 using the basis set of the full-system, NewBq=T
 Leave Link  122 at Thu Apr  2 09:37:12 2020, MaxMem=  2147483648 cpu:               0.0 elap:               0.0
 (Enter /usr/local/g16/g16/l301.exe)
 Basis read from rwf:  (5D, 7F)
 No pseudopotential information found on rwf file.
 There are   229 symmetry adapted cartesian basis functions of A   symmetry.
 There are   197 symmetry adapted basis functions of A   symmetry.
   197 basis functions,   415 primitive gaussians,   229 cartesian basis functions
    18 alpha electrons       18 beta electrons
       nuclear repulsion energy         0.0000000000 Hartrees.
 IExCor=    0 DFT=F Ex=HF Corr=None ExCW=0 ScaHFX=  1.000000
 ScaDFX=  1.000000  1.000000  1.000000  1.000000 ScalE2=  1.000000  1.000000
 IRadAn=      5 IRanWt=     -1 IRanGd=            0 ICorTp=0 IEmpDi=  4
 NAtoms=    5 NActive=    5 NUniq=    5 SFac= 1.00D+00 NAtFMM=   60 NAOKFM=F Big=F
 Integral buffers will be    131072 words long.
 Raffenetti 1 integral format.
 Two-electron integral symmetry is turned on.
 No density basis found on file   718.
 Leave Link  301 at Thu Apr  2 09:37:13 2020, MaxMem=  2147483648 cpu:               0.5 elap:               0.0
 (Enter /usr/local/g16/g16/l302.exe)
 NPDir=0 NMtPBC=     1 NCelOv=     1 NCel=       1 NClECP=     1 NCelD=      1
         NCelK=      1 NCelE2=     1 NClLst=     1 CellRange=     0.0.
 One-electron integrals computed using PRISM.
 One-electron integral symmetry used in STVInt
 NBasis=   197 RedAO= T EigKep=  2.11D-04  NBF=   197
 NBsUse=   197 1.00D-06 EigRej= -1.00D+00 NBFU=   197
 Leave Link  302 at Thu Apr  2 09:37:13 2020, MaxMem=  2147483648 cpu:               1.7 elap:               0.1
 (Enter /usr/local/g16/g16/l303.exe)
 DipDrv:  MaxL=1.
 Leave Link  303 at Thu Apr  2 09:37:13 2020, MaxMem=  2147483648 cpu:               0.4 elap:               0.0
 (Enter /usr/local/g16/g16/l401.exe)
 ExpMin= 2.53D-02 ExpMax= 1.17D+07 ExpMxC= 1.33D+04 IAcc=3 IRadAn=         5 AccDes= 0.00D+00
 Harris functional with IExCor=  205 and IRadAn=       5 diagonalized for initial guess.
 HarFok:  IExCor=  205 AccDes= 0.00D+00 IRadAn=         5 IDoV= 1 UseB2=F ITyADJ=14
 ICtDFT=  3500011 ScaDFX=  1.000000  1.000000  1.000000  1.000000
 FoFCou: FMM=F IPFlag=           0 FMFlag=      100000 FMFlg1=           0
         NFxFlg=           0 DoJE=T BraDBF=F KetDBF=T FulRan=T
         wScrn=  0.000000 ICntrl=       500 IOpCl=  0 I1Cent=   200000004 NGrid=           0
         NMat0=    1 NMatS0=      1 NMatT0=    0 NMatD0=    1 NMtDS0=    0 NMtDT0=    0
 Petite list used in FoFCou.
 Harris En= -2751.06001686475    
 JPrj=0 DoOrth=F DoCkMO=F.
 Leave Link  401 at Thu Apr  2 09:37:13 2020, MaxMem=  2147483648 cpu:               3.1 elap:               0.2
 (Enter /usr/local/g16/g16/l502.exe)
 Keep R1 ints in memory in canonical form, NReq=203134348.
 FoFCou: FMM=F IPFlag=           0 FMFlag=           0 FMFlg1=           0
         NFxFlg=           0 DoJE=F BraDBF=F KetDBF=F FulRan=T
         wScrn=  0.000000 ICntrl=       600 IOpCl=  0 I1Cent=           0 NGrid=           0
         NMat0=    1 NMatS0=  19503 NMatT0=    0 NMatD0=    1 NMtDS0=    0 NMtDT0=    0
 Symmetry not used in FoFCou.
 Two-electron integral symmetry not used.
 Closed shell SCF:
 Using DIIS extrapolation, IDIIS=  1040.
 NGot=  2147483648 LenX=  1957179903 LenY=  1957127021
 Requested convergence on RMS density matrix=1.00D-08 within 128 cycles.
 Requested convergence on MAX density matrix=1.00D-06.
 Requested convergence on             energy=1.00D-06.
 No special actions if energy rises.

 Cycle   1  Pass 1  IDiag  1:
 E= -2752.00364545110    
 DIIS: error= 4.14D-02 at cycle   1 NSaved=   1.
 NSaved= 1 IEnMin= 1 EnMin= -2752.00364545110     IErMin= 1 ErrMin= 4.14D-02
 ErrMax= 4.14D-02  0.00D+00 EMaxC= 1.00D-01 BMatC= 4.27D-01 BMatP= 4.27D-01
 IDIUse=3 WtCom= 5.86D-01 WtEn= 4.14D-01
 Coeff-Com:  0.100D+01
 Coeff-En:   0.100D+01
 Coeff:      0.100D+01
 Gap=     0.631 Goal=   None    Shift=    0.000
 GapD=    0.631 DampG=2.000 DampE=0.500 DampFc=1.0000 IDamp=-1.
 RMSDP=1.74D-03 MaxDP=1.29D-01              OVMax= 2.38D-02

 Cycle   2  Pass 1  IDiag  1:
 E= -2752.04698567436     Delta-E=       -0.043340223256 Rises=F Damp=F
 DIIS: error= 5.76D-03 at cycle   2 NSaved=   2.
 NSaved= 2 IEnMin= 2 EnMin= -2752.04698567436     IErMin= 2 ErrMin= 5.76D-03
 ErrMax= 5.76D-03  0.00D+00 EMaxC= 1.00D-01 BMatC= 1.96D-02 BMatP= 4.27D-01
 IDIUse=3 WtCom= 9.42D-01 WtEn= 5.76D-02
 Coeff-Com:  0.152D+00 0.848D+00
 Coeff-En:   0.000D+00 0.100D+01
 Coeff:      0.143D+00 0.857D+00
 Gap=     0.544 Goal=   None    Shift=    0.000
 RMSDP=5.62D-04 MaxDP=3.47D-02 DE=-4.33D-02 OVMax= 1.31D-02

 Cycle   3  Pass 1  IDiag  1:
 E= -2752.05206038159     Delta-E=       -0.005074707232 Rises=F Damp=F
 DIIS: error= 1.15D-03 at cycle   3 NSaved=   3.
 NSaved= 3 IEnMin= 3 EnMin= -2752.05206038159     IErMin= 3 ErrMin= 1.15D-03
 ErrMax= 1.15D-03  0.00D+00 EMaxC= 1.00D-01 BMatC= 6.87D-04 BMatP= 1.96D-02
 IDIUse=3 WtCom= 9.88D-01 WtEn= 1.15D-02
 Coeff-Com: -0.127D-02 0.153D+00 0.848D+00
 Coeff-En:   0.000D+00 0.000D+00 0.100D+01
 Coeff:     -0.126D-02 0.151D+00 0.850D+00
 Gap=     0.555 Goal=   None    Shift=    0.000
 RMSDP=7.31D-05 MaxDP=4.27D-03 DE=-5.07D-03 OVMax= 2.85D-03

 Cycle   4  Pass 1  IDiag  1:
 E= -2752.05226513764     Delta-E=       -0.000204756045 Rises=F Damp=F
 DIIS: error= 4.28D-05 at cycle   4 NSaved=   4.
 NSaved= 4 IEnMin= 4 EnMin= -2752.05226513764     IErMin= 4 ErrMin= 4.28D-05
 ErrMax= 4.28D-05  0.00D+00 EMaxC= 1.00D-01 BMatC= 6.93D-07 BMatP= 6.87D-04
 IDIUse=1 WtCom= 1.00D+00 WtEn= 0.00D+00
 Coeff-Com: -0.366D-03-0.174D-01-0.599D-01 0.108D+01
 Coeff:     -0.366D-03-0.174D-01-0.599D-01 0.108D+01
 Gap=     0.554 Goal=   None    Shift=    0.000
 RMSDP=5.96D-06 MaxDP=2.86D-04 DE=-2.05D-04 OVMax= 2.69D-04

 Cycle   5  Pass 1  IDiag  1:
 E= -2752.05226556325     Delta-E=       -0.000000425619 Rises=F Damp=F
 DIIS: error= 3.16D-06 at cycle   5 NSaved=   5.
 NSaved= 5 IEnMin= 5 EnMin= -2752.05226556325     IErMin= 5 ErrMin= 3.16D-06
 ErrMax= 3.16D-06  0.00D+00 EMaxC= 1.00D-01 BMatC= 6.02D-09 BMatP= 6.93D-07
 IDIUse=1 WtCom= 1.00D+00 WtEn= 0.00D+00
 Coeff-Com:  0.614D-04 0.242D-04-0.514D-02-0.848D-01 0.109D+01
 Coeff:      0.614D-04 0.242D-04-0.514D-02-0.848D-01 0.109D+01
 Gap=     0.554 Goal=   None    Shift=    0.000
 RMSDP=6.61D-07 MaxDP=2.87D-05 DE=-4.26D-07 OVMax= 2.77D-05

 Cycle   6  Pass 1  IDiag  1:
 E= -2752.05226556907     Delta-E=       -0.000000005816 Rises=F Damp=F
 DIIS: error= 2.86D-07 at cycle   6 NSaved=   6.
 NSaved= 6 IEnMin= 6 EnMin= -2752.05226556907     IErMin= 6 ErrMin= 2.86D-07
 ErrMax= 2.86D-07  0.00D+00 EMaxC= 1.00D-01 BMatC= 4.06D-11 BMatP= 6.02D-09
 IDIUse=1 WtCom= 1.00D+00 WtEn= 0.00D+00
 Coeff-Com: -0.301D-05 0.957D-04 0.868D-03-0.183D-02-0.934D-01 0.109D+01
 Coeff:     -0.301D-05 0.957D-04 0.868D-03-0.183D-02-0.934D-01 0.109D+01
 Gap=     0.554 Goal=   None    Shift=    0.000
 RMSDP=6.54D-08 MaxDP=3.79D-06 DE=-5.82D-09 OVMax= 3.30D-06

 Cycle   7  Pass 1  IDiag  1:
 E= -2752.05226556913     Delta-E=       -0.000000000059 Rises=F Damp=F
 DIIS: error= 1.47D-08 at cycle   7 NSaved=   7.
 NSaved= 7 IEnMin= 7 EnMin= -2752.05226556913     IErMin= 7 ErrMin= 1.47D-08
 ErrMax= 1.47D-08  0.00D+00 EMaxC= 1.00D-01 BMatC= 1.37D-13 BMatP= 4.06D-11
 IDIUse=1 WtCom= 1.00D+00 WtEn= 0.00D+00
 Coeff-Com:  0.783D-07-0.431D-05-0.394D-04 0.239D-03 0.357D-02-0.715D-01
 Coeff-Com:  0.107D+01
 Coeff:      0.783D-07-0.431D-05-0.394D-04 0.239D-03 0.357D-02-0.715D-01
 Coeff:      0.107D+01
 Gap=     0.554 Goal=   None    Shift=    0.000
 RMSDP=5.67D-09 MaxDP=2.06D-07 DE=-5.87D-11 OVMax= 2.27D-07

 SCF Done:  E(RHF) =  -2752.05226557     A.U. after    7 cycles
            NFock=  7  Conv=0.57D-08     -V/T= 2.0000
 KE= 2.752039778550D+03 PE=-6.582554748419D+03 EE= 1.078462704300D+03
 Leave Link  502 at Thu Apr  2 09:37:15 2020, MaxMem=  2147483648 cpu:              24.9 elap:               2.6
 (Enter /usr/local/g16/g16/l801.exe)
 Windowed orbitals will be sorted by symmetry type.
 ExpMin= 2.53D-02 ExpMax= 1.17D+07 ExpMxC= 1.33D+04 IAcc=3 IRadAn=         5 AccDes= 0.00D+00
 HarFok:  IExCor=  205 AccDes= 0.00D+00 IRadAn=         5 IDoV=-2 UseB2=F ITyADJ=14
 ICtDFT= 12500011 ScaDFX=  1.000000  1.000000  1.000000  1.000000
 Largest valence mixing into a core orbital is  9.81D-05
 Largest core mixing into a valence orbital is  3.83D-05
 Range of M.O.s used for correlation:    10   197
 NBasis=   197 NAE=    18 NBE=    18 NFC=     9 NFV=     0
 NROrb=    188 NOA=     9 NOB=     9 NVA=   179 NVB=   179

 **** Warning!!: The largest alpha MO coefficient is  0.15306925D+02

 Leave Link  801 at Thu Apr  2 09:37:16 2020, MaxMem=  2147483648 cpu:               0.5 elap:               0.0
 (Enter /usr/local/g16/g16/l804.exe)
 Closed-shell transformation, MDV=  2147483648 ITran=4 ISComp=1.
 Semi-Direct transformation.
 ModeAB=           2 MOrb=             9 LenV=    2146336140
 LASXX=     28892340 LTotXX=    28892340 LenRXX=    28892340
 LTotAB=    29348001 MaxLAS=    44558820 LenRXY=    44558820
 NonZer=    57784680 LenScr=    87449600 LnRSAI=           0
 LnScr1=           0 LExtra=           0 Total=    160900760
 MaxDsk=          -1 SrtSym=           F ITran=            4
 DoSDTr:  NPSUse= 16
 JobTyp=0 Pass  1:  I=   1 to   9.
 (rs|ai) integrals will be sorted in core.
 Complete sort for first half transformation.
 First half transformation complete.
 Complete sort for second half transformation.
 Second half transformation complete.
 SymMOI:  orbitals are not symmetric.
 Spin components of T(2) and E(2):
     alpha-alpha T2 =       0.9502449381D-02 E2=     -0.3580063112D-01
     alpha-beta  T2 =       0.4817565818D-01 E2=     -0.1723017790D+00
     beta-beta   T2 =       0.9502449381D-02 E2=     -0.3580063112D-01
 ANorm=    0.1033044315D+01
 E2 =    -0.2439030412D+00 EUMP2 =    -0.27522961686104D+04
 Leave Link  804 at Thu Apr  2 09:37:24 2020, MaxMem=  2147483648 cpu:             131.6 elap:               8.2
 (Enter /usr/local/g16/g16/l913.exe)
 CIDS:  MDV=  2147483648.
 Frozen-core window:  NFC=   9 NFV=   0.
 IFCWin=0 IBDFC=1 NFBD=     0     0 NFCmp=     0     0 NFFFC=     0     0
 Using DD3R+UMP44R for 1st iteration.
 Using DD4RQ for 2nd and later iterations.
 Keep R2 and R3 ints in memory in canonical form, NReq=393333615.
 FoFCou: FMM=F IPFlag=           0 FMFlag=           0 FMFlg1=           0
         NFxFlg=           0 DoJE=F BraDBF=F KetDBF=F FulRan=T
         wScrn=  0.000000 ICntrl=       600 IOpCl=  0 I1Cent=           0 NGrid=           0
         NMat0=    1 NMatS0=  19503 NMatT0=    0 NMatD0=    1 NMtDS0=    0 NMtDT0=    0
 Symmetry not used in FoFCou.
 Two-electron integral symmetry not used.
 CIDS: In Core Option IDoMem=           1.
 MP4(SDTQ)
 =========
 Produce multiple copies of IABC intergrals
 DD1Dir will call FoFMem   1 times, MxPair=        90
 NAB=    45 NAA=     0 NBB=     0.
 MP4(D)= -0.37203794D-02
 MP4(S)= -0.10891466D-02
 MP4(R+Q)=  0.42464516D-02
 T4(AAA)= -0.32561383D-03
 T4(AAB)= -0.35626960D-02
 Time for triples=      481.35 seconds.
 MP4(T)=   -0.77766197D-02
 E3=       -0.98634203D-02        EUMP3=      -0.27523060320D+04
 E4(DQ)=    0.52607224D-03        UMP4(DQ)=   -0.27523055060D+04
 E4(SDQ)=  -0.56307432D-03        UMP4(SDQ)=  -0.27523065951D+04
 E4(SDTQ)= -0.83396940D-02        UMP4(SDTQ)= -0.27523143717D+04
 VARIATIONAL ENERGIES WITH THE FIRST-ORDER WAVEFUNCTION:
 E(VAR1)=  -0.27522900571D+04     E(CISD,4)=  -0.27522944560D+04
 Largest amplitude= 1.56D-02
 Discarding MO integrals.
 Leave Link  913 at Thu Apr  2 09:37:58 2020, MaxMem=  2147483648 cpu:             548.8 elap:              34.3
 (Enter /usr/local/g16/g16/l601.exe)
 Copying SCF densities to generalized density rwf, IOpCl= 0 IROHF=0.

 **********************************************************************

            Population analysis using the SCF density.

 **********************************************************************

 Orbital symmetries:
       Occupied  (A) (A) (A) (A) (A) (A) (A) (A) (A) (A) (A) (A)
                 (A) (A) (A) (A) (A) (A)
       Virtual   (A) (A) (A) (A) (A) (A) (A) (A) (A) (A) (A) (A)
                 (A) (A) (A) (A) (A) (A) (A) (A) (A) (A) (A) (A)
                 (A) (A) (A) (A) (A) (A) (A) (A) (A) (A) (A) (A)
                 (A) (A) (A) (A) (A) (A) (A) (A) (A) (A) (A) (A)
                 (A) (A) (A) (A) (A) (A) (A) (A) (A) (A) (A) (A)
                 (A) (A) (A) (A) (A) (A) (A) (A) (A) (A) (A) (A)
                 (A) (A) (A) (A) (A) (A) (A) (A) (A) (A) (A) (A)
                 (A) (A) (A) (A) (A) (A) (A) (A) (A) (A) (A) (A)
                 (A) (A) (A) (A) (A) (A) (A) (A) (A) (A) (A) (A)
                 (A) (A) (A) (A) (A) (A) (A) (A) (A) (A) (A) (A)
                 (A) (A) (A) (A) (A) (A) (A) (A) (A) (A) (A) (A)
                 (A) (A) (A) (A) (A) (A) (A) (A) (A) (A) (A) (A)
                 (A) (A) (A) (A) (A) (A) (A) (A) (A) (A) (A) (A)
                 (A) (A) (A) (A) (A) (A) (A) (A) (A) (A) (A) (A)
                 (A) (A) (A) (A) (A) (A) (A) (A) (A) (A) (A)
 The electronic state is 1-A.
 Alpha  occ. eigenvalues -- -520.16580 -69.90314 -63.00972 -63.00972 -63.00971
 Alpha  occ. eigenvalues --  -10.84954  -8.33154  -8.33154  -8.33153  -3.82531
 Alpha  occ. eigenvalues --   -3.82531  -3.82531  -3.82531  -3.82530  -1.15311
 Alpha  occ. eigenvalues --   -0.52431  -0.52429  -0.52429
 Alpha virt. eigenvalues --    0.03018   0.04954   0.08699   0.09283   0.11927
 Alpha virt. eigenvalues --    0.12370   0.13445   0.13886   0.16452   0.17138
 Alpha virt. eigenvalues --    0.17925   0.19979   0.21363   0.27063   0.28124
 Alpha virt. eigenvalues --    0.29388   0.29541   0.31687   0.34791   0.35155
 Alpha virt. eigenvalues --    0.37652   0.38030   0.39949   0.40819   0.42356
 Alpha virt. eigenvalues --    0.42933   0.44589   0.55556   0.57427   0.59610
 Alpha virt. eigenvalues --    0.61946   0.66958   0.69187   0.70506   0.73115
 Alpha virt. eigenvalues --    0.76795   0.78255   0.79257   0.82063   0.83092
 Alpha virt. eigenvalues --    0.84019   0.85380   0.86321   0.87913   0.88855
 Alpha virt. eigenvalues --    0.90323   0.91110   0.92936   0.93755   0.97365
 Alpha virt. eigenvalues --    0.99042   1.00091   1.01876   1.02248   1.04925
 Alpha virt. eigenvalues --    1.07487   1.11257   1.12904   1.16330   1.16615
 Alpha virt. eigenvalues --    1.18948   1.24531   1.28657   1.29929   1.30770
 Alpha virt. eigenvalues --    1.35749   1.39023   1.40433   1.48787   1.51505
 Alpha virt. eigenvalues --    1.56199   1.58284   1.65638   1.75556   1.77890
 Alpha virt. eigenvalues --    1.80124   1.83255   1.89486   1.99740   2.25712
 Alpha virt. eigenvalues --    2.32526   2.34431   2.38088   2.38474   2.41491
 Alpha virt. eigenvalues --    2.43239   2.44598   2.46978   2.47534   2.50365
 Alpha virt. eigenvalues --    2.54532   2.55006   2.55641   2.58224   2.59919
 Alpha virt. eigenvalues --    2.61029   2.63042   2.65661   2.66822   2.70820
 Alpha virt. eigenvalues --    2.71153   2.73023   2.77322   2.79572   2.82041
 Alpha virt. eigenvalues --    2.85121   2.86191   2.88371   2.91888   2.96233
 Alpha virt. eigenvalues --    3.01731   3.04892   3.07108   3.12608   3.21694
 Alpha virt. eigenvalues --    3.24631   3.25682   3.31231   3.38168   3.49280
 Alpha virt. eigenvalues --    3.61280   3.64692   3.82954   3.87066   4.04159
 Alpha virt. eigenvalues --    4.41661   4.50388   4.51853   4.63482   4.71636
 Alpha virt. eigenvalues --    4.73601   4.88107   4.92035   4.95475   5.01978
 Alpha virt. eigenvalues --    5.17033   5.22952   5.59724   5.65508   5.76205
 Alpha virt. eigenvalues --    5.92257   6.02890   6.12286   6.74479   6.88672
 Alpha virt. eigenvalues --    7.37945   7.45642   7.58766   7.62293   7.75787
 Alpha virt. eigenvalues --    7.82904   7.91949   8.12908   8.16982   8.22172
 Alpha virt. eigenvalues --    8.40637   8.47792   8.57529   8.86209   9.65785
 Alpha virt. eigenvalues --    9.76079   9.84571   9.89481   9.90551   9.99793
 Alpha virt. eigenvalues --   10.14782  10.34033  10.36098  10.97810  11.52002
 Alpha virt. eigenvalues --   11.66179  11.79249  12.06808  12.10320  13.23303
 Alpha virt. eigenvalues --   13.62999  14.52153  62.78677  64.69213
          Condensed to atoms (all electrons):
               1          2          3          4          5
     1  O    0.000871  -0.000812  -0.000516   0.000433  -0.002663
     2  O   -0.000812   0.002051   0.000295  -0.001278  -0.002015
     3  H   -0.000516   0.000295   0.000382  -0.000150   0.000704
     4  H    0.000433  -0.001278  -0.000150   0.001096  -0.008020
     5  Kr  -0.002663  -0.002015   0.000704  -0.008020  36.023643
 Mulliken charges:
               1
     1  O    0.002686
     2  O    0.001760
     3  H   -0.000716
     4  H    0.007919
     5  Kr  -0.011649
 Sum of Mulliken charges =  -0.00000
 Mulliken charges with hydrogens summed into heavy atoms:
               1
     1  O    0.001970
     2  O    0.009678
     5  Kr  -0.011649
         Mulliken charges condensed to fragments:
      1      0.011649
      2     -0.011649
 Electronic spatial extent (au):  <R**2>=            164.5552
 Charge=              0.0000 electrons
 Dipole moment (field-independent basis, Debye):
    X=             -0.0008    Y=              0.0005    Z=              0.0001  Tot=              0.0010
 Quadrupole moment (field-independent basis, Debye-Ang):
   XX=            -17.7273   YY=            -17.7324   ZZ=            -17.7366
   XY=             -0.0021   XZ=             -0.0005   YZ=             -0.0000
 Traceless Quadrupole moment (field-independent basis, Debye-Ang):
   XX=              0.0048   YY=             -0.0003   ZZ=             -0.0045
   XY=             -0.0021   XZ=             -0.0005   YZ=             -0.0000
 Octapole moment (field-independent basis, Debye-Ang**2):
  XXX=            -52.4380  YYY=              0.6247  ZZZ=             -0.0379  XYY=            -17.4859
  XXY=              0.2028  XXZ=             -0.0139  XZZ=            -17.4889  YZZ=              0.2087
  YYZ=             -0.0125  XYZ=              0.0001
 Hexadecapole moment (field-independent basis, Debye-Ang**3):
 XXXX=           -121.9348 YYYY=            -18.5515 ZZZZ=            -18.5541 XXXY=              0.6039
 XXXZ=             -0.0399 YYYX=              0.6074 YYYZ=              0.0005 ZZZX=             -0.0391
 ZZZY=              0.0009 XXYY=            -23.4208 XXZZ=            -23.4225 YYZZ=             -6.1838
 XXYZ=              0.0003 YYXZ=             -0.0128 ZZXY=              0.2019
 N-N= 0.000000000000D+00 E-N=-6.582554749981D+03  KE= 2.752039778550D+03
 Leave Link  601 at Thu Apr  2 09:37:59 2020, MaxMem=  2147483648 cpu:               0.5 elap:               0.0
 (Enter /usr/local/g16/g16/l122.exe)
 CPIOFr:  IOpCl= 0 IRwI=-1 IRwCP=  731 ICalc=  2 LCPTot=       59414 Len1MO=      159453 IndFrg=      537773
 Counterpoise: doing calculation for fragment   1 using the basis set of the fragment.
 Leave Link  122 at Thu Apr  2 09:37:59 2020, MaxMem=  2147483648 cpu:               0.0 elap:               0.0
 (Enter /usr/local/g16/g16/l301.exe)
 Basis read from rwf:  (5D, 7F)
 No pseudopotential information found on rwf file.
 There are   160 symmetry adapted cartesian basis functions of A   symmetry.
 There are   138 symmetry adapted basis functions of A   symmetry.
   138 basis functions,   198 primitive gaussians,   160 cartesian basis functions
     9 alpha electrons        9 beta electrons
       nuclear repulsion energy        36.6212540688 Hartrees.
 IExCor=    0 DFT=F Ex=HF Corr=None ExCW=0 ScaHFX=  1.000000
 ScaDFX=  1.000000  1.000000  1.000000  1.000000 ScalE2=  1.000000  1.000000
 IRadAn=      5 IRanWt=     -1 IRanGd=            0 ICorTp=0 IEmpDi=  4
 NAtoms=    5 NActive=    4 NUniq=    4 SFac= 1.00D+00 NAtFMM=   60 NAOKFM=F Big=F
 Integral buffers will be    131072 words long.
 Raffenetti 1 integral format.
 Two-electron integral symmetry is turned on.
 No density basis found on file   718.
 Leave Link  301 at Thu Apr  2 09:37:59 2020, MaxMem=  2147483648 cpu:               0.4 elap:               0.0
 (Enter /usr/local/g16/g16/l302.exe)
 NPDir=0 NMtPBC=     1 NCelOv=     1 NCel=       1 NClECP=     1 NCelD=      1
         NCelK=      1 NCelE2=     1 NClLst=     1 CellRange=     0.0.
 One-electron integrals computed using PRISM.
 One-electron integral symmetry used in STVInt
 NBasis=   138 RedAO= T EigKep=  2.55D-04  NBF=   138
 NBsUse=   138 1.00D-06 EigRej= -1.00D+00 NBFU=   138
 Leave Link  302 at Thu Apr  2 09:37:59 2020, MaxMem=  2147483648 cpu:               1.5 elap:               0.1
 (Enter /usr/local/g16/g16/l303.exe)
 DipDrv:  MaxL=1.
 Leave Link  303 at Thu Apr  2 09:37:59 2020, MaxMem=  2147483648 cpu:               0.3 elap:               0.0
 (Enter /usr/local/g16/g16/l401.exe)
 ExpMin= 2.53D-02 ExpMax= 1.53D+04 ExpMxC= 5.22D+02 IAcc=3 IRadAn=         5 AccDes= 0.00D+00
 Harris functional with IExCor=  205 and IRadAn=       5 diagonalized for initial guess.
 HarFok:  IExCor=  205 AccDes= 0.00D+00 IRadAn=         5 IDoV= 1 UseB2=F ITyADJ=14
 ICtDFT=  3500011 ScaDFX=  1.000000  1.000000  1.000000  1.000000
 FoFCou: FMM=F IPFlag=           0 FMFlag=      100000 FMFlg1=           0
         NFxFlg=           0 DoJE=T BraDBF=F KetDBF=T FulRan=T
         wScrn=  0.000000 ICntrl=       500 IOpCl=  0 I1Cent=   200000004 NGrid=           0
         NMat0=    1 NMatS0=      1 NMatT0=    0 NMatD0=    1 NMtDS0=    0 NMtDT0=    0
 Petite list used in FoFCou.
 Harris En= -150.936160147180    
 JPrj=0 DoOrth=F DoCkMO=F.
 Leave Link  401 at Thu Apr  2 09:37:59 2020, MaxMem=  2147483648 cpu:               2.3 elap:               0.1
 (Enter /usr/local/g16/g16/l502.exe)
 Keep R1 ints in memory in canonical form, NReq=53860811.
 FoFCou: FMM=F IPFlag=           0 FMFlag=           0 FMFlg1=           0
         NFxFlg=           0 DoJE=F BraDBF=F KetDBF=F FulRan=T
         wScrn=  0.000000 ICntrl=       600 IOpCl=  0 I1Cent=           0 NGrid=           0
         NMat0=    1 NMatS0=   9591 NMatT0=    0 NMatD0=    1 NMtDS0=    0 NMtDT0=    0
 Symmetry not used in FoFCou.
 Two-electron integral symmetry not used.
 Closed shell SCF:
 Using DIIS extrapolation, IDIIS=  1040.
 NGot=  2147483648 LenX=  2101430001 LenY=  2101403960
 Requested convergence on RMS density matrix=1.00D-08 within 128 cycles.
 Requested convergence on MAX density matrix=1.00D-06.
 Requested convergence on             energy=1.00D-06.
 No special actions if energy rises.

 Cycle   1  Pass 1  IDiag  1:
 E= -150.773966059075    
 DIIS: error= 3.42D-02 at cycle   1 NSaved=   1.
 NSaved= 1 IEnMin= 1 EnMin= -150.773966059075     IErMin= 1 ErrMin= 3.42D-02
 ErrMax= 3.42D-02  0.00D+00 EMaxC= 1.00D-01 BMatC= 2.27D-01 BMatP= 2.27D-01
 IDIUse=3 WtCom= 6.58D-01 WtEn= 3.42D-01
 Coeff-Com:  0.100D+01
 Coeff-En:   0.100D+01
 Coeff:      0.100D+01
 Gap=     0.722 Goal=   None    Shift=    0.000
 GapD=    0.722 DampG=2.000 DampE=0.500 DampFc=1.0000 IDamp=-1.
 RMSDP=1.31D-03 MaxDP=2.87D-02              OVMax= 6.39D-02

 Cycle   2  Pass 1  IDiag  1:
 E= -150.826616647035     Delta-E=       -0.052650587961 Rises=F Damp=F
 DIIS: error= 9.09D-03 at cycle   2 NSaved=   2.
 NSaved= 2 IEnMin= 2 EnMin= -150.826616647035     IErMin= 2 ErrMin= 9.09D-03
 ErrMax= 9.09D-03  0.00D+00 EMaxC= 1.00D-01 BMatC= 1.58D-02 BMatP= 2.27D-01
 IDIUse=3 WtCom= 9.09D-01 WtEn= 9.09D-02
 Coeff-Com:  0.104D+00 0.896D+00
 Coeff-En:   0.000D+00 0.100D+01
 Coeff:      0.948D-01 0.905D+00
 Gap=     0.556 Goal=   None    Shift=    0.000
 RMSDP=6.87D-04 MaxDP=2.49D-02 DE=-5.27D-02 OVMax= 2.84D-02

 Cycle   3  Pass 1  IDiag  1:
 E= -150.834528190611     Delta-E=       -0.007911543576 Rises=F Damp=F
 DIIS: error= 4.18D-03 at cycle   3 NSaved=   3.
 NSaved= 3 IEnMin= 3 EnMin= -150.834528190611     IErMin= 3 ErrMin= 4.18D-03
 ErrMax= 4.18D-03  0.00D+00 EMaxC= 1.00D-01 BMatC= 2.30D-03 BMatP= 1.58D-02
 IDIUse=3 WtCom= 9.58D-01 WtEn= 4.18D-02
 Coeff-Com: -0.209D-01 0.255D+00 0.766D+00
 Coeff-En:   0.000D+00 0.000D+00 0.100D+01
 Coeff:     -0.200D-01 0.245D+00 0.775D+00
 Gap=     0.527 Goal=   None    Shift=    0.000
 RMSDP=1.56D-04 MaxDP=3.92D-03 DE=-7.91D-03 OVMax= 9.12D-03

 Cycle   4  Pass 1  IDiag  1:
 E= -150.835960300526     Delta-E=       -0.001432109914 Rises=F Damp=F
 DIIS: error= 4.15D-04 at cycle   4 NSaved=   4.
 NSaved= 4 IEnMin= 4 EnMin= -150.835960300526     IErMin= 4 ErrMin= 4.15D-04
 ErrMax= 4.15D-04  0.00D+00 EMaxC= 1.00D-01 BMatC= 1.58D-05 BMatP= 2.30D-03
 IDIUse=3 WtCom= 9.96D-01 WtEn= 4.15D-03
 Coeff-Com: -0.176D-02-0.114D-01 0.136D-01 0.100D+01
 Coeff-En:   0.000D+00 0.000D+00 0.000D+00 0.100D+01
 Coeff:     -0.175D-02-0.114D-01 0.135D-01 0.100D+01
 Gap=     0.529 Goal=   None    Shift=    0.000
 RMSDP=2.26D-05 MaxDP=4.08D-04 DE=-1.43D-03 OVMax= 1.38D-03

 Cycle   5  Pass 1  IDiag  1:
 E= -150.835982408569     Delta-E=       -0.000022108044 Rises=F Damp=F
 DIIS: error= 1.26D-04 at cycle   5 NSaved=   5.
 NSaved= 5 IEnMin= 5 EnMin= -150.835982408569     IErMin= 5 ErrMin= 1.26D-04
 ErrMax= 1.26D-04  0.00D+00 EMaxC= 1.00D-01 BMatC= 1.52D-06 BMatP= 1.58D-05
 IDIUse=3 WtCom= 9.99D-01 WtEn= 1.26D-03
 Coeff-Com:  0.169D-02-0.166D-01-0.585D-01-0.168D+00 0.124D+01
 Coeff-En:   0.000D+00 0.000D+00 0.000D+00 0.000D+00 0.100D+01
 Coeff:      0.169D-02-0.166D-01-0.585D-01-0.168D+00 0.124D+01
 Gap=     0.529 Goal=   None    Shift=    0.000
 RMSDP=1.30D-05 MaxDP=2.38D-04 DE=-2.21D-05 OVMax= 8.77D-04

 Cycle   6  Pass 1  IDiag  1:
[...]
 Closed shell SCF:
 Using DIIS extrapolation, IDIIS=  1040.
 NGot=  2147483648 LenX=  2101430001 LenY=  2101403960
 Requested convergence on RMS density matrix=1.00D-08 within 128 cycles.
 Requested convergence on MAX density matrix=1.00D-06.
 Requested convergence on             energy=1.00D-06.
 No special actions if energy rises.

 Cycle   1  Pass 1  IDiag  1:
 E= -150.835986717659    
 DIIS: error= 3.82D-11 at cycle   1 NSaved=   1.
 NSaved= 1 IEnMin= 1 EnMin= -150.835986717659     IErMin= 1 ErrMin= 3.82D-11
 ErrMax= 3.82D-11  0.00D+00 EMaxC= 1.00D-01 BMatC= 2.89D-19 BMatP= 2.89D-19
 IDIUse=1 WtCom= 1.00D+00 WtEn= 0.00D+00
 Coeff-Com:  0.100D+01
 Coeff:      0.100D+01
 Gap=     0.909 Goal=   None    Shift=    0.000
 RMSDP=2.95D-12 MaxDP=8.57D-11              OVMax= 1.91D-10

 SCF Done:  E(RHF) =  -150.835986718     A.U. after    1 cycles
            NFock=  1  Conv=0.29D-11     -V/T= 2.0021
 KE= 1.505205927005D+02 PE=-4.314544968653D+02 EE= 9.347666337841D+01
 Leave Link  502 at Thu Apr  2 10:54:00 2020, MaxMem=  2147483648 cpu:               7.1 elap:               0.5
 (Enter /usr/local/g16/g16/l801.exe)
 Windowed orbitals will be sorted by symmetry type.
 ExpMin= 2.53D-02 ExpMax= 1.53D+04 ExpMxC= 5.22D+02 IAcc=3 IRadAn=         5 AccDes= 0.00D+00
 HarFok:  IExCor=  205 AccDes= 0.00D+00 IRadAn=         5 IDoV=-2 UseB2=F ITyADJ=14
 ICtDFT= 12500011 ScaDFX=  1.000000  1.000000  1.000000  1.000000
 Largest valence mixing into a core orbital is  1.19D-04
 Largest core mixing into a valence orbital is  2.05D-05
 Range of M.O.s used for correlation:     3   138
 NBasis=   138 NAE=     9 NBE=     9 NFC=     2 NFV=     0
 NROrb=    136 NOA=     7 NOB=     7 NVA=   129 NVB=   129

 **** Warning!!: The largest alpha MO coefficient is  0.13628443D+02

 Leave Link  801 at Thu Apr  2 10:54:00 2020, MaxMem=  2147483648 cpu:               0.6 elap:               0.0
 (Enter /usr/local/g16/g16/l804.exe)
 Closed-shell transformation, MDV=  2147483648 ITran=4 ISComp=1.
 Semi-Direct transformation.
 ModeAB=           2 MOrb=             7 LenV=    2146849405
 LASXX=      8463147 LTotXX=     8463147 LenRXX=     8463147
 LTotAB=     8647912 MaxLAS=    12261760 LenRXY=    12261760
 NonZer=    16926294 LenScr=    26146816 LnRSAI=           0
 LnScr1=           0 LExtra=           0 Total=     46871723
 MaxDsk=          -1 SrtSym=           F ITran=            4
 DoSDTr:  NPSUse= 16
 JobTyp=0 Pass  1:  I=   1 to   7.
 (rs|ai) integrals will be sorted in core.
 Complete sort for first half transformation.
 First half transformation complete.
 Complete sort for second half transformation.
 Second half transformation complete.
 SymMOI:  orbitals are not symmetric.
 Spin components of T(2) and E(2):
     alpha-alpha T2 =       0.1601219017D-01 E2=     -0.6283000908D-01
     alpha-beta  T2 =       0.9326762669D-01 E2=     -0.3819320904D+00
     beta-beta   T2 =       0.1601219017D-01 E2=     -0.6283000908D-01
 ANorm=    0.1060797816D+01
 E2 =    -0.5075921086D+00 EUMP2 =    -0.15134357882623D+03
 Leave Link  804 at Thu Apr  2 10:54:02 2020, MaxMem=  2147483648 cpu:              27.3 elap:               1.7
 (Enter /usr/local/g16/g16/l913.exe)
 CIDS:  MDV=  2147483648.
 Frozen-core window:  NFC=   2 NFV=   0.
 IFCWin=0 IBDFC=1 NFBD=     0     0 NFCmp=     0     0 NFFFC=     0     0
 Using DD3R+UMP44R for 1st iteration.
 Using DD4RQ for 2nd and later iterations.
 Keep R2 and R3 ints in memory in canonical form, NReq=99863705.
 FoFCou: FMM=F IPFlag=           0 FMFlag=           0 FMFlg1=           0
         NFxFlg=           0 DoJE=F BraDBF=F KetDBF=F FulRan=T
         wScrn=  0.000000 ICntrl=       600 IOpCl=  0 I1Cent=           0 NGrid=           0
         NMat0=    1 NMatS0=   9591 NMatT0=    0 NMatD0=    1 NMtDS0=    0 NMtDT0=    0
 Symmetry not used in FoFCou.
 Two-electron integral symmetry not used.
 CIDS: In Core Option IDoMem=           1.
 MP4(SDTQ)
 =========
 Produce multiple copies of IABC intergrals
 DD1Dir will call FoFMem   1 times, MxPair=        56
 NAB=    28 NAA=     0 NBB=     0.
 MP4(D)= -0.11280233D-01
 MP4(S)= -0.52134147D-02
 MP4(R+Q)=  0.10761434D-01
 T4(AAA)= -0.65930414D-03
 T4(AAB)= -0.10263515D-01
 Time for triples=       94.21 seconds.
 MP4(T)=   -0.21845639D-01
 E3=       -0.20620897D-02        EUMP3=      -0.15134564092D+03
 E4(DQ)=   -0.51879897D-03        UMP4(DQ)=   -0.15134615971D+03
 E4(SDQ)=  -0.57322137D-02        UMP4(SDQ)=  -0.15135137313D+03
 E4(SDTQ)= -0.27577853D-01        UMP4(SDTQ)= -0.15137321877D+03
 VARIATIONAL ENERGIES WITH THE FIRST-ORDER WAVEFUNCTION:
 E(VAR1)=  -0.15128889511D+03     E(CISD,4)=  -0.15129853733D+03
 Largest amplitude= 3.58D-02
 Discarding MO integrals.
 Leave Link  913 at Thu Apr  2 10:54:09 2020, MaxMem=  2147483648 cpu:             117.3 elap:               7.3
 (Enter /usr/local/g16/g16/l122.exe)
 CPIOFr:  IOpCl= 0 IRwI=-1 IRwCP=  731 ICalc=  3 LCPTot=       59414 Len1MO=      159453 IndFrg=      697226
 Restoring MOs from calculation   5 to rwf and chk.
 CPIOFr:  IOpCl= 0 IRwI=-2 IRwCP=20731 ICalc=  4 LCPTot=       59414 Len1MO=      159453 IndFrg=      856679
 CPIOFr:  IOpCl= 0 IRwI= 4 IRwCP=20731 ICalc=  4 LCPTot=       59414 Len1MO=      159453 IndFrg=      856679
 Counterpoise: doing calculation for fragment   2 using the basis set of the fragment.
 Leave Link  122 at Thu Apr  2 10:54:09 2020, MaxMem=  2147483648 cpu:               0.1 elap:               0.0
 (Enter /usr/local/g16/g16/l301.exe)
 Basis read from rwf:  (5D, 7F)
 No pseudopotential information found on rwf file.
 There are    69 symmetry adapted cartesian basis functions of A   symmetry.
 There are    59 symmetry adapted basis functions of A   symmetry.
    59 basis functions,   217 primitive gaussians,    69 cartesian basis functions
    18 alpha electrons       18 beta electrons
       nuclear repulsion energy         0.0000000000 Hartrees.
 IExCor=    0 DFT=F Ex=HF Corr=None ExCW=0 ScaHFX=  1.000000
 ScaDFX=  1.000000  1.000000  1.000000  1.000000 ScalE2=  1.000000  1.000000
 IRadAn=      5 IRanWt=     -1 IRanGd=            0 ICorTp=0 IEmpDi=  4
 NAtoms=    5 NActive=    1 NUniq=    1 SFac= 1.00D+00 NAtFMM=   60 NAOKFM=F Big=F
 Integral buffers will be    131072 words long.
 Raffenetti 1 integral format.
 Two-electron integral symmetry is turned on.
 No density basis found on file   718.
 Leave Link  301 at Thu Apr  2 10:54:09 2020, MaxMem=  2147483648 cpu:               0.4 elap:               0.0
 (Enter /usr/local/g16/g16/l302.exe)
 NPDir=0 NMtPBC=     1 NCelOv=     1 NCel=       1 NClECP=     1 NCelD=      1
         NCelK=      1 NCelE2=     1 NClLst=     1 CellRange=     0.0.
 One-electron integrals computed using PRISM.
 One-electron integral symmetry used in STVInt
 NBasis=    59 RedAO= T EigKep=  1.06D-02  NBF=    59
 NBsUse=    59 1.00D-06 EigRej= -1.00D+00 NBFU=    59
 Leave Link  302 at Thu Apr  2 10:54:10 2020, MaxMem=  2147483648 cpu:               1.4 elap:               0.1
 (Enter /usr/local/g16/g16/l303.exe)
 DipDrv:  MaxL=1.
 Leave Link  303 at Thu Apr  2 10:54:10 2020, MaxMem=  2147483648 cpu:               0.3 elap:               0.0
 (Enter /usr/local/g16/g16/l401.exe)
 Initial guess from the checkpoint file:  "/mnt/driveB/scratch/matheus/Gau-128106.chk"
 B after Tr=     0.062989    0.000273   -0.000017
         Rot=    1.000000    0.000000    0.000000    0.000000 Ang=   0.00 deg.
 Guess basis will be translated and rotated to current coordinates.
 JPrj=2 DoOrth=T DoCkMO=T.
 Generating alternative initial guess.
 ExpMin= 4.00D-02 ExpMax= 1.17D+07 ExpMxC= 1.33D+04 IAcc=3 IRadAn=         5 AccDes= 0.00D+00
 Harris functional with IExCor=  205 and IRadAn=       5 diagonalized for initial guess.
 HarFok:  IExCor=  205 AccDes= 0.00D+00 IRadAn=         5 IDoV= 1 UseB2=F ITyADJ=14
 ICtDFT=  3500011 ScaDFX=  1.000000  1.000000  1.000000  1.000000
 FoFCou: FMM=F IPFlag=           0 FMFlag=      100000 FMFlg1=           0
         NFxFlg=           0 DoJE=T BraDBF=F KetDBF=T FulRan=T
         wScrn=  0.000000 ICntrl=       500 IOpCl=  0 I1Cent=   200000004 NGrid=           0
         NMat0=    1 NMatS0=      1 NMatT0=    0 NMatD0=    1 NMtDS0=    0 NMtDT0=    0
 Petite list used in FoFCou.
 DSYEVD-2 returned Info=          89 IAlg= 4 N=    59 NDim=    59 NE2=    36397839 trying  DSYEV.
 Harris En= -2751.05937170533    
 Leave Link  401 at Thu Apr  2 10:54:10 2020, MaxMem=  2147483648 cpu:               2.6 elap:               0.2
 (Enter /usr/local/g16/g16/l502.exe)
 Keep R1 ints in memory in canonical form, NReq=14291944.
 FoFCou: FMM=F IPFlag=           0 FMFlag=           0 FMFlg1=           0
         NFxFlg=           0 DoJE=F BraDBF=F KetDBF=F FulRan=T
         wScrn=  0.000000 ICntrl=       600 IOpCl=  0 I1Cent=           0 NGrid=           0
         NMat0=    1 NMatS0=   1770 NMatT0=    0 NMatD0=    1 NMtDS0=    0 NMtDT0=    0
 Symmetry not used in FoFCou.
 Two-electron integral symmetry not used.
 Closed shell SCF:
 Using DIIS extrapolation, IDIIS=  1040.
 NGot=  2147483648 LenX=  2145904888 LenY=  2145899686
 Requested convergence on RMS density matrix=1.00D-08 within 128 cycles.
 Requested convergence on MAX density matrix=1.00D-06.
 Requested convergence on             energy=1.00D-06.
 No special actions if energy rises.

 Cycle   1  Pass 1  IDiag  1:
 E= -2752.05222307625    
 DIIS: error= 1.67D-13 at cycle   1 NSaved=   1.
 NSaved= 1 IEnMin= 1 EnMin= -2752.05222307625     IErMin= 1 ErrMin= 1.67D-13
 ErrMax= 1.67D-13  0.00D+00 EMaxC= 1.00D-01 BMatC= 4.81D-25 BMatP= 4.81D-25
 IDIUse=1 WtCom= 1.00D+00 WtEn= 0.00D+00
 Coeff-Com:  0.100D+01
 Coeff:      0.100D+01
 Gap=     0.719 Goal=   None    Shift=    0.000
 RMSDP=5.52D-15 MaxDP=9.33D-14              OVMax= 4.01D-14

 SCF Done:  E(RHF) =  -2752.05222308     A.U. after    1 cycles
            NFock=  1  Conv=0.55D-14     -V/T= 2.0000
 KE= 2.752048106937D+03 PE=-6.582565276257D+03 EE= 1.078464946243D+03
 Leave Link  502 at Thu Apr  2 10:54:10 2020, MaxMem=  2147483648 cpu:               9.0 elap:               0.6
 (Enter /usr/local/g16/g16/l801.exe)
 Windowed orbitals will be sorted by symmetry type.
 ExpMin= 4.00D-02 ExpMax= 1.17D+07 ExpMxC= 1.33D+04 IAcc=3 IRadAn=         5 AccDes= 0.00D+00
 HarFok:  IExCor=  205 AccDes= 0.00D+00 IRadAn=         5 IDoV=-2 UseB2=F ITyADJ=14
 ICtDFT= 12500011 ScaDFX=  1.000000  1.000000  1.000000  1.000000
 Largest valence mixing into a core orbital is  9.79D-05
 Largest core mixing into a valence orbital is  3.83D-05
 Range of M.O.s used for correlation:    10    59
 NBasis=    59 NAE=    18 NBE=    18 NFC=     9 NFV=     0
 NROrb=     50 NOA=     9 NOB=     9 NVA=    41 NVB=    41
 Leave Link  801 at Thu Apr  2 10:54:10 2020, MaxMem=  2147483648 cpu:               0.6 elap:               0.0
 (Enter /usr/local/g16/g16/l804.exe)
 Closed-shell transformation, MDV=  2147483648 ITran=4 ISComp=1.
 Semi-Direct transformation.
 ModeAB=           2 MOrb=             9 LenV=    2147140326
 LASXX=       482211 LTotXX=      482211 LenRXX=      482211
 LTotAB=      511245 MaxLAS=     1086750 LenRXY=     1086750
 NonZer=     1162350 LenScr=     2357760 LnRSAI=           0
 LnScr1=           0 LExtra=           0 Total=      3926721
 MaxDsk=          -1 SrtSym=           F ITran=            4
 DoSDTr:  NPSUse= 16
 JobTyp=0 Pass  1:  I=   1 to   9.
 (rs|ai) integrals will be sorted in core.
 Complete sort for first half transformation.
 First half transformation complete.
 Complete sort for second half transformation.
 Second half transformation complete.
 SymMOI:  orbitals are not symmetric.
 Spin components of T(2) and E(2):
     alpha-alpha T2 =       0.9484485167D-02 E2=     -0.3552398032D-01
     alpha-beta  T2 =       0.4799866946D-01 E2=     -0.1708433112D+00
     beta-beta   T2 =       0.9484485167D-02 E2=     -0.3552398032D-01
 ANorm=    0.1032941257D+01
 E2 =    -0.2418912719D+00 EUMP2 =    -0.27522941143481D+04
 Leave Link  804 at Thu Apr  2 10:54:11 2020, MaxMem=  2147483648 cpu:               5.4 elap:               0.3
 (Enter /usr/local/g16/g16/l913.exe)
 CIDS:  MDV=  2147483648.
 Frozen-core window:  NFC=   9 NFV=   0.
 IFCWin=0 IBDFC=1 NFBD=     0     0 NFCmp=     0     0 NFFFC=     0     0
 Using DD3R+UMP44R for 1st iteration.
 Using DD4RQ for 2nd and later iterations.
 Keep R2 and R3 ints in memory in canonical form, NReq=15862484.
 FoFCou: FMM=F IPFlag=           0 FMFlag=           0 FMFlg1=           0
         NFxFlg=           0 DoJE=F BraDBF=F KetDBF=F FulRan=T
         wScrn=  0.000000 ICntrl=       600 IOpCl=  0 I1Cent=           0 NGrid=           0
         NMat0=    1 NMatS0=   1770 NMatT0=    0 NMatD0=    1 NMtDS0=    0 NMtDT0=    0
 Symmetry not used in FoFCou.
 Two-electron integral symmetry not used.
 CIDS: In Core Option IDoMem=           1.
 MP4(SDTQ)
 =========
 Produce multiple copies of IABC intergrals
 DD1Dir will call FoFMem   1 times, MxPair=        90
 NAB=    45 NAA=     0 NBB=     0.
 MP4(D)= -0.36913093D-02
 MP4(S)= -0.10734540D-02
 MP4(R+Q)=  0.42077927D-02
 T4(AAA)= -0.32336090D-03
 T4(AAB)= -0.35259699D-02
 Time for triples=        3.40 seconds.
 MP4(T)=   -0.76986616D-02
 E3=       -0.99406389D-02        EUMP3=      -0.27523040550D+04
 E4(DQ)=    0.51648341D-03        UMP4(DQ)=   -0.27523035385D+04
 E4(SDQ)=  -0.55697064D-03        UMP4(SDQ)=  -0.27523046120D+04
 E4(SDTQ)= -0.82556322D-02        UMP4(SDTQ)= -0.27523123106D+04
 VARIATIONAL ENERGIES WITH THE FIRST-ORDER WAVEFUNCTION:
 E(VAR1)=  -0.27522882489D+04     E(CISD,4)=  -0.27522926209D+04
 Largest amplitude= 2.15D-02
 Discarding MO integrals.
 Leave Link  913 at Thu Apr  2 10:54:12 2020, MaxMem=  2147483648 cpu:              13.8 elap:               0.9
 (Enter /usr/local/g16/g16/l122.exe)
 CPIOFr:  IOpCl= 0 IRwI=-1 IRwCP=  731 ICalc=  4 LCPTot=       59414 Len1MO=      159453 IndFrg=      856679
 Restoring MOs from calculation   1 to rwf.
 CPIOFr:  IOpCl= 0 IRwI=-2 IRwCP=  731 ICalc=  0 LCPTot=       59414 Len1MO=      159453 IndFrg=      218867
 Counterpoise corrected energy =   -2903.685792315969
                   BSSE energy =       0.000219610422
              sum of fragments =   -2903.685529387995
           complexation energy =      -0.30 kcal/mole (raw)
           complexation energy =      -0.16 kcal/mole (corrected)
 Leave Link  122 at Thu Apr  2 10:54:12 2020, MaxMem=  2147483648 cpu:               0.0 elap:               0.0
 (Enter /usr/local/g16/g16/l108.exe)
 Scan completed.
 
 Summary of the potential surface scan, energies are +2752 a.u.:
   N      R1          SCF          MP2          MP3         MP4DQ       MP4SDQ       MP4SDTQ  
 ----  ---------  -----------  -----------  -----------  -----------  -----------  -----------
    1     3.0000     -0.05222     -0.29411     -0.30405     -0.30354     -0.30461     -0.31231
    2     3.1000     -0.05222     -0.29411     -0.30405     -0.30354     -0.30461     -0.31231
    3     3.2000     -0.05222     -0.29411     -0.30405     -0.30354     -0.30461     -0.31231
    4     3.3000     -0.05222     -0.29411     -0.30405     -0.30354     -0.30461     -0.31231
    5     3.4000     -0.05222     -0.29411     -0.30405     -0.30354     -0.30461     -0.31231
    6     3.5000     -0.05222     -0.29411     -0.30405     -0.30354     -0.30461     -0.31231
    7     3.6000     -0.05222     -0.29411     -0.30405     -0.30354     -0.30461     -0.31231
    8     3.7000     -0.05222     -0.29411     -0.30405     -0.30354     -0.30461     -0.31231
    9     3.8000     -0.05222     -0.29411     -0.30405     -0.30354     -0.30461     -0.31231
   10     3.9000     -0.05222     -0.29411     -0.30405     -0.30354     -0.30461     -0.31231
   11     4.0000     -0.05222     -0.29411     -0.30405     -0.30354     -0.30461     -0.31231
   12     4.1000     -0.05222     -0.29411     -0.30405     -0.30354     -0.30461     -0.31231
   13     4.2000     -0.05222     -0.29411     -0.30405     -0.30354     -0.30461     -0.31231
   14     4.3000     -0.05222     -0.29411     -0.30405     -0.30354     -0.30461     -0.31231
   15     4.4000     -0.05222     -0.29411     -0.30405     -0.30354     -0.30461     -0.31231
   16     4.5000     -0.05222     -0.29411     -0.30405     -0.30354     -0.30461     -0.31231
   17     4.6000     -0.05222     -0.29411     -0.30405     -0.30354     -0.30461     -0.31231
   18     4.7000     -0.05222     -0.29411     -0.30405     -0.30354     -0.30461     -0.31231
   19     4.8000     -0.05222     -0.29411     -0.30405     -0.30354     -0.30461     -0.31231
   20     4.9000     -0.05222     -0.29411     -0.30405     -0.30354     -0.30461     -0.31231
   21     5.0000     -0.05222     -0.29411     -0.30405     -0.30354     -0.30461     -0.31231
 ----  ---------  -----------  -----------  -----------  -----------  -----------  -----------
  
 Leave Link  108 at Thu Apr  2 10:54:12 2020, MaxMem=  2147483648 cpu:               0.1 elap:               0.0
 (Enter /usr/local/g16/g16/l9999.exe)
 1\1\GINC-ARTHUR-MS-7B09\Scan\RMP4SDTQ-FC\Aug-CC-pVTZ\H2Kr1O2\MATHEUS\0
 2-Apr-2020\1\\#p mp4/aug-cc-PVTz int=ultrafine counterpoise=2 Scan\\PT
 CC\\0,1\O,0,0.,0.,0.725\O,0,0.,0.,-0.725\H,0,-0.9047631646,-0.15953415
 71,1.0235104166\H,0,0.,0.9187205947,-1.0235104166\Kr,0,0.,R1,0.\\R1=3.
 ,s,20,0.1\\Version=ES64L-G16RevA.03\HF=-2752.0522231,-2752.0522231,-27
 52.0522231,-2752.0522231,-2752.0522231,-2752.0522231,-2752.0522231,-27
 52.0522231,-2752.0522231,-2752.0522231,-2752.0522231,-2752.0522231,-27
 52.0522231,-2752.0522231,-2752.0522231,-2752.0522231,-2752.0522231,-27
 52.0522231,-2752.0522231,-2752.0522231,-2752.0522231\MP2=-2752.2941143
 ,-2752.2941143,-2752.2941143,-2752.2941143,-2752.2941143,-2752.2941143
 ,-2752.2941143,-2752.2941143,-2752.2941143,-2752.2941143,-2752.2941143
 ,-2752.2941143,-2752.2941143,-2752.2941143,-2752.2941143,-2752.2941143
 ,-2752.2941143,-2752.2941143,-2752.2941143,-2752.2941143,-2752.2941143
 \MP3=-2752.304055,-2752.304055,-2752.304055,-2752.304055,-2752.304055,
 -2752.304055,-2752.304055,-2752.304055,-2752.304055,-2752.304055,-2752
 .304055,-2752.304055,-2752.304055,-2752.304055,-2752.304055,-2752.3040
 55,-2752.304055,-2752.304055,-2752.304055,-2752.304055,-2752.304055\MP
 4D=-2752.3077463,-2752.3077463,-2752.3077463,-2752.3077463,-2752.30774
 63,-2752.3077463,-2752.3077463,-2752.3077463,-2752.3077463,-2752.30774
 63,-2752.3077463,-2752.3077463,-2752.3077463,-2752.3077463,-2752.30774
 63,-2752.3077463,-2752.3077463,-2752.3077463,-2752.3077463,-2752.30774
 63,-2752.3077463\MP4DQ=-2752.3035385,-2752.3035385,-2752.3035385,-2752
 .3035385,-2752.3035385,-2752.3035385,-2752.3035385,-2752.3035385,-2752
 .3035385,-2752.3035385,-2752.3035385,-2752.3035385,-2752.3035385,-2752
 .3035385,-2752.3035385,-2752.3035385,-2752.3035385,-2752.3035385,-2752
 .3035385,-2752.3035385,-2752.3035385\MP4SDQ=-2752.304612,-2752.304612,
 -2752.304612,-2752.304612,-2752.304612,-2752.304612,-2752.304612,-2752
 .304612,-2752.304612,-2752.304612,-2752.304612,-2752.304612,-2752.3046
 12,-2752.304612,-2752.304612,-2752.304612,-2752.304612,-2752.304612,-2
 752.304612,-2752.304612,-2752.304612\MP4SDTQ=-2752.3123106,-2752.31231
 06,-2752.3123106,-2752.3123106,-2752.3123106,-2752.3123106,-2752.31231
 06,-2752.3123106,-2752.3123106,-2752.3123106,-2752.3123106,-2752.31231
 06,-2752.3123106,-2752.3123106,-2752.3123106,-2752.3123106,-2752.31231
 06,-2752.3123106,-2752.3123106,-2752.3123106,-2752.3123106\RMSD=9.887e
 -10,1.149e-10,2.883e-11,7.215e-12,1.870e-12,4.695e-13,1.354e-13,3.300e
 -14,1.475e-14,1.247e-14,1.170e-14,4.388e-15,7.485e-15,4.892e-15,5.252e
 -15,5.411e-15,7.121e-15,6.015e-15,5.385e-15,1.336e-14,5.519e-15\PG=C01
  [X(H2Kr1O2)]\\@


 SUCCESS IS COUNTED SWEETEST
 BY THOSE WHO NE'ER SUCCEED.
 TO COMPREHEND NECTAR
 REQUIRES SOREST NEED.
           EMILY DICKINSON
 Job cpu time:       0 days 20 hours 48 minutes 27.9 seconds.
 Elapsed time:       0 days  1 hours 19 minutes 15.1 seconds.
 File lengths (MBytes):  RWF=   4069 Int=      0 D2E=      0 Chk=     12 Scr=      1
 Normal termination of Gaussian 16 at Thu Apr  2 10:54:12 2020.
