 Entering Gaussian System, Link 0=g16
 Input=Inputs/H2O2-Kr_25.com
 Output=Logs/H2O2-Kr_25.log
 Initial command:
 /usr/local/g16/g16/l1.exe "/mnt/driveB/scratch/matheus/Gau-112635.inp" -scrdir="/mnt/driveB/scratch/matheus/"
 Entering Link 1 = /usr/local/g16/g16/l1.exe PID=    112637.
  
 Copyright (c) 1988,1990,1992,1993,1995,1998,2003,2009,2016,
            Gaussian, Inc.  All Rights Reserved.
  
 This is part of the Gaussian(R) 16 program.  It is based on
 the Gaussian(R) 09 system (copyright 2009, Gaussian, Inc.),
 the Gaussian(R) 03 system (copyright 2003, Gaussian, Inc.),
 the Gaussian(R) 98 system (copyright 1998, Gaussian, Inc.),
 the Gaussian(R) 94 system (copyright 1995, Gaussian, Inc.),
 the Gaussian 92(TM) system (copyright 1992, Gaussian, Inc.),
 the Gaussian 90(TM) system (copyright 1990, Gaussian, Inc.),
 the Gaussian 88(TM) system (copyright 1988, Gaussian, Inc.),
 the Gaussian 86(TM) system (copyright 1986, Carnegie Mellon
 University), and the Gaussian 82(TM) system (copyright 1983,
 Carnegie Mellon University). Gaussian is a federally registered
 trademark of Gaussian, Inc.
  
 This software contains proprietary and confidential information,
 including trade secrets, belonging to Gaussian, Inc.
  
 This software is provided under written license and may be
 used, copied, transmitted, or stored only in accord with that
 written license.
  
 The following legend is applicable only to US Government
 contracts under FAR:
  
                    RESTRICTED RIGHTS LEGEND
  
 Use, reproduction and disclosure by the US Government is
 subject to restrictions as set forth in subparagraphs (a)
 and (c) of the Commercial Computer Software - Restricted
 Rights clause in FAR 52.227-19.
  
 Gaussian, Inc.
 340 Quinnipiac St., Bldg. 40, Wallingford CT 06492
  
  
 ---------------------------------------------------------------
 Warning -- This program may not be used in any manner that
 competes with the business of Gaussian, Inc. or will provide
 assistance to any competitor of Gaussian, Inc.  The licensee
 of this program is prohibited from giving any competitor of
 Gaussian, Inc. access to this program.  By using this program,
 the user acknowledges that Gaussian, Inc. is engaged in the
 business of creating and licensing software in the field of
 computational chemistry and represents and warrants to the
 licensee that it is not a competitor of Gaussian, Inc. and that
 it will not use this program in any manner prohibited above.
 ---------------------------------------------------------------
  

 Cite this work as:
 Gaussian 16, Revision A.03,
 M. J. Frisch, G. W. Trucks, H. B. Schlegel, G. E. Scuseria, 
 M. A. Robb, J. R. Cheeseman, G. Scalmani, V. Barone, 
 G. A. Petersson, H. Nakatsuji, X. Li, M. Caricato, A. V. Marenich, 
 J. Bloino, B. G. Janesko, R. Gomperts, B. Mennucci, H. P. Hratchian, 
 J. V. Ortiz, A. F. Izmaylov, J. L. Sonnenberg, D. Williams-Young, 
 F. Ding, F. Lipparini, F. Egidi, J. Goings, B. Peng, A. Petrone, 
 T. Henderson, D. Ranasinghe, V. G. Zakrzewski, J. Gao, N. Rega, 
 G. Zheng, W. Liang, M. Hada, M. Ehara, K. Toyota, R. Fukuda, 
 J. Hasegawa, M. Ishida, T. Nakajima, Y. Honda, O. Kitao, H. Nakai, 
 T. Vreven, K. Throssell, J. A. Montgomery, Jr., J. E. Peralta, 
 F. Ogliaro, M. J. Bearpark, J. J. Heyd, E. N. Brothers, K. N. Kudin, 
 V. N. Staroverov, T. A. Keith, R. Kobayashi, J. Normand, 
 K. Raghavachari, A. P. Rendell, J. C. Burant, S. S. Iyengar, 
 J. Tomasi, M. Cossi, J. M. Millam, M. Klene, C. Adamo, R. Cammi, 
 J. W. Ochterski, R. L. Martin, K. Morokuma, O. Farkas, 
 J. B. Foresman, and D. J. Fox, Gaussian, Inc., Wallingford CT, 2016.
 
 ******************************************
 Gaussian 16:  ES64L-G16RevA.03 25-Dec-2016
                 2-Apr-2020 
 ******************************************
 %mem=16GB
 %nproc=16
 Will use up to   16 processors via shared memory.
 ----------------------------------------------------
 #p mp4/aug-cc-PVTz int=ultrafine counterpoise=2 Scan
 ----------------------------------------------------
 1/38=1,60=1,62=2,172=1/1,8;
 2/12=2,17=6,18=5,29=3,40=1/2;
 1/38=1,53=2,62=2,63=1/22;
 3/5=16,6=1,7=10,11=9,25=1,30=1,75=-5/1,2,3;
 4//1;
 5/5=2,38=5/2;
 8/6=4,9=120000,10=1/1,4;
 9/5=5/13;
 6/7=2,8=2,9=2,10=2,18=1/1;
 1/53=2,62=2,63=1/22;
 3/5=7,6=11,7=10,11=9,25=1,30=1,75=-5,82=7/1,2,3;
 4//1;
 5/5=2,38=5/2;
 8/6=4,9=120000,10=1/1,4;
 9/5=5/13;
 6/7=2,8=2,9=2,10=2,18=1/1;
 1/53=2,62=2,63=1/22(-6);
 1/60=1,62=2/8(1);
 99/9=1/99;
 2/29=3/2;
 1/53=3,62=2,63=1/22;
 3/5=7,6=11,7=10,11=9,25=1,30=1,75=-5,82=7/1,2,3;
 4/5=5,16=3,69=1/1;
 5/5=2,38=5/2;
 8/6=4,9=120000,10=1/1,4;
 9/5=5/13;
 1/53=3,62=2,63=1/22(-5);
 1/60=1,62=2/8(-8);
 99/9=1/99;
 Leave Link    1 at Thu Apr  2 08:13:58 2020, MaxMem=  2147483648 cpu:               0.3 elap:               0.0
 (Enter /usr/local/g16/g16/l101.exe)
 ----
 PTCC
 ----
 Symbolic Z-matrix:
 Charge =  0 Multiplicity = 1 in supermolecule
 Charge =  0 Multiplicity = 1 in fragment      1.
 Charge =  0 Multiplicity = 1 in fragment      2.
 O(Fragment=1)         0.        0.        0.725 
 O(Fragment=1)         0.        0.       -0.725 
 H(Fragment=1)        -0.86331  -0.31422   1.02351 
 H(Fragment=1)         0.        0.91872  -1.02351 
 Kr(Fragment=2)        0.       R1        0. 
       Variables:
  R1                    3.     Scan 20    0.1    
 
 ITRead=  0  0  0  0  0
 MicOpt= -1 -1 -1 -1 -1
 NAtoms=      5 NQM=        5 NQMF=       0 NMMI=      0 NMMIF=      0
                NMic=       0 NMicF=      0.
                    Isotopes and Nuclear Properties:
 (Nuclear quadrupole moments (NQMom) in fm**2, nuclear magnetic moments (NMagM)
  in nuclear magnetons)

  Atom         1           2           3           4           5
 IAtWgt=          16          16           1           1          84
 AtmWgt=  15.9949146  15.9949146   1.0078250   1.0078250  83.9115064
 NucSpn=           0           0           1           1           0
 AtZEff=  -0.0000000  -0.0000000  -0.0000000  -0.0000000  -0.0000000
 NQMom=    0.0000000   0.0000000   0.0000000   0.0000000   0.0000000
 NMagM=    0.0000000   0.0000000   2.7928460   2.7928460   0.0000000
 AtZNuc=   8.0000000   8.0000000   1.0000000   1.0000000  36.0000000
 Leave Link  101 at Thu Apr  2 08:13:58 2020, MaxMem=  2147483648 cpu:               1.5 elap:               0.1
 (Enter /usr/local/g16/g16/l108.exe)
 Scan the potential surface.
 Variable   Value     No. Steps Step-Size
 -------- ----------- --------- ---------
     1       3.000000      20      0.1000
 A total of     21 points will be computed.
 Leave Link  108 at Thu Apr  2 08:13:58 2020, MaxMem=  2147483648 cpu:               0.0 elap:               0.0
 (Enter /usr/local/g16/g16/l202.exe)
 ---------------------------------------------------------------------------------------------------
                            Z-MATRIX (ANGSTROMS AND DEGREES)
   CD    Cent   Atom    N1       Length/X        N2       Alpha/Y        N3        Beta/Z          J
 ---------------------------------------------------------------------------------------------------
      1      1  O        0   0.000000          0.000000          0.725000
      2      2  O        0   0.000000          0.000000         -0.725000
      3      3  H        0  -0.863315         -0.314221          1.023510
      4      4  H        0   0.000000          0.918721         -1.023510
      5      5  Kr       0   0.000000          3.000000          0.000000
 ---------------------------------------------------------------------------------------------------
                         Z-Matrix orientation:                         
 ---------------------------------------------------------------------
 Center     Atomic      Atomic             Coordinates (Angstroms)
 Number     Number       Type             X           Y           Z
 ---------------------------------------------------------------------
      1          8           0        0.000000    0.000000    0.725000
      2          8           0        0.000000    0.000000   -0.725000
      3          1           0       -0.863315   -0.314221    1.023510
      4          1           0        0.000000    0.918721   -1.023510
      5         36           0        0.000000    3.000000    0.000000
 ---------------------------------------------------------------------
                    Distance matrix (angstroms):
                    1          2          3          4          5
     1  O    0.000000
     2  O    1.450000   0.000000
     3  H    0.966000   1.975180   0.000000
     4  H    1.975180   0.966000   2.540817   0.000000
     5  Kr   3.086361   3.086361   3.574486   2.319331   0.000000
 Stoichiometry    H2KrO2
 Framework group  C1[X(H2KrO2)]
 Deg. of freedom     9
 Full point group                 C1      NOp   1
 Largest Abelian subgroup         C1      NOp   1
 Largest concise Abelian subgroup C1      NOp   1
                         Standard orientation:                         
 ---------------------------------------------------------------------
 Center     Atomic      Atomic             Coordinates (Angstroms)
 Number     Number       Type             X           Y           Z
 ---------------------------------------------------------------------
      1          8           0       -2.019994   -0.690833   -0.114713
      2          8           0       -2.000697    0.753572    0.011068
      3          1           0       -2.354569   -1.058170    0.713707
      4          1           0       -1.078253    1.037233    0.053361
      5         36           0        0.988843   -0.013360    0.001725
 ---------------------------------------------------------------------
 Rotational constants (GHZ):          25.7302438           2.3305908           2.1494082
 Leave Link  202 at Thu Apr  2 08:13:58 2020, MaxMem=  2147483648 cpu:               0.0 elap:               0.0
 (Enter /usr/local/g16/g16/l122.exe)
 Counterpoise: doing full-system calculation.
 Leave Link  122 at Thu Apr  2 08:13:58 2020, MaxMem=  2147483648 cpu:               0.0 elap:               0.0
 (Enter /usr/local/g16/g16/l301.exe)
 Standard basis: Aug-CC-pVTZ (5D, 7F)
 Ernie: Thresh=  0.10000D-02 Tol=  0.10000D-05 Strict=F.
 Ernie:  38 primitive shells out of 205 were deleted.
 There are   229 symmetry adapted cartesian basis functions of A   symmetry.
 There are   197 symmetry adapted basis functions of A   symmetry.
   197 basis functions,   415 primitive gaussians,   229 cartesian basis functions
    27 alpha electrons       27 beta electrons
       nuclear repulsion energy       148.9188384514 Hartrees.
 IExCor=    0 DFT=F Ex=HF Corr=None ExCW=0 ScaHFX=  1.000000
 ScaDFX=  1.000000  1.000000  1.000000  1.000000 ScalE2=  1.000000  1.000000
 IRadAn=      5 IRanWt=     -1 IRanGd=            0 ICorTp=0 IEmpDi=  4
 NAtoms=    5 NActive=    5 NUniq=    5 SFac= 1.00D+00 NAtFMM=   60 NAOKFM=F Big=F
 Integral buffers will be    131072 words long.
 Raffenetti 1 integral format.
 Two-electron integral symmetry is turned on.
 Leave Link  301 at Thu Apr  2 08:13:58 2020, MaxMem=  2147483648 cpu:               0.4 elap:               0.0
 (Enter /usr/local/g16/g16/l302.exe)
 NPDir=0 NMtPBC=     1 NCelOv=     1 NCel=       1 NClECP=     1 NCelD=      1
         NCelK=      1 NCelE2=     1 NClLst=     1 CellRange=     0.0.
 One-electron integrals computed using PRISM.
 One-electron integral symmetry used in STVInt
 NBasis=   197 RedAO= T EigKep=  2.10D-04  NBF=   197
 NBsUse=   197 1.00D-06 EigRej= -1.00D+00 NBFU=   197
 Leave Link  302 at Thu Apr  2 08:13:58 2020, MaxMem=  2147483648 cpu:               1.7 elap:               0.1
 (Enter /usr/local/g16/g16/l303.exe)
 DipDrv:  MaxL=1.
 Leave Link  303 at Thu Apr  2 08:13:58 2020, MaxMem=  2147483648 cpu:               0.4 elap:               0.0
 (Enter /usr/local/g16/g16/l401.exe)
 ExpMin= 2.53D-02 ExpMax= 1.17D+07 ExpMxC= 1.33D+04 IAcc=3 IRadAn=         5 AccDes= 0.00D+00
 Harris functional with IExCor=  205 and IRadAn=       5 diagonalized for initial guess.
 HarFok:  IExCor=  205 AccDes= 0.00D+00 IRadAn=         5 IDoV= 1 UseB2=F ITyADJ=14
 ICtDFT=  3500011 ScaDFX=  1.000000  1.000000  1.000000  1.000000
 FoFCou: FMM=F IPFlag=           0 FMFlag=      100000 FMFlg1=           0
         NFxFlg=           0 DoJE=T BraDBF=F KetDBF=T FulRan=T
         wScrn=  0.000000 ICntrl=       500 IOpCl=  0 I1Cent=   200000004 NGrid=           0
         NMat0=    1 NMatS0=      1 NMatT0=    0 NMatD0=    1 NMtDS0=    0 NMtDT0=    0
 Petite list used in FoFCou.
 Harris En= -2901.99362362251    
 JPrj=0 DoOrth=F DoCkMO=F.
 Leave Link  401 at Thu Apr  2 08:13:58 2020, MaxMem=  2147483648 cpu:               3.2 elap:               0.2
 (Enter /usr/local/g16/g16/l502.exe)
 Keep R1 ints in memory in canonical form, NReq=203133858.
 FoFCou: FMM=F IPFlag=           0 FMFlag=           0 FMFlg1=           0
         NFxFlg=           0 DoJE=F BraDBF=F KetDBF=F FulRan=T
         wScrn=  0.000000 ICntrl=       600 IOpCl=  0 I1Cent=           0 NGrid=           0
         NMat0=    1 NMatS0=  19503 NMatT0=    0 NMatD0=    1 NMtDS0=    0 NMtDT0=    0
 Symmetry not used in FoFCou.
 Two-electron integral symmetry not used.
 Closed shell SCF:
 Using DIIS extrapolation, IDIIS=  1040.
 NGot=  2147483648 LenX=  1957179903 LenY=  1957127021
 Requested convergence on RMS density matrix=1.00D-08 within 128 cycles.
 Requested convergence on MAX density matrix=1.00D-06.
 Requested convergence on             energy=1.00D-06.
 No special actions if energy rises.

 Cycle   1  Pass 1  IDiag  1:
 E= -2902.76924300941    
 DIIS: error= 5.02D-02 at cycle   1 NSaved=   1.
 NSaved= 1 IEnMin= 1 EnMin= -2902.76924300941     IErMin= 1 ErrMin= 5.02D-02
 ErrMax= 5.02D-02  0.00D+00 EMaxC= 1.00D-01 BMatC= 6.56D-01 BMatP= 6.56D-01
 IDIUse=3 WtCom= 4.98D-01 WtEn= 5.02D-01
 Coeff-Com:  0.100D+01
 Coeff-En:   0.100D+01
 Coeff:      0.100D+01
 Gap=     0.709 Goal=   None    Shift=    0.000
 GapD=    0.709 DampG=2.000 DampE=0.500 DampFc=1.0000 IDamp=-1.
 RMSDP=1.99D-03 MaxDP=1.30D-01              OVMax= 5.61D-02

 Cycle   2  Pass 1  IDiag  1:
 E= -2902.86541728823     Delta-E=       -0.096174278812 Rises=F Damp=F
 DIIS: error= 7.10D-03 at cycle   2 NSaved=   2.
 NSaved= 2 IEnMin= 2 EnMin= -2902.86541728823     IErMin= 2 ErrMin= 7.10D-03
 ErrMax= 7.10D-03  0.00D+00 EMaxC= 1.00D-01 BMatC= 3.53D-02 BMatP= 6.56D-01
 IDIUse=3 WtCom= 9.29D-01 WtEn= 7.10D-02
 Coeff-Com:  0.137D+00 0.863D+00
 Coeff-En:   0.000D+00 0.100D+01
 Coeff:      0.127D+00 0.873D+00
 Gap=     0.543 Goal=   None    Shift=    0.000
 RMSDP=7.45D-04 MaxDP=3.64D-02 DE=-9.62D-02 OVMax= 2.57D-02

 Cycle   3  Pass 1  IDiag  1:
 E= -2902.87838723449     Delta-E=       -0.012969946269 Rises=F Damp=F
 DIIS: error= 2.26D-03 at cycle   3 NSaved=   3.
 NSaved= 3 IEnMin= 3 EnMin= -2902.87838723449     IErMin= 3 ErrMin= 2.26D-03
 ErrMax= 2.26D-03  0.00D+00 EMaxC= 1.00D-01 BMatC= 2.64D-03 BMatP= 3.53D-02
 IDIUse=3 WtCom= 9.77D-01 WtEn= 2.26D-02
 Coeff-Com: -0.646D-02 0.193D+00 0.814D+00
 Coeff-En:   0.000D+00 0.000D+00 0.100D+01
 Coeff:     -0.631D-02 0.188D+00 0.818D+00
 Gap=     0.522 Goal=   None    Shift=    0.000
 RMSDP=1.32D-04 MaxDP=4.87D-03 DE=-1.30D-02 OVMax= 8.19D-03

 Cycle   4  Pass 1  IDiag  1:
 E= -2902.87972292211     Delta-E=       -0.001335687612 Rises=F Damp=F
 DIIS: error= 3.36D-04 at cycle   4 NSaved=   4.
 NSaved= 4 IEnMin= 4 EnMin= -2902.87972292211     IErMin= 4 ErrMin= 3.36D-04
 ErrMax= 3.36D-04  0.00D+00 EMaxC= 1.00D-01 BMatC= 4.47D-05 BMatP= 2.64D-03
 IDIUse=3 WtCom= 9.97D-01 WtEn= 3.36D-03
 Coeff-Com: -0.399D-02 0.125D-01 0.136D+00 0.855D+00
 Coeff-En:   0.000D+00 0.000D+00 0.000D+00 0.100D+01
 Coeff:     -0.398D-02 0.125D-01 0.136D+00 0.856D+00
 Gap=     0.520 Goal=   None    Shift=    0.000
 RMSDP=2.13D-05 MaxDP=6.48D-04 DE=-1.34D-03 OVMax= 1.69D-03

 Cycle   5  Pass 1  IDiag  1:
 E= -2902.87976209678     Delta-E=       -0.000039174673 Rises=F Damp=F
 DIIS: error= 1.03D-04 at cycle   5 NSaved=   5.
 NSaved= 5 IEnMin= 5 EnMin= -2902.87976209678     IErMin= 5 ErrMin= 1.03D-04
 ErrMax= 1.03D-04  0.00D+00 EMaxC= 1.00D-01 BMatC= 3.64D-06 BMatP= 4.47D-05
 IDIUse=3 WtCom= 9.99D-01 WtEn= 1.03D-03
 Coeff-Com:  0.858D-03-0.165D-01-0.698D-01 0.452D-02 0.108D+01
 Coeff-En:   0.000D+00 0.000D+00 0.000D+00 0.000D+00 0.100D+01
 Coeff:      0.857D-03-0.165D-01-0.697D-01 0.451D-02 0.108D+01
 Gap=     0.519 Goal=   None    Shift=    0.000
 RMSDP=1.09D-05 MaxDP=3.06D-04 DE=-3.92D-05 OVMax= 8.03D-04

 Cycle   6  Pass 1  IDiag  1:
 E= -2902.87976785952     Delta-E=       -0.000005762742 Rises=F Damp=F
 DIIS: error= 2.92D-05 at cycle   6 NSaved=   6.
 NSaved= 6 IEnMin= 6 EnMin= -2902.87976785952     IErMin= 6 ErrMin= 2.92D-05
 ErrMax= 2.92D-05  0.00D+00 EMaxC= 1.00D-01 BMatC= 2.90D-07 BMatP= 3.64D-06
 IDIUse=1 WtCom= 1.00D+00 WtEn= 0.00D+00
 Coeff-Com:  0.217D-03-0.486D-03-0.868D-02-0.607D-01 0.108D-01 0.106D+01
 Coeff:      0.217D-03-0.486D-03-0.868D-02-0.607D-01 0.108D-01 0.106D+01
 Gap=     0.520 Goal=   None    Shift=    0.000
 RMSDP=3.65D-06 MaxDP=1.19D-04 DE=-5.76D-06 OVMax= 3.66D-04

 Cycle   7  Pass 1  IDiag  1:
 E= -2902.87976848143     Delta-E=       -0.000000621907 Rises=F Damp=F
 DIIS: error= 1.72D-05 at cycle   7 NSaved=   7.
 NSaved= 7 IEnMin= 7 EnMin= -2902.87976848143     IErMin= 7 ErrMin= 1.72D-05
 ErrMax= 1.72D-05  0.00D+00 EMaxC= 1.00D-01 BMatC= 5.45D-08 BMatP= 2.90D-07
 IDIUse=1 WtCom= 1.00D+00 WtEn= 0.00D+00
 Coeff-Com: -0.392D-04 0.159D-02 0.534D-02-0.131D-01-0.107D+00 0.190D+00
 Coeff-Com:  0.924D+00
 Coeff:     -0.392D-04 0.159D-02 0.534D-02-0.131D-01-0.107D+00 0.190D+00
 Coeff:      0.924D+00
 Gap=     0.520 Goal=   None    Shift=    0.000
 RMSDP=1.49D-06 MaxDP=5.04D-05 DE=-6.22D-07 OVMax= 1.82D-04

 Cycle   8  Pass 1  IDiag  1:
 E= -2902.87976859463     Delta-E=       -0.000000113205 Rises=F Damp=F
 DIIS: error= 6.49D-06 at cycle   8 NSaved=   8.
 NSaved= 8 IEnMin= 8 EnMin= -2902.87976859463     IErMin= 8 ErrMin= 6.49D-06
 ErrMax= 6.49D-06  0.00D+00 EMaxC= 1.00D-01 BMatC= 1.30D-08 BMatP= 5.45D-08
 IDIUse=1 WtCom= 1.00D+00 WtEn= 0.00D+00
 Coeff-Com: -0.386D-04 0.316D-03 0.237D-02 0.876D-02-0.219D-01-0.166D+00
 Coeff-Com:  0.209D+00 0.968D+00
 Coeff:     -0.386D-04 0.316D-03 0.237D-02 0.876D-02-0.219D-01-0.166D+00
 Coeff:      0.209D+00 0.968D+00
 Gap=     0.520 Goal=   None    Shift=    0.000
 RMSDP=8.85D-07 MaxDP=2.28D-05 DE=-1.13D-07 OVMax= 1.19D-04

 Cycle   9  Pass 1  IDiag  1:
 E= -2902.87976862806     Delta-E=       -0.000000033428 Rises=F Damp=F
 DIIS: error= 2.94D-06 at cycle   9 NSaved=   9.
 NSaved= 9 IEnMin= 9 EnMin= -2902.87976862806     IErMin= 9 ErrMin= 2.94D-06
 ErrMax= 2.94D-06  0.00D+00 EMaxC= 1.00D-01 BMatC= 2.13D-09 BMatP= 1.30D-08
 IDIUse=1 WtCom= 1.00D+00 WtEn= 0.00D+00
 Coeff-Com:  0.172D-04-0.391D-03-0.175D-02-0.765D-03 0.261D-01 0.321D-01
 Coeff-Com: -0.248D+00-0.408D+00 0.160D+01
 Coeff:      0.172D-04-0.391D-03-0.175D-02-0.765D-03 0.261D-01 0.321D-01
 Coeff:     -0.248D+00-0.408D+00 0.160D+01
 Gap=     0.520 Goal=   None    Shift=    0.000
 RMSDP=6.14D-07 MaxDP=1.47D-05 DE=-3.34D-08 OVMax= 9.85D-05

 Cycle  10  Pass 1  IDiag  1:
 E= -2902.87976863892     Delta-E=       -0.000000010858 Rises=F Damp=F
 DIIS: error= 9.22D-07 at cycle  10 NSaved=  10.
 NSaved=10 IEnMin=10 EnMin= -2902.87976863892     IErMin=10 ErrMin= 9.22D-07
 ErrMax= 9.22D-07  0.00D+00 EMaxC= 1.00D-01 BMatC= 2.28D-10 BMatP= 2.13D-09
 IDIUse=1 WtCom= 1.00D+00 WtEn= 0.00D+00
 Coeff-Com:  0.925D-06 0.997D-04 0.231D-03-0.137D-02-0.552D-02 0.145D-01
 Coeff-Com:  0.624D-01 0.357D-02-0.622D+00 0.155D+01
 Coeff:      0.925D-06 0.997D-04 0.231D-03-0.137D-02-0.552D-02 0.145D-01
 Coeff:      0.624D-01 0.357D-02-0.622D+00 0.155D+01
 Gap=     0.520 Goal=   None    Shift=    0.000
 RMSDP=2.35D-07 MaxDP=5.59D-06 DE=-1.09D-08 OVMax= 3.78D-05

 Cycle  11  Pass 1  IDiag  1:
 E= -2902.87976864008     Delta-E=       -0.000000001161 Rises=F Damp=F
 DIIS: error= 1.70D-07 at cycle  11 NSaved=  11.
 NSaved=11 IEnMin=11 EnMin= -2902.87976864008     IErMin=11 ErrMin= 1.70D-07
 ErrMax= 1.70D-07  0.00D+00 EMaxC= 1.00D-01 BMatC= 9.88D-12 BMatP= 2.28D-10
 IDIUse=1 WtCom= 1.00D+00 WtEn= 0.00D+00
 Coeff-Com: -0.161D-05-0.129D-04 0.386D-04 0.755D-03-0.122D-03-0.936D-02
 Coeff-Com: -0.489D-03 0.376D-01 0.703D-01-0.462D+00 0.136D+01
 Coeff:     -0.161D-05-0.129D-04 0.386D-04 0.755D-03-0.122D-03-0.936D-02
 Coeff:     -0.489D-03 0.376D-01 0.703D-01-0.462D+00 0.136D+01
 Gap=     0.520 Goal=   None    Shift=    0.000
 RMSDP=3.51D-08 MaxDP=6.98D-07 DE=-1.16D-09 OVMax= 4.58D-06

 Cycle  12  Pass 1  IDiag  1:
 E= -2902.87976864012     Delta-E=       -0.000000000035 Rises=F Damp=F
 DIIS: error= 3.90D-08 at cycle  12 NSaved=  12.
 NSaved=12 IEnMin=12 EnMin= -2902.87976864012     IErMin=12 ErrMin= 3.90D-08
 ErrMax= 3.90D-08  0.00D+00 EMaxC= 1.00D-01 BMatC= 4.40D-13 BMatP= 9.88D-12
 IDIUse=1 WtCom= 1.00D+00 WtEn= 0.00D+00
 Coeff-Com:  0.136D-08-0.613D-05-0.181D-04 0.886D-04 0.374D-03-0.112D-02
 Coeff-Com: -0.334D-02 0.167D-02 0.280D-01-0.709D-01-0.561D-01 0.110D+01
 Coeff:      0.136D-08-0.613D-05-0.181D-04 0.886D-04 0.374D-03-0.112D-02
 Coeff:     -0.334D-02 0.167D-02 0.280D-01-0.709D-01-0.561D-01 0.110D+01
 Gap=     0.520 Goal=   None    Shift=    0.000
 RMSDP=5.60D-09 MaxDP=1.20D-07 DE=-3.46D-11 OVMax= 5.98D-07

 SCF Done:  E(RHF) =  -2902.87976864     A.U. after   12 cycles
            NFock= 12  Conv=0.56D-08     -V/T= 2.0001
 KE= 2.902630028269D+03 PE=-7.238308341443D+03 EE= 1.283879706083D+03
 Leave Link  502 at Thu Apr  2 08:14:02 2020, MaxMem=  2147483648 cpu:              26.7 elap:               3.4
 (Enter /usr/local/g16/g16/l801.exe)
 Windowed orbitals will be sorted by symmetry type.
 ExpMin= 2.53D-02 ExpMax= 1.17D+07 ExpMxC= 1.33D+04 IAcc=3 IRadAn=         5 AccDes= 0.00D+00
 HarFok:  IExCor=  205 AccDes= 0.00D+00 IRadAn=         5 IDoV=-2 UseB2=F ITyADJ=14
 ICtDFT= 12500011 ScaDFX=  1.000000  1.000000  1.000000  1.000000
 Largest valence mixing into a core orbital is  1.16D-04
 Largest core mixing into a valence orbital is  3.82D-05
 Range of M.O.s used for correlation:    12   197
 NBasis=   197 NAE=    27 NBE=    27 NFC=    11 NFV=     0
 NROrb=    186 NOA=    16 NOB=    16 NVA=   170 NVB=   170

 **** Warning!!: The largest alpha MO coefficient is  0.14390413D+02

 Leave Link  801 at Thu Apr  2 08:14:02 2020, MaxMem=  2147483648 cpu:               0.6 elap:               0.0
 (Enter /usr/local/g16/g16/l804.exe)
 Closed-shell transformation, MDV=  2147483648 ITran=4 ISComp=1.
 Unit  1 TFree=       1248993 TCopy=        808885.
 Semi-Direct transformation.
 ModeAB=           2 MOrb=            16 LenV=    2146361902
 LASXX=     48528660 LTotXX=    48528660 LenRXX=    48528660
 LTotAB=    49298776 MaxLAS=    78372960 LenRXY=    78372960
 NonZer=    97057320 LenScr=   146313216 LnRSAI=           0
 LnScr1=           0 LExtra=           0 Total=    273214836
 MaxDsk=          -1 SrtSym=           F ITran=            4
 DoSDTr:  NPSUse= 16
 JobTyp=0 Pass  1:  I=   1 to  16.
 (rs|ai) integrals will be sorted in core.
 Complete sort for first half transformation.
 First half transformation complete.
 Begin second half transformation for I=  10.
 Begin second half transformation for I=  10.
 Complete sort for second half transformation.
 Second half transformation complete.
 SymMOI:  orbitals are not symmetric.
 Spin components of T(2) and E(2):
     alpha-alpha T2 =       0.2600499722D-01 E2=     -0.1000311394D+00
     alpha-beta  T2 =       0.1420679190D+00 E2=     -0.5568853048D+00
     beta-beta   T2 =       0.2600499722D-01 E2=     -0.1000311394D+00
 ANorm=    0.1092738721D+01
 E2 =    -0.7569475836D+00 EUMP2 =    -0.29036367162237D+04
 Leave Link  804 at Thu Apr  2 08:14:12 2020, MaxMem=  2147483648 cpu:             173.5 elap:              10.9
 (Enter /usr/local/g16/g16/l913.exe)
 CIDS:  MDV=  2147483648.
 Frozen-core window:  NFC=  11 NFV=   0.
 IFCWin=0 IBDFC=1 NFBD=     0     0 NFCmp=     0     0 NFFFC=     0     0
 Using DD3R+UMP44R for 1st iteration.
 Using DD4RQ for 2nd and later iterations.
 Keep R2 and R3 ints in memory in canonical form, NReq=393335343.
 FoFCou: FMM=F IPFlag=           0 FMFlag=           0 FMFlg1=           0
         NFxFlg=           0 DoJE=F BraDBF=F KetDBF=F FulRan=T
         wScrn=  0.000000 ICntrl=       600 IOpCl=  0 I1Cent=           0 NGrid=           0
         NMat0=    1 NMatS0=  19503 NMatT0=    0 NMatD0=    1 NMtDS0=    0 NMtDT0=    0
 Symmetry not used in FoFCou.
 Two-electron integral symmetry not used.
 CIDS: In Core Option IDoMem=           1.
 MP4(SDTQ)
 =========
 Produce multiple copies of IABC intergrals
 DD1Dir will call FoFMem   1 times, MxPair=       272
 NAB=   136 NAA=     0 NBB=     0.
 MP4(D)= -0.14981617D-01
 MP4(S)= -0.64918146D-02
 MP4(R+Q)=  0.15431751D-01
 T4(AAA)= -0.10472201D-02
 T4(AAB)= -0.14211357D-01
 Time for triples=     1776.63 seconds.
 MP4(T)=   -0.30517155D-01
 E3=       -0.11198655D-01        EUMP3=      -0.29036479149D+04
 E4(DQ)=    0.45013413D-03        UMP4(DQ)=   -0.29036474647D+04
 E4(SDQ)=  -0.60416805D-02        UMP4(SDQ)=  -0.29036539566D+04
 E4(SDTQ)= -0.36558835D-01        UMP4(SDTQ)= -0.29036844737D+04
 VARIATIONAL ENERGIES WITH THE FIRST-ORDER WAVEFUNCTION:
 E(VAR1)=  -0.29035230652D+04     E(CISD,4)=  -0.29035224815D+04
 Largest amplitude= 2.11D-02
 Discarding MO integrals.
 Leave Link  913 at Thu Apr  2 08:16:11 2020, MaxMem=  2147483648 cpu:            1897.7 elap:             118.8
 (Enter /usr/local/g16/g16/l601.exe)
 Copying SCF densities to generalized density rwf, IOpCl= 0 IROHF=0.

 **********************************************************************

            Population analysis using the SCF density.

 **********************************************************************

 Orbital symmetries:
       Occupied  (A) (A) (A) (A) (A) (A) (A) (A) (A) (A) (A) (A)
                 (A) (A) (A) (A) (A) (A) (A) (A) (A) (A) (A) (A)
                 (A) (A) (A)
       Virtual   (A) (A) (A) (A) (A) (A) (A) (A) (A) (A) (A) (A)
                 (A) (A) (A) (A) (A) (A) (A) (A) (A) (A) (A) (A)
                 (A) (A) (A) (A) (A) (A) (A) (A) (A) (A) (A) (A)
                 (A) (A) (A) (A) (A) (A) (A) (A) (A) (A) (A) (A)
                 (A) (A) (A) (A) (A) (A) (A) (A) (A) (A) (A) (A)
                 (A) (A) (A) (A) (A) (A) (A) (A) (A) (A) (A) (A)
                 (A) (A) (A) (A) (A) (A) (A) (A) (A) (A) (A) (A)
                 (A) (A) (A) (A) (A) (A) (A) (A) (A) (A) (A) (A)
                 (A) (A) (A) (A) (A) (A) (A) (A) (A) (A) (A) (A)
                 (A) (A) (A) (A) (A) (A) (A) (A) (A) (A) (A) (A)
                 (A) (A) (A) (A) (A) (A) (A) (A) (A) (A) (A) (A)
                 (A) (A) (A) (A) (A) (A) (A) (A) (A) (A) (A) (A)
                 (A) (A) (A) (A) (A) (A) (A) (A) (A) (A) (A) (A)
                 (A) (A) (A) (A) (A) (A) (A) (A) (A) (A) (A) (A)
                 (A) (A)
 The electronic state is 1-A.
 Alpha  occ. eigenvalues -- -520.17610 -69.91365 -63.02024 -63.02021 -63.02018
 Alpha  occ. eigenvalues --  -20.62994 -20.62692 -10.86030  -8.34253  -8.34229
 Alpha  occ. eigenvalues --   -8.34212  -3.83634  -3.83629  -3.83606  -3.83581
 Alpha  occ. eigenvalues --   -3.83577  -1.46685  -1.21780  -1.16626  -0.72982
 Alpha  occ. eigenvalues --   -0.69952  -0.60755  -0.54218  -0.53561  -0.53038
 Alpha  occ. eigenvalues --   -0.50379  -0.48493
 Alpha virt. eigenvalues --    0.03475   0.04517   0.08894   0.10059   0.11622
 Alpha virt. eigenvalues --    0.12525   0.14682   0.15720   0.17576   0.18786
 Alpha virt. eigenvalues --    0.19069   0.21291   0.23195   0.25714   0.26743
 Alpha virt. eigenvalues --    0.27993   0.28393   0.31051   0.33954   0.35807
 Alpha virt. eigenvalues --    0.36198   0.37478   0.38273   0.41926   0.42231
 Alpha virt. eigenvalues --    0.44234   0.46569   0.51620   0.56837   0.59685
 Alpha virt. eigenvalues --    0.60453   0.64224   0.66793   0.70400   0.73626
 Alpha virt. eigenvalues --    0.75557   0.77738   0.78547   0.81147   0.81865
 Alpha virt. eigenvalues --    0.82716   0.83240   0.85246   0.87155   0.89226
 Alpha virt. eigenvalues --    0.90731   0.91229   0.93407   0.94595   0.96929
 Alpha virt. eigenvalues --    0.99706   0.99913   1.00780   1.02828   1.05484
 Alpha virt. eigenvalues --    1.07186   1.09754   1.13528   1.14105   1.16759
 Alpha virt. eigenvalues --    1.17325   1.22848   1.24596   1.25525   1.30603
 Alpha virt. eigenvalues --    1.32229   1.37276   1.43256   1.47298   1.50938
 Alpha virt. eigenvalues --    1.54872   1.58805   1.59952   1.62168   1.69120
 Alpha virt. eigenvalues --    1.77813   1.85456   1.95869   2.03521   2.08627
 Alpha virt. eigenvalues --    2.13634   2.17329   2.23917   2.29390   2.30083
 Alpha virt. eigenvalues --    2.33450   2.36218   2.37436   2.40983   2.42774
 Alpha virt. eigenvalues --    2.44787   2.46524   2.51727   2.53153   2.54023
 Alpha virt. eigenvalues --    2.54974   2.58388   2.61874   2.62375   2.66593
 Alpha virt. eigenvalues --    2.69427   2.69797   2.72050   2.73960   2.76479
 Alpha virt. eigenvalues --    2.77299   2.79691   2.80789   2.86180   2.89505
 Alpha virt. eigenvalues --    2.92659   2.95551   2.97773   3.04141   3.07132
 Alpha virt. eigenvalues --    3.09722   3.24854   3.30935   3.33603   3.81891
 Alpha virt. eigenvalues --    3.88389   4.09174   4.19537   4.27509   4.29551
 Alpha virt. eigenvalues --    4.37427   4.39125   4.44319   4.48654   4.50418
 Alpha virt. eigenvalues --    4.59398   4.74315   4.80345   4.84471   4.95488
 Alpha virt. eigenvalues --    5.13706   5.21309   5.27746   5.40718   5.42132
 Alpha virt. eigenvalues --    5.49518   5.80576   6.17189   6.39929   6.45205
 Alpha virt. eigenvalues --    6.48600   6.64171   6.67364   6.79103   6.90009
 Alpha virt. eigenvalues --    6.91533   7.16214   7.17405   7.20426   7.21758
 Alpha virt. eigenvalues --    7.24651   7.25842   7.27960   7.34386   7.38997
 Alpha virt. eigenvalues --    7.46735   7.54805   7.62380   7.82854   8.08216
 Alpha virt. eigenvalues --    8.21461   8.49398   8.53045  14.61764  15.32480
          Condensed to atoms (all electrons):
               1          2          3          4          5
     1  O    8.119981  -0.074763   0.251195  -0.012066  -0.025291
     2  O   -0.074763   8.145662  -0.000160   0.247152  -0.011930
     3  H    0.251195  -0.000160   0.482240   0.001947  -0.000018
     4  H   -0.012066   0.247152   0.001947   0.479137  -0.003806
     5  Kr  -0.025291  -0.011930  -0.000018  -0.003806  36.028459
 Mulliken charges:
               1
     1  O   -0.259056
     2  O   -0.305962
     3  H    0.264796
     4  H    0.287636
     5  Kr   0.012586
 Sum of Mulliken charges =  -0.00000
 Mulliken charges with hydrogens summed into heavy atoms:
               1
     1  O    0.005740
     2  O   -0.018326
     5  Kr   0.012586
         Mulliken charges condensed to fragments:
      1     -0.012586
      2      0.012586
 Electronic spatial extent (au):  <R**2>=            486.9884
 Charge=             -0.0000 electrons
 Dipole moment (field-independent basis, Debye):
    X=              1.2098    Y=             -0.3897    Z=              1.5050  Tot=              1.9699
 Quadrupole moment (field-independent basis, Debye-Ang):
   XX=            -32.4270   YY=            -27.9248   ZZ=            -29.0645
   XY=              3.0606   XZ=             -3.8051   YZ=             -1.7724
 Traceless Quadrupole moment (field-independent basis, Debye-Ang):
   XX=             -2.6216   YY=              1.8806   ZZ=              0.7410
   XY=              3.0606   XZ=             -3.8051   YZ=             -1.7724
 Octapole moment (field-independent basis, Debye-Ang**2):
  XXX=             24.4052  YYY=             -1.0431  ZZZ=              1.2173  XYY=              4.2629
  XXY=            -10.7571  XXZ=              9.0715  XZZ=              4.8478  YZZ=             -1.6917
  YYZ=              2.2019  XYZ=              4.3893
 Hexadecapole moment (field-independent basis, Debye-Ang**3):
 XXXX=           -425.3863 YYYY=            -62.3726 ZZZZ=            -28.9996 XXXY=             27.3935
 XXXZ=            -23.0289 YYYX=              5.3111 YYYZ=             -2.5260 ZZZX=             -3.3752
 ZZZY=             -1.8004 XXYY=            -77.6960 XXZZ=            -70.6163 YYZZ=            -15.7525
 XXYZ=            -10.8669 YYXZ=             -5.2068 ZZXY=              3.6781
 N-N= 1.489188384514D+02 E-N=-7.238308343824D+03  KE= 2.902630028269D+03
 Leave Link  601 at Thu Apr  2 08:16:12 2020, MaxMem=  2147483648 cpu:               0.5 elap:               0.0
 (Enter /usr/local/g16/g16/l122.exe)
 CPIOFr:  IOpCl= 0 IRwI=-1 IRwCP=  731 ICalc= -1 LCPTot=       59414 Len1MO=      159453 IndFrg=       59414
 CPIOFr:  IOpCl= 0 IRwI=-1 IRwCP=  731 ICalc=  0 LCPTot=       59414 Len1MO=      159453 IndFrg=      218867
 Counterpoise: doing calculation for fragment   1 using the basis set of the full-system, NewBq=T
 Leave Link  122 at Thu Apr  2 08:16:12 2020, MaxMem=  2147483648 cpu:               0.0 elap:               0.0
 (Enter /usr/local/g16/g16/l301.exe)
 Basis read from rwf:  (5D, 7F)
 No pseudopotential information found on rwf file.
 There are   229 symmetry adapted cartesian basis functions of A   symmetry.
 There are   197 symmetry adapted basis functions of A   symmetry.
   197 basis functions,   415 primitive gaussians,   229 cartesian basis functions
     9 alpha electrons        9 beta electrons
       nuclear repulsion energy        36.6165121308 Hartrees.
 IExCor=    0 DFT=F Ex=HF Corr=None ExCW=0 ScaHFX=  1.000000
 ScaDFX=  1.000000  1.000000  1.000000  1.000000 ScalE2=  1.000000  1.000000
 IRadAn=      5 IRanWt=     -1 IRanGd=            0 ICorTp=0 IEmpDi=  4
 NAtoms=    5 NActive=    5 NUniq=    5 SFac= 1.00D+00 NAtFMM=   60 NAOKFM=F Big=F
 Integral buffers will be    131072 words long.
 Raffenetti 1 integral format.
 Two-electron integral symmetry is turned on.
 No density basis found on file   718.
 Leave Link  301 at Thu Apr  2 08:16:12 2020, MaxMem=  2147483648 cpu:               0.4 elap:               0.0
 (Enter /usr/local/g16/g16/l302.exe)
 NPDir=0 NMtPBC=     1 NCelOv=     1 NCel=       1 NClECP=     1 NCelD=      1
         NCelK=      1 NCelE2=     1 NClLst=     1 CellRange=     0.0.
 One-electron integrals computed using PRISM.
 One-electron integral symmetry used in STVInt
 NBasis=   197 RedAO= T EigKep=  2.10D-04  NBF=   197
 NBsUse=   197 1.00D-06 EigRej= -1.00D+00 NBFU=   197
 Leave Link  302 at Thu Apr  2 08:16:12 2020, MaxMem=  2147483648 cpu:               1.8 elap:               0.1
 (Enter /usr/local/g16/g16/l303.exe)
 DipDrv:  MaxL=1.
 Leave Link  303 at Thu Apr  2 08:16:12 2020, MaxMem=  2147483648 cpu:               0.4 elap:               0.0
 (Enter /usr/local/g16/g16/l401.exe)
 ExpMin= 2.53D-02 ExpMax= 1.17D+07 ExpMxC= 1.33D+04 IAcc=3 IRadAn=         5 AccDes= 0.00D+00
 Harris functional with IExCor=  205 and IRadAn=       5 diagonalized for initial guess.
 HarFok:  IExCor=  205 AccDes= 0.00D+00 IRadAn=         5 IDoV= 1 UseB2=F ITyADJ=14
 ICtDFT=  3500011 ScaDFX=  1.000000  1.000000  1.000000  1.000000
 FoFCou: FMM=F IPFlag=           0 FMFlag=      100000 FMFlg1=           0
         NFxFlg=           0 DoJE=T BraDBF=F KetDBF=T FulRan=T
         wScrn=  0.000000 ICntrl=       500 IOpCl=  0 I1Cent=   200000004 NGrid=           0
         NMat0=    1 NMatS0=      1 NMatT0=    0 NMatD0=    1 NMtDS0=    0 NMtDT0=    0
 Petite list used in FoFCou.
 Harris En= -150.936021318151    
 JPrj=0 DoOrth=F DoCkMO=F.
 Leave Link  401 at Thu Apr  2 08:16:12 2020, MaxMem=  2147483648 cpu:               3.5 elap:               0.2
 (Enter /usr/local/g16/g16/l502.exe)
 Keep R1 ints in memory in canonical form, NReq=203133858.
 FoFCou: FMM=F IPFlag=           0 FMFlag=           0 FMFlg1=           0
         NFxFlg=           0 DoJE=F BraDBF=F KetDBF=F FulRan=T
         wScrn=  0.000000 ICntrl=       600 IOpCl=  0 I1Cent=           0 NGrid=           0
         NMat0=    1 NMatS0=  19503 NMatT0=    0 NMatD0=    1 NMtDS0=    0 NMtDT0=    0
 Symmetry not used in FoFCou.
 Two-electron integral symmetry not used.
 Closed shell SCF:
 Using DIIS extrapolation, IDIIS=  1040.
 NGot=  2147483648 LenX=  1957179903 LenY=  1957127021
 Requested convergence on RMS density matrix=1.00D-08 within 128 cycles.
 Requested convergence on MAX density matrix=1.00D-06.
 Requested convergence on             energy=1.00D-06.
 No special actions if energy rises.

 Cycle   1  Pass 1  IDiag  1:
 E= -150.774214104675    
 DIIS: error= 2.26D-02 at cycle   1 NSaved=   1.
 NSaved= 1 IEnMin= 1 EnMin= -150.774214104675     IErMin= 1 ErrMin= 2.26D-02
 ErrMax= 2.26D-02  0.00D+00 EMaxC= 1.00D-01 BMatC= 2.27D-01 BMatP= 2.27D-01
 IDIUse=3 WtCom= 7.74D-01 WtEn= 2.26D-01
 Coeff-Com:  0.100D+01
 Coeff-En:   0.100D+01
 Coeff:      0.100D+01
 Gap=     0.713 Goal=   None    Shift=    0.000
 GapD=    0.713 DampG=2.000 DampE=0.500 DampFc=1.0000 IDamp=-1.
 RMSDP=9.28D-04 MaxDP=2.90D-02              OVMax= 6.40D-02

 Cycle   2  Pass 1  IDiag  1:
 E= -150.826694966871     Delta-E=       -0.052480862196 Rises=F Damp=F
 DIIS: error= 7.81D-03 at cycle   2 NSaved=   2.
 NSaved= 2 IEnMin= 2 EnMin= -150.826694966871     IErMin= 2 ErrMin= 7.81D-03
 ErrMax= 7.81D-03  0.00D+00 EMaxC= 1.00D-01 BMatC= 1.56D-02 BMatP= 2.27D-01
 IDIUse=3 WtCom= 9.22D-01 WtEn= 7.81D-02
 Coeff-Com:  0.103D+00 0.897D+00
 Coeff-En:   0.000D+00 0.100D+01
 Coeff:      0.948D-01 0.905D+00
 Gap=     0.545 Goal=   None    Shift=    0.000
 RMSDP=4.82D-04 MaxDP=2.53D-02 DE=-5.25D-02 OVMax= 2.82D-02

 Cycle   3  Pass 1  IDiag  1:
 E= -150.834502111463     Delta-E=       -0.007807144592 Rises=F Damp=F
 DIIS: error= 2.51D-03 at cycle   3 NSaved=   3.
 NSaved= 3 IEnMin= 3 EnMin= -150.834502111463     IErMin= 3 ErrMin= 2.51D-03
 ErrMax= 2.51D-03  0.00D+00 EMaxC= 1.00D-01 BMatC= 2.25D-03 BMatP= 1.56D-02
 IDIUse=3 WtCom= 9.75D-01 WtEn= 2.51D-02
 Coeff-Com: -0.208D-01 0.254D+00 0.767D+00
 Coeff-En:   0.000D+00 0.000D+00 0.100D+01
 Coeff:     -0.203D-01 0.248D+00 0.772D+00
 Gap=     0.516 Goal=   None    Shift=    0.000
 RMSDP=1.08D-04 MaxDP=3.91D-03 DE=-7.81D-03 OVMax= 8.95D-03

 Cycle   4  Pass 1  IDiag  1:
 E= -150.835903178925     Delta-E=       -0.001401067462 Rises=F Damp=F
 DIIS: error= 2.11D-04 at cycle   4 NSaved=   4.
 NSaved= 4 IEnMin= 4 EnMin= -150.835903178925     IErMin= 4 ErrMin= 2.11D-04
 ErrMax= 2.11D-04  0.00D+00 EMaxC= 1.00D-01 BMatC= 1.45D-05 BMatP= 2.25D-03
 IDIUse=3 WtCom= 9.98D-01 WtEn= 2.11D-03
 Coeff-Com: -0.174D-02-0.105D-01 0.755D-02 0.100D+01
 Coeff-En:   0.000D+00 0.000D+00 0.000D+00 0.100D+01
 Coeff:     -0.173D-02-0.104D-01 0.754D-02 0.100D+01
 Gap=     0.517 Goal=   None    Shift=    0.000
 RMSDP=1.59D-05 MaxDP=3.84D-04 DE=-1.40D-03 OVMax= 1.31D-03

 Cycle   5  Pass 1  IDiag  1:
 E= -150.835924302501     Delta-E=       -0.000021123576 Rises=F Damp=F
 DIIS: error= 8.14D-05 at cycle   5 NSaved=   5.
 NSaved= 5 IEnMin= 5 EnMin= -150.835924302501     IErMin= 5 ErrMin= 8.14D-05
 ErrMax= 8.14D-05  0.00D+00 EMaxC= 1.00D-01 BMatC= 1.50D-06 BMatP= 1.45D-05
 IDIUse=1 WtCom= 1.00D+00 WtEn= 0.00D+00
 Coeff-Com:  0.167D-02-0.167D-01-0.573D-01-0.169D+00 0.124D+01
 Coeff:      0.167D-02-0.167D-01-0.573D-01-0.169D+00 0.124D+01
 Gap=     0.517 Goal=   None    Shift=    0.000
 RMSDP=9.06D-06 MaxDP=2.51D-04 DE=-2.11D-05 OVMax= 8.40D-04

 Cycle   6  Pass 1  IDiag  1:
 E= -150.835928118716     Delta-E=       -0.000003816215 Rises=F Damp=F
 DIIS: error= 1.88D-05 at cycle   6 NSaved=   6.
 NSaved= 6 IEnMin= 6 EnMin= -150.835928118716     IErMin= 6 ErrMin= 1.88D-05
 ErrMax= 1.88D-05  0.00D+00 EMaxC= 1.00D-01 BMatC= 9.44D-08 BMatP= 1.50D-06
 IDIUse=1 WtCom= 1.00D+00 WtEn= 0.00D+00
 Coeff-Com: -0.495D-03 0.611D-02 0.215D-01 0.300D-01-0.506D+00 0.145D+01
 Coeff:     -0.495D-03 0.611D-02 0.215D-01 0.300D-01-0.506D+00 0.145D+01
 Gap=     0.517 Goal=   None    Shift=    0.000
 RMSDP=3.23D-06 MaxDP=8.38D-05 DE=-3.82D-06 OVMax= 4.03D-04

 Cycle   7  Pass 1  IDiag  1:
 E= -150.835928466410     Delta-E=       -0.000000347694 Rises=F Damp=F
 DIIS: error= 5.77D-06 at cycle   7 NSaved=   7.
 NSaved= 7 IEnMin= 7 EnMin= -150.835928466410     IErMin= 7 ErrMin= 5.77D-06
 ErrMax= 5.77D-06  0.00D+00 EMaxC= 1.00D-01 BMatC= 9.67D-09 BMatP= 9.44D-08
 IDIUse=1 WtCom= 1.00D+00 WtEn= 0.00D+00
 Coeff-Com:  0.132D-03-0.189D-02-0.727D-02-0.515D-02 0.172D+00-0.690D+00
 Coeff-Com:  0.153D+01
 Coeff:      0.132D-03-0.189D-02-0.727D-02-0.515D-02 0.172D+00-0.690D+00
 Coeff:      0.153D+01
 Gap=     0.517 Goal=   None    Shift=    0.000
 RMSDP=1.15D-06 MaxDP=2.62D-05 DE=-3.48D-07 OVMax= 1.76D-04

 Cycle   8  Pass 1  IDiag  1:
 E= -150.835928511273     Delta-E=       -0.000000044864 Rises=F Damp=F
 DIIS: error= 2.62D-06 at cycle   8 NSaved=   8.
 NSaved= 8 IEnMin= 8 EnMin= -150.835928511273     IErMin= 8 ErrMin= 2.62D-06
 ErrMax= 2.62D-06  0.00D+00 EMaxC= 1.00D-01 BMatC= 1.63D-09 BMatP= 9.67D-09
 IDIUse=1 WtCom= 1.00D+00 WtEn= 0.00D+00
 Coeff-Com:  0.260D-05 0.152D-03 0.104D-02-0.338D-02-0.179D-01 0.189D+00
 Coeff-Com: -0.968D+00 0.180D+01
 Coeff:      0.260D-05 0.152D-03 0.104D-02-0.338D-02-0.179D-01 0.189D+00
 Coeff:     -0.968D+00 0.180D+01
 Gap=     0.517 Goal=   None    Shift=    0.000
 RMSDP=6.23D-07 MaxDP=1.57D-05 DE=-4.49D-08 OVMax= 1.03D-04

 Cycle   9  Pass 1  IDiag  1:
 E= -150.835928520037     Delta-E=       -0.000000008763 Rises=F Damp=F
 DIIS: error= 5.71D-07 at cycle   9 NSaved=   9.
 NSaved= 9 IEnMin= 9 EnMin= -150.835928520037     IErMin= 9 ErrMin= 5.71D-07
 ErrMax= 5.71D-07  0.00D+00 EMaxC= 1.00D-01 BMatC= 1.13D-10 BMatP= 1.63D-09
 IDIUse=1 WtCom= 1.00D+00 WtEn= 0.00D+00
 Coeff-Com: -0.113D-04 0.166D-03 0.666D-03 0.889D-03-0.178D-01 0.706D-01
 Coeff-Com: -0.171D+00 0.921D-01 0.102D+01
 Coeff:     -0.113D-04 0.166D-03 0.666D-03 0.889D-03-0.178D-01 0.706D-01
 Coeff:     -0.171D+00 0.921D-01 0.102D+01
 Gap=     0.517 Goal=   None    Shift=    0.000
 RMSDP=9.67D-08 MaxDP=2.44D-06 DE=-8.76D-09 OVMax= 1.46D-05

 Cycle  10  Pass 1  IDiag  1:
 E= -150.835928520330     Delta-E=       -0.000000000293 Rises=F Damp=F
 DIIS: error= 2.71D-07 at cycle  10 NSaved=  10.
 NSaved=10 IEnMin=10 EnMin= -150.835928520330     IErMin=10 ErrMin= 2.71D-07
 ErrMax= 2.71D-07  0.00D+00 EMaxC= 1.00D-01 BMatC= 3.01D-11 BMatP= 1.13D-10
 IDIUse=1 WtCom= 1.00D+00 WtEn= 0.00D+00
 Coeff-Com: -0.498D-05 0.276D-04 0.152D-04 0.138D-02-0.362D-02-0.140D-01
 Coeff-Com:  0.152D+00-0.365D+00 0.337D+00 0.893D+00
 Coeff:     -0.498D-05 0.276D-04 0.152D-04 0.138D-02-0.362D-02-0.140D-01
 Coeff:      0.152D+00-0.365D+00 0.337D+00 0.893D+00
 Gap=     0.517 Goal=   None    Shift=    0.000
 RMSDP=3.81D-08 MaxDP=1.12D-06 DE=-2.93D-10 OVMax= 5.24D-06

 Cycle  11  Pass 1  IDiag  1:
 E= -150.835928520379     Delta-E=       -0.000000000049 Rises=F Damp=F
 DIIS: error= 5.73D-08 at cycle  11 NSaved=  11.
 NSaved=11 IEnMin=11 EnMin= -150.835928520379     IErMin=11 ErrMin= 5.73D-08
 ErrMax= 5.73D-08  0.00D+00 EMaxC= 1.00D-01 BMatC= 8.45D-13 BMatP= 3.01D-11
 IDIUse=1 WtCom= 1.00D+00 WtEn= 0.00D+00
 Coeff-Com:  0.133D-05-0.175D-04-0.605D-04-0.600D-04 0.147D-02-0.418D-02
 Coeff-Com:  0.918D-03 0.222D-01-0.108D+00-0.425D-01 0.113D+01
 Coeff:      0.133D-05-0.175D-04-0.605D-04-0.600D-04 0.147D-02-0.418D-02
 Coeff:      0.918D-03 0.222D-01-0.108D+00-0.425D-01 0.113D+01
 Gap=     0.517 Goal=   None    Shift=    0.000
 RMSDP=7.06D-09 MaxDP=1.51D-07 DE=-4.89D-11 OVMax= 7.42D-07

 SCF Done:  E(RHF) =  -150.835928520     A.U. after   11 cycles
            NFock= 11  Conv=0.71D-08     -V/T= 2.0021
 KE= 1.505186723681D+02 PE=-4.314521955751D+02 EE= 9.348108255579D+01
 Leave Link  502 at Thu Apr  2 08:16:16 2020, MaxMem=  2147483648 cpu:              26.5 elap:               3.4
 (Enter /usr/local/g16/g16/l801.exe)
 Windowed orbitals will be sorted by symmetry type.
 ExpMin= 2.53D-02 ExpMax= 1.17D+07 ExpMxC= 1.33D+04 IAcc=3 IRadAn=         5 AccDes= 0.00D+00
 HarFok:  IExCor=  205 AccDes= 0.00D+00 IRadAn=         5 IDoV=-2 UseB2=F ITyADJ=14
 ICtDFT= 12500011 ScaDFX=  1.000000  1.000000  1.000000  1.000000
 Largest valence mixing into a core orbital is  1.19D-04
 Largest core mixing into a valence orbital is  2.04D-05
 Range of M.O.s used for correlation:     3   197
 NBasis=   197 NAE=     9 NBE=     9 NFC=     2 NFV=     0
 NROrb=    195 NOA=     7 NOB=     7 NVA=   188 NVB=   188

 **** Warning!!: The largest alpha MO coefficient is  0.15471353D+02

 Leave Link  801 at Thu Apr  2 08:16:16 2020, MaxMem=  2147483648 cpu:               0.6 elap:               0.0
 (Enter /usr/local/g16/g16/l804.exe)
 Closed-shell transformation, MDV=  2147483648 ITran=4 ISComp=1.
 Semi-Direct transformation.
 ModeAB=           2 MOrb=             7 LenV=    2146281919
 LASXX=     25261509 LTotXX=    25261509 LenRXX=    25261509
 LTotAB=    25646992 MaxLAS=    35947275 LenRXY=    35947275
 NonZer=    50523018 LenScr=    76544000 LnRSAI=           0
 LnScr1=           0 LExtra=           0 Total=    137752784
 MaxDsk=          -1 SrtSym=           F ITran=            4
 DoSDTr:  NPSUse= 16
 JobTyp=0 Pass  1:  I=   1 to   7.
 (rs|ai) integrals will be sorted in core.
 Complete sort for first half transformation.
 First half transformation complete.
 Complete sort for second half transformation.
 Second half transformation complete.
 SymMOI:  orbitals are not symmetric.
 Spin components of T(2) and E(2):
     alpha-alpha T2 =       0.1599570371D-01 E2=     -0.6281410100D-01
     alpha-beta  T2 =       0.9321444684D-01 E2=     -0.3820216560D+00
     beta-beta   T2 =       0.1599570371D-01 E2=     -0.6281410100D-01
 ANorm=    0.1060757208D+01
 E2 =    -0.5076498580D+00 EUMP2 =    -0.15134357837836D+03
 Leave Link  804 at Thu Apr  2 08:16:23 2020, MaxMem=  2147483648 cpu:             121.4 elap:               7.6
 (Enter /usr/local/g16/g16/l913.exe)
 CIDS:  MDV=  2147483648.
 Frozen-core window:  NFC=   2 NFV=   0.
 IFCWin=0 IBDFC=1 NFBD=     0     0 NFCmp=     0     0 NFFFC=     0     0
 Using DD3R+UMP44R for 1st iteration.
 Using DD4RQ for 2nd and later iterations.
 Keep R2 and R3 ints in memory in canonical form, NReq=393332535.
 FoFCou: FMM=F IPFlag=           0 FMFlag=           0 FMFlg1=           0
         NFxFlg=           0 DoJE=F BraDBF=F KetDBF=F FulRan=T
         wScrn=  0.000000 ICntrl=       600 IOpCl=  0 I1Cent=           0 NGrid=           0
         NMat0=    1 NMatS0=  19503 NMatT0=    0 NMatD0=    1 NMtDS0=    0 NMtDT0=    0
 Symmetry not used in FoFCou.
 Two-electron integral symmetry not used.
 CIDS: In Core Option IDoMem=           1.
 MP4(SDTQ)
 =========
 Produce multiple copies of IABC intergrals
 DD1Dir will call FoFMem   1 times, MxPair=        56
 NAB=    28 NAA=     0 NBB=     0.
 MP4(D)= -0.11279348D-01
 MP4(S)= -0.52037873D-02
 MP4(R+Q)=  0.10758262D-01
 T4(AAA)= -0.65858413D-03
 T4(AAB)= -0.10259372D-01
 Time for triples=      370.25 seconds.
 MP4(T)=   -0.21835912D-01
 E3=       -0.20998895D-02        EUMP3=      -0.15134567827D+03
 E4(DQ)=   -0.52108510D-03        UMP4(DQ)=   -0.15134619935D+03
 E4(SDQ)=  -0.57248725D-02        UMP4(SDQ)=  -0.15135140314D+03
 E4(SDTQ)= -0.27560785D-01        UMP4(SDTQ)= -0.15137323905D+03
 VARIATIONAL ENERGIES WITH THE FIRST-ORDER WAVEFUNCTION:
 E(VAR1)=  -0.15128895651D+03     E(CISD,4)=  -0.15129860067D+03
 Largest amplitude= 2.12D-02
 Discarding MO integrals.
 Leave Link  913 at Thu Apr  2 08:16:50 2020, MaxMem=  2147483648 cpu:             427.8 elap:              26.8
 (Enter /usr/local/g16/g16/l601.exe)
 Copying SCF densities to generalized density rwf, IOpCl= 0 IROHF=0.

 **********************************************************************

            Population analysis using the SCF density.

 **********************************************************************

 Orbital symmetries:
       Occupied  (A) (A) (A) (A) (A) (A) (A) (A) (A)
       Virtual   (A) (A) (A) (A) (A) (A) (A) (A) (A) (A) (A) (A)
                 (A) (A) (A) (A) (A) (A) (A) (A) (A) (A) (A) (A)
                 (A) (A) (A) (A) (A) (A) (A) (A) (A) (A) (A) (A)
                 (A) (A) (A) (A) (A) (A) (A) (A) (A) (A) (A) (A)
                 (A) (A) (A) (A) (A) (A) (A) (A) (A) (A) (A) (A)
                 (A) (A) (A) (A) (A) (A) (A) (A) (A) (A) (A) (A)
                 (A) (A) (A) (A) (A) (A) (A) (A) (A) (A) (A) (A)
                 (A) (A) (A) (A) (A) (A) (A) (A) (A) (A) (A) (A)
                 (A) (A) (A) (A) (A) (A) (A) (A) (A) (A) (A) (A)
                 (A) (A) (A) (A) (A) (A) (A) (A) (A) (A) (A) (A)
                 (A) (A) (A) (A) (A) (A) (A) (A) (A) (A) (A) (A)
                 (A) (A) (A) (A) (A) (A) (A) (A) (A) (A) (A) (A)
                 (A) (A) (A) (A) (A) (A) (A) (A) (A) (A) (A) (A)
                 (A) (A) (A) (A) (A) (A) (A) (A) (A) (A) (A) (A)
                 (A) (A) (A) (A) (A) (A) (A) (A) (A) (A) (A) (A)
                 (A) (A) (A) (A) (A) (A) (A) (A)
 The electronic state is 1-A.
 Alpha  occ. eigenvalues --  -20.63263 -20.63234  -1.46867  -1.21944  -0.72982
 Alpha  occ. eigenvalues --   -0.69667  -0.60841  -0.50904  -0.48866
 Alpha virt. eigenvalues --    0.02877   0.03983   0.07368   0.08625   0.10352
 Alpha virt. eigenvalues --    0.11355   0.13213   0.14766   0.17520   0.17764
 Alpha virt. eigenvalues --    0.19203   0.21095   0.23557   0.26491   0.27096
 Alpha virt. eigenvalues --    0.27827   0.31737   0.32413   0.33591   0.34250
 Alpha virt. eigenvalues --    0.34833   0.37913   0.38293   0.41831   0.43007
 Alpha virt. eigenvalues --    0.43837   0.44912   0.48899   0.49569   0.51096
 Alpha virt. eigenvalues --    0.56087   0.58767   0.64164   0.66689   0.71339
 Alpha virt. eigenvalues --    0.76318   0.77385   0.79628   0.82355   0.82721
 Alpha virt. eigenvalues --    0.84586   0.85640   0.91505   0.93405   0.94270
 Alpha virt. eigenvalues --    0.95142   0.96298   0.99634   1.01302   1.01836
 Alpha virt. eigenvalues --    1.03400   1.05267   1.09270   1.12647   1.14737
 Alpha virt. eigenvalues --    1.16505   1.17538   1.20834   1.27012   1.28485
 Alpha virt. eigenvalues --    1.29607   1.30790   1.32930   1.33093   1.34273
 Alpha virt. eigenvalues --    1.35197   1.37504   1.39537   1.42277   1.44011
 Alpha virt. eigenvalues --    1.47467   1.54096   1.55953   1.58737   1.61712
 Alpha virt. eigenvalues --    1.65027   1.69846   1.71252   1.77581   1.87675
 Alpha virt. eigenvalues --    1.90329   1.97234   2.04463   2.09602   2.16475
 Alpha virt. eigenvalues --    2.20365   2.24812   2.31147   2.31666   2.37062
 Alpha virt. eigenvalues --    2.40836   2.45666   2.48580   2.51556   2.56449
 Alpha virt. eigenvalues --    2.60062   2.65158   2.69146   2.75297   2.79918
 Alpha virt. eigenvalues --    2.81651   2.87288   3.00525   3.04404   3.08420
 Alpha virt. eigenvalues --    3.23862   3.26084   3.26205   3.29546   3.34057
 Alpha virt. eigenvalues --    3.44871   3.57028   3.77826   3.78442   3.79590
 Alpha virt. eigenvalues --    3.81489   3.82513   3.82979   3.84058   3.86843
 Alpha virt. eigenvalues --    3.90227   3.93206   3.97840   4.00536   4.02168
 Alpha virt. eigenvalues --    4.10001   4.16996   4.24068   4.30136   4.36725
 Alpha virt. eigenvalues --    4.38582   4.41356   4.47260   4.49778   4.52396
 Alpha virt. eigenvalues --    4.61709   4.75297   4.83879   4.95079   5.13960
 Alpha virt. eigenvalues --    5.21308   5.27533   5.40670   5.42252   5.49611
 Alpha virt. eigenvalues --    5.80234   6.16961   6.39587   6.44950   6.48284
 Alpha virt. eigenvalues --    6.64064   6.67231   6.78950   6.89829   6.91353
 Alpha virt. eigenvalues --    7.15906   7.17183   7.20082   7.21303   7.24482
 Alpha virt. eigenvalues --    7.25564   7.27553   7.34099   7.38797   7.46512
 Alpha virt. eigenvalues --    7.54573   7.61800   7.82661   8.07978   8.21203
 Alpha virt. eigenvalues --    8.49126   8.52179  10.89221  14.61025  14.83376
 Alpha virt. eigenvalues --   14.87583  15.07952  15.34032  29.03158  29.03445
 Alpha virt. eigenvalues --   29.08086  29.13568  29.23114  49.10184 148.31485
 Alpha virt. eigenvalues --  148.38084 148.70428 752.49886
          Condensed to atoms (all electrons):
               1          2          3          4          5
     1  O    8.096833  -0.071775   0.249744  -0.012218  -0.000335
     2  O   -0.071775   8.128260  -0.001133   0.241523  -0.001351
     3  H    0.249744  -0.001133   0.484537   0.002758  -0.001009
     4  H   -0.012218   0.241523   0.002758   0.483264  -0.003353
     5  Kr  -0.000335  -0.001351  -0.001009  -0.003353   0.001402
 Mulliken charges:
               1
     1  O   -0.262251
     2  O   -0.295523
     3  H    0.265103
     4  H    0.288025
     5  Kr   0.004646
 Sum of Mulliken charges =  -0.00000
 Mulliken charges with hydrogens summed into heavy atoms:
               1
     1  O    0.002852
     2  O   -0.007498
     5  Kr   0.004646
         Mulliken charges condensed to fragments:
      1     -0.004646
      2      0.004646
 Electronic spatial extent (au):  <R**2>=            321.7224
 Charge=             -0.0000 electrons
 Dipole moment (field-independent basis, Debye):
    X=              1.0696    Y=             -0.1521    Z=              1.5827  Tot=              1.9162
 Quadrupole moment (field-independent basis, Debye-Ang):
   XX=            -14.5675   YY=            -10.2436   ZZ=            -11.4266
   XY=              3.2314   XZ=             -3.7438   YZ=             -1.7800
 Traceless Quadrupole moment (field-independent basis, Debye-Ang):
   XX=             -2.4883   YY=              1.8356   ZZ=              0.6526
   XY=              3.2314   XZ=             -3.7438   YZ=             -1.7800
 Octapole moment (field-independent basis, Debye-Ang**2):
  XXX=             75.8306  YYY=             -1.4492  ZZZ=              1.4455  XYY=             21.6354
  XXY=            -10.7029  XXZ=              9.1931  XZZ=             22.2790  YZZ=             -1.8256
  YYZ=              2.2763  XYZ=              4.3927
 Hexadecapole moment (field-independent basis, Debye-Ang**3):
 XXXX=           -301.2491 YYYY=            -44.0609 ZZZZ=            -10.7330 XXXY=             26.9918
 XXXZ=            -22.7843 YYYX=              4.9713 YYYZ=             -2.5421 ZZZX=             -3.1785
 ZZZY=             -1.8160 XXYY=            -54.0374 XXZZ=            -47.1462 YYZZ=             -9.6485
 XXYZ=            -10.8813 YYXZ=             -5.1325 ZZXY=              3.5303
 N-N= 3.661651213084D+01 E-N=-4.314521937648D+02  KE= 1.505186723681D+02
 Leave Link  601 at Thu Apr  2 08:16:51 2020, MaxMem=  2147483648 cpu:               0.5 elap:               0.0
 (Enter /usr/local/g16/g16/l122.exe)
 CPIOFr:  IOpCl= 0 IRwI=-1 IRwCP=  731 ICalc=  1 LCPTot=       59414 Len1MO=      159453 IndFrg=      378320
 Counterpoise: doing calculation for fragment   2 using the basis set of the full-system, NewBq=T
 Leave Link  122 at Thu Apr  2 08:16:51 2020, MaxMem=  2147483648 cpu:               0.0 elap:               0.0
 (Enter /usr/local/g16/g16/l301.exe)
 Basis read from rwf:  (5D, 7F)
 No pseudopotential information found on rwf file.
 There are   229 symmetry adapted cartesian basis functions of A   symmetry.
 There are   197 symmetry adapted basis functions of A   symmetry.
   197 basis functions,   415 primitive gaussians,   229 cartesian basis functions
    18 alpha electrons       18 beta electrons
       nuclear repulsion energy         0.0000000000 Hartrees.
 IExCor=    0 DFT=F Ex=HF Corr=None ExCW=0 ScaHFX=  1.000000
 ScaDFX=  1.000000  1.000000  1.000000  1.000000 ScalE2=  1.000000  1.000000
 IRadAn=      5 IRanWt=     -1 IRanGd=            0 ICorTp=0 IEmpDi=  4
 NAtoms=    5 NActive=    5 NUniq=    5 SFac= 1.00D+00 NAtFMM=   60 NAOKFM=F Big=F
 Integral buffers will be    131072 words long.
 Raffenetti 1 integral format.
 Two-electron integral symmetry is turned on.
 No density basis found on file   718.
 Leave Link  301 at Thu Apr  2 08:16:51 2020, MaxMem=  2147483648 cpu:               0.4 elap:               0.0
 (Enter /usr/local/g16/g16/l302.exe)
 NPDir=0 NMtPBC=     1 NCelOv=     1 NCel=       1 NClECP=     1 NCelD=      1
         NCelK=      1 NCelE2=     1 NClLst=     1 CellRange=     0.0.
 One-electron integrals computed using PRISM.
 One-electron integral symmetry used in STVInt
 NBasis=   197 RedAO= T EigKep=  2.10D-04  NBF=   197
 NBsUse=   197 1.00D-06 EigRej= -1.00D+00 NBFU=   197
 Leave Link  302 at Thu Apr  2 08:16:51 2020, MaxMem=  2147483648 cpu:               1.7 elap:               0.1
 (Enter /usr/local/g16/g16/l303.exe)
 DipDrv:  MaxL=1.
 Leave Link  303 at Thu Apr  2 08:16:51 2020, MaxMem=  2147483648 cpu:               0.4 elap:               0.0
 (Enter /usr/local/g16/g16/l401.exe)
 ExpMin= 2.53D-02 ExpMax= 1.17D+07 ExpMxC= 1.33D+04 IAcc=3 IRadAn=         5 AccDes= 0.00D+00
 Harris functional with IExCor=  205 and IRadAn=       5 diagonalized for initial guess.
 HarFok:  IExCor=  205 AccDes= 0.00D+00 IRadAn=         5 IDoV= 1 UseB2=F ITyADJ=14
 ICtDFT=  3500011 ScaDFX=  1.000000  1.000000  1.000000  1.000000
 FoFCou: FMM=F IPFlag=           0 FMFlag=      100000 FMFlg1=           0
         NFxFlg=           0 DoJE=T BraDBF=F KetDBF=T FulRan=T
         wScrn=  0.000000 ICntrl=       500 IOpCl=  0 I1Cent=   200000004 NGrid=           0
         NMat0=    1 NMatS0=      1 NMatT0=    0 NMatD0=    1 NMtDS0=    0 NMtDT0=    0
 Petite list used in FoFCou.
 Harris En= -2751.06002013858    
 JPrj=0 DoOrth=F DoCkMO=F.
 Leave Link  401 at Thu Apr  2 08:16:51 2020, MaxMem=  2147483648 cpu:               2.7 elap:               0.2
 (Enter /usr/local/g16/g16/l502.exe)
 Keep R1 ints in memory in canonical form, NReq=203133858.
 FoFCou: FMM=F IPFlag=           0 FMFlag=           0 FMFlg1=           0
         NFxFlg=           0 DoJE=F BraDBF=F KetDBF=F FulRan=T
         wScrn=  0.000000 ICntrl=       600 IOpCl=  0 I1Cent=           0 NGrid=           0
         NMat0=    1 NMatS0=  19503 NMatT0=    0 NMatD0=    1 NMtDS0=    0 NMtDT0=    0
 Symmetry not used in FoFCou.
 Two-electron integral symmetry not used.
 Closed shell SCF:
 Using DIIS extrapolation, IDIIS=  1040.
 NGot=  2147483648 LenX=  1957179903 LenY=  1957127021
 Requested convergence on RMS density matrix=1.00D-08 within 128 cycles.
 Requested convergence on MAX density matrix=1.00D-06.
 Requested convergence on             energy=1.00D-06.
 No special actions if energy rises.

 Cycle   1  Pass 1  IDiag  1:
 E= -2752.00364120691    
 DIIS: error= 5.02D-02 at cycle   1 NSaved=   1.
 NSaved= 1 IEnMin= 1 EnMin= -2752.00364120691     IErMin= 1 ErrMin= 5.02D-02
 ErrMax= 5.02D-02  0.00D+00 EMaxC= 1.00D-01 BMatC= 4.28D-01 BMatP= 4.28D-01
 IDIUse=3 WtCom= 4.98D-01 WtEn= 5.02D-01
 Coeff-Com:  0.100D+01
 Coeff-En:   0.100D+01
 Coeff:      0.100D+01
 Gap=     0.631 Goal=   None    Shift=    0.000
 GapD=    0.631 DampG=2.000 DampE=0.500 DampFc=1.0000 IDamp=-1.
 RMSDP=1.75D-03 MaxDP=1.29D-01              OVMax= 2.38D-02

 Cycle   2  Pass 1  IDiag  1:
 E= -2752.04698523330     Delta-E=       -0.043344026391 Rises=F Damp=F
 DIIS: error= 5.95D-03 at cycle   2 NSaved=   2.
 NSaved= 2 IEnMin= 2 EnMin= -2752.04698523330     IErMin= 2 ErrMin= 5.95D-03
 ErrMax= 5.95D-03  0.00D+00 EMaxC= 1.00D-01 BMatC= 1.96D-02 BMatP= 4.28D-01
 IDIUse=3 WtCom= 9.41D-01 WtEn= 5.95D-02
 Coeff-Com:  0.152D+00 0.848D+00
 Coeff-En:   0.000D+00 0.100D+01
 Coeff:      0.143D+00 0.857D+00
 Gap=     0.544 Goal=   None    Shift=    0.000
 RMSDP=5.66D-04 MaxDP=3.47D-02 DE=-4.33D-02 OVMax= 1.31D-02

 Cycle   3  Pass 1  IDiag  1:
 E= -2752.05205931083     Delta-E=       -0.005074077529 Rises=F Damp=F
 DIIS: error= 1.15D-03 at cycle   3 NSaved=   3.
 NSaved= 3 IEnMin= 3 EnMin= -2752.05205931083     IErMin= 3 ErrMin= 1.15D-03
 ErrMax= 1.15D-03  0.00D+00 EMaxC= 1.00D-01 BMatC= 6.91D-04 BMatP= 1.96D-02
 IDIUse=3 WtCom= 9.89D-01 WtEn= 1.15D-02
 Coeff-Com: -0.128D-02 0.153D+00 0.848D+00
 Coeff-En:   0.000D+00 0.000D+00 0.100D+01
 Coeff:     -0.126D-02 0.151D+00 0.850D+00
 Gap=     0.555 Goal=   None    Shift=    0.000
 RMSDP=7.35D-05 MaxDP=4.29D-03 DE=-5.07D-03 OVMax= 2.85D-03

 Cycle   4  Pass 1  IDiag  1:
 E= -2752.05226500617     Delta-E=       -0.000205695337 Rises=F Damp=F
 DIIS: error= 3.97D-05 at cycle   4 NSaved=   4.
 NSaved= 4 IEnMin= 4 EnMin= -2752.05226500617     IErMin= 4 ErrMin= 3.97D-05
 ErrMax= 3.97D-05  0.00D+00 EMaxC= 1.00D-01 BMatC= 6.93D-07 BMatP= 6.91D-04
 IDIUse=1 WtCom= 1.00D+00 WtEn= 0.00D+00
 Coeff-Com: -0.365D-03-0.174D-01-0.598D-01 0.108D+01
 Coeff:     -0.365D-03-0.174D-01-0.598D-01 0.108D+01
 Gap=     0.554 Goal=   None    Shift=    0.000
 RMSDP=5.98D-06 MaxDP=2.86D-04 DE=-2.06D-04 OVMax= 2.69D-04

 Cycle   5  Pass 1  IDiag  1:
 E= -2752.05226543191     Delta-E=       -0.000000425739 Rises=F Damp=F
 DIIS: error= 3.09D-06 at cycle   5 NSaved=   5.
 NSaved= 5 IEnMin= 5 EnMin= -2752.05226543191     IErMin= 5 ErrMin= 3.09D-06
 ErrMax= 3.09D-06  0.00D+00 EMaxC= 1.00D-01 BMatC= 6.02D-09 BMatP= 6.93D-07
 IDIUse=1 WtCom= 1.00D+00 WtEn= 0.00D+00
 Coeff-Com:  0.614D-04 0.218D-04-0.514D-02-0.848D-01 0.109D+01
 Coeff:      0.614D-04 0.218D-04-0.514D-02-0.848D-01 0.109D+01
 Gap=     0.554 Goal=   None    Shift=    0.000
 RMSDP=6.65D-07 MaxDP=2.88D-05 DE=-4.26D-07 OVMax= 2.77D-05

 Cycle   6  Pass 1  IDiag  1:
 E= -2752.05226543774     Delta-E=       -0.000000005831 Rises=F Damp=F
 DIIS: error= 3.18D-07 at cycle   6 NSaved=   6.
 NSaved= 6 IEnMin= 6 EnMin= -2752.05226543774     IErMin= 6 ErrMin= 3.18D-07
 ErrMax= 3.18D-07  0.00D+00 EMaxC= 1.00D-01 BMatC= 4.06D-11 BMatP= 6.02D-09
 IDIUse=1 WtCom= 1.00D+00 WtEn= 0.00D+00
 Coeff-Com: -0.301D-05 0.961D-04 0.867D-03-0.184D-02-0.933D-01 0.109D+01
 Coeff:     -0.301D-05 0.961D-04 0.867D-03-0.184D-02-0.933D-01 0.109D+01
 Gap=     0.554 Goal=   None    Shift=    0.000
 RMSDP=6.61D-08 MaxDP=3.78D-06 DE=-5.83D-09 OVMax= 3.30D-06

 Cycle   7  Pass 1  IDiag  1:
 E= -2752.05226543778     Delta-E=       -0.000000000043 Rises=F Damp=F
 DIIS: error= 1.76D-08 at cycle   7 NSaved=   7.
 NSaved= 7 IEnMin= 7 EnMin= -2752.05226543778     IErMin= 7 ErrMin= 1.76D-08
 ErrMax= 1.76D-08  0.00D+00 EMaxC= 1.00D-01 BMatC= 1.38D-13 BMatP= 4.06D-11
 IDIUse=1 WtCom= 1.00D+00 WtEn= 0.00D+00
 Coeff-Com:  0.736D-07-0.420D-05-0.381D-04 0.238D-03 0.343D-02-0.700D-01
 Coeff-Com:  0.107D+01
 Coeff:      0.736D-07-0.420D-05-0.381D-04 0.238D-03 0.343D-02-0.700D-01
 Coeff:      0.107D+01
 Gap=     0.554 Goal=   None    Shift=    0.000
 RMSDP=5.72D-09 MaxDP=2.05D-07 DE=-4.32D-11 OVMax= 2.27D-07

 SCF Done:  E(RHF) =  -2752.05226544     A.U. after    7 cycles
            NFock=  7  Conv=0.57D-08     -V/T= 2.0000
 KE= 2.752039785112D+03 PE=-6.582554746274D+03 EE= 1.078462695724D+03
 Leave Link  502 at Thu Apr  2 08:16:54 2020, MaxMem=  2147483648 cpu:              25.0 elap:               2.6
 (Enter /usr/local/g16/g16/l801.exe)
 Windowed orbitals will be sorted by symmetry type.
 ExpMin= 2.53D-02 ExpMax= 1.17D+07 ExpMxC= 1.33D+04 IAcc=3 IRadAn=         5 AccDes= 0.00D+00
 HarFok:  IExCor=  205 AccDes= 0.00D+00 IRadAn=         5 IDoV=-2 UseB2=F ITyADJ=14
 ICtDFT= 12500011 ScaDFX=  1.000000  1.000000  1.000000  1.000000
 DSYEVD-2 returned Info=          89 IAlg= 4 N=    59 NDim=    59 NE2=    36395833 trying  DSYEV.
 Largest valence mixing into a core orbital is  9.81D-05
 Largest core mixing into a valence orbital is  3.83D-05
 Range of M.O.s used for correlation:    10   197
 NBasis=   197 NAE=    18 NBE=    18 NFC=     9 NFV=     0
 NROrb=    188 NOA=     9 NOB=     9 NVA=   179 NVB=   179

 **** Warning!!: The largest alpha MO coefficient is  0.14401373D+02

 Leave Link  801 at Thu Apr  2 08:16:54 2020, MaxMem=  2147483648 cpu:               0.5 elap:               0.0
 (Enter /usr/local/g16/g16/l804.exe)
 Closed-shell transformation, MDV=  2147483648 ITran=4 ISComp=1.
 Semi-Direct transformation.
 ModeAB=           2 MOrb=             9 LenV=    2146336410
 LASXX=     28892340 LTotXX=    28892340 LenRXX=    28892340
 LTotAB=    29348001 MaxLAS=    44558820 LenRXY=    44558820
 NonZer=    57784680 LenScr=    87449600 LnRSAI=           0
 LnScr1=           0 LExtra=           0 Total=    160900760
 MaxDsk=          -1 SrtSym=           F ITran=            4
 DoSDTr:  NPSUse= 16
 JobTyp=0 Pass  1:  I=   1 to   9.
 (rs|ai) integrals will be sorted in core.
 Complete sort for first half transformation.
 First half transformation complete.
 Complete sort for second half transformation.
 Second half transformation complete.
 SymMOI:  orbitals are not symmetric.
 Spin components of T(2) and E(2):
     alpha-alpha T2 =       0.9502316574D-02 E2=     -0.3580007400D-01
     alpha-beta  T2 =       0.4817490548D-01 E2=     -0.1722984889D+00
     beta-beta   T2 =       0.9502316574D-02 E2=     -0.3580007400D-01
 ANorm=    0.1033043822D+01
 E2 =    -0.2438986369D+00 EUMP2 =    -0.27522961640747D+04
 Leave Link  804 at Thu Apr  2 08:17:02 2020, MaxMem=  2147483648 cpu:             130.4 elap:               8.2
 (Enter /usr/local/g16/g16/l913.exe)
 CIDS:  MDV=  2147483648.
 Frozen-core window:  NFC=   9 NFV=   0.
 IFCWin=0 IBDFC=1 NFBD=     0     0 NFCmp=     0     0 NFFFC=     0     0
 Using DD3R+UMP44R for 1st iteration.
 Using DD4RQ for 2nd and later iterations.
 Keep R2 and R3 ints in memory in canonical form, NReq=393333125.
 FoFCou: FMM=F IPFlag=           0 FMFlag=           0 FMFlg1=           0
         NFxFlg=           0 DoJE=F BraDBF=F KetDBF=F FulRan=T
         wScrn=  0.000000 ICntrl=       600 IOpCl=  0 I1Cent=           0 NGrid=           0
         NMat0=    1 NMatS0=  19503 NMatT0=    0 NMatD0=    1 NMtDS0=    0 NMtDT0=    0
 Symmetry not used in FoFCou.
 Two-electron integral symmetry not used.
 CIDS: In Core Option IDoMem=           1.
 MP4(SDTQ)
 =========
 Produce multiple copies of IABC intergrals
 DD1Dir will call FoFMem   1 times, MxPair=        90
 NAB=    45 NAA=     0 NBB=     0.
 MP4(D)= -0.37203541D-02
 MP4(S)= -0.10890906D-02
 MP4(R+Q)=  0.42462845D-02
 T4(AAA)= -0.32559483D-03
 T4(AAB)= -0.35624827D-02
 Time for triples=      480.10 seconds.
 MP4(T)=   -0.77761551D-02
 E3=       -0.98644029D-02        EUMP3=      -0.27523060285D+04
 E4(DQ)=    0.52593042D-03        UMP4(DQ)=   -0.27523055025D+04
 E4(SDQ)=  -0.56316019D-03        UMP4(SDQ)=  -0.27523065916D+04
 E4(SDTQ)= -0.83393153D-02        UMP4(SDTQ)= -0.27523143678D+04
 VARIATIONAL ENERGIES WITH THE FIRST-ORDER WAVEFUNCTION:
 E(VAR1)=  -0.27522900540D+04     E(CISD,4)=  -0.27522944529D+04
 Largest amplitude= 1.53D-02
 Discarding MO integrals.
 Leave Link  913 at Thu Apr  2 08:17:36 2020, MaxMem=  2147483648 cpu:             546.9 elap:              34.2
 (Enter /usr/local/g16/g16/l601.exe)
 Copying SCF densities to generalized density rwf, IOpCl= 0 IROHF=0.

 **********************************************************************

            Population analysis using the SCF density.

 **********************************************************************

 Orbital symmetries:
       Occupied  (A) (A) (A) (A) (A) (A) (A) (A) (A) (A) (A) (A)
                 (A) (A) (A) (A) (A) (A)
       Virtual   (A) (A) (A) (A) (A) (A) (A) (A) (A) (A) (A) (A)
                 (A) (A) (A) (A) (A) (A) (A) (A) (A) (A) (A) (A)
                 (A) (A) (A) (A) (A) (A) (A) (A) (A) (A) (A) (A)
                 (A) (A) (A) (A) (A) (A) (A) (A) (A) (A) (A) (A)
                 (A) (A) (A) (A) (A) (A) (A) (A) (A) (A) (A) (A)
                 (A) (A) (A) (A) (A) (A) (A) (A) (A) (A) (A) (A)
                 (A) (A) (A) (A) (A) (A) (A) (A) (A) (A) (A) (A)
                 (A) (A) (A) (A) (A) (A) (A) (A) (A) (A) (A) (A)
                 (A) (A) (A) (A) (A) (A) (A) (A) (A) (A) (A) (A)
                 (A) (A) (A) (A) (A) (A) (A) (A) (A) (A) (A) (A)
                 (A) (A) (A) (A) (A) (A) (A) (A) (A) (A) (A) (A)
                 (A) (A) (A) (A) (A) (A) (A) (A) (A) (A) (A) (A)
                 (A) (A) (A) (A) (A) (A) (A) (A) (A) (A) (A) (A)
                 (A) (A) (A) (A) (A) (A) (A) (A) (A) (A) (A) (A)
                 (A) (A) (A) (A) (A) (A) (A) (A) (A) (A) (A)
 The electronic state is 1-A.
 Alpha  occ. eigenvalues -- -520.16580 -69.90314 -63.00972 -63.00972 -63.00971
 Alpha  occ. eigenvalues --  -10.84954  -8.33154  -8.33154  -8.33153  -3.82531
 Alpha  occ. eigenvalues --   -3.82531  -3.82531  -3.82531  -3.82530  -1.15311
 Alpha  occ. eigenvalues --   -0.52431  -0.52429  -0.52429
 Alpha virt. eigenvalues --    0.03000   0.04944   0.08676   0.09344   0.11771
 Alpha virt. eigenvalues --    0.12351   0.13413   0.13957   0.16549   0.17153
 Alpha virt. eigenvalues --    0.17876   0.20013   0.21375   0.26892   0.28218
 Alpha virt. eigenvalues --    0.29392   0.29503   0.31777   0.34757   0.35371
 Alpha virt. eigenvalues --    0.37753   0.38099   0.39849   0.40447   0.42406
 Alpha virt. eigenvalues --    0.42990   0.44532   0.55690   0.57344   0.59530
 Alpha virt. eigenvalues --    0.61889   0.66883   0.68646   0.70777   0.73501
 Alpha virt. eigenvalues --    0.76694   0.78339   0.79434   0.81530   0.82948
 Alpha virt. eigenvalues --    0.84351   0.85020   0.86402   0.87948   0.88614
 Alpha virt. eigenvalues --    0.90275   0.91274   0.92347   0.93742   0.97568
 Alpha virt. eigenvalues --    0.98651   1.00513   1.01800   1.03560   1.05304
 Alpha virt. eigenvalues --    1.07249   1.11644   1.12377   1.16017   1.16620
 Alpha virt. eigenvalues --    1.19256   1.24633   1.27855   1.28532   1.29886
 Alpha virt. eigenvalues --    1.36279   1.38718   1.40906   1.48497   1.51350
 Alpha virt. eigenvalues --    1.55788   1.58840   1.65458   1.75735   1.78297
 Alpha virt. eigenvalues --    1.79392   1.83701   1.89678   1.98736   2.25743
 Alpha virt. eigenvalues --    2.31769   2.34516   2.37900   2.39092   2.41337
 Alpha virt. eigenvalues --    2.44780   2.44946   2.46795   2.48426   2.49860
 Alpha virt. eigenvalues --    2.54413   2.54872   2.56098   2.58360   2.59554
 Alpha virt. eigenvalues --    2.60254   2.63611   2.65799   2.66152   2.70662
 Alpha virt. eigenvalues --    2.71127   2.72384   2.75949   2.79332   2.81704
 Alpha virt. eigenvalues --    2.84335   2.87548   2.87717   2.91514   2.96063
 Alpha virt. eigenvalues --    3.00363   3.05080   3.06909   3.14186   3.21882
 Alpha virt. eigenvalues --    3.23795   3.26529   3.31309   3.37023   3.50221
 Alpha virt. eigenvalues --    3.61540   3.65324   3.82872   3.87376   4.04142
 Alpha virt. eigenvalues --    4.42589   4.49175   4.52585   4.62390   4.72804
 Alpha virt. eigenvalues --    4.74786   4.87482   4.91657   4.94952   5.02570
 Alpha virt. eigenvalues --    5.17786   5.20853   5.59151   5.66440   5.74734
 Alpha virt. eigenvalues --    5.91414   6.02063   6.16740   6.73965   6.90122
 Alpha virt. eigenvalues --    7.37544   7.43094   7.60420   7.63426   7.74270
 Alpha virt. eigenvalues --    7.87105   7.90557   8.11776   8.17228   8.21972
 Alpha virt. eigenvalues --    8.40330   8.46009   8.58920   8.86676   9.65153
 Alpha virt. eigenvalues --    9.74808   9.84385   9.89431   9.91725  10.00310
 Alpha virt. eigenvalues --   10.14897  10.32442  10.38091  10.97382  11.51682
 Alpha virt. eigenvalues --   11.66067  11.75873  12.05496  12.10826  13.25443
 Alpha virt. eigenvalues --   13.61349  14.52866  62.74024  64.67165
          Condensed to atoms (all electrons):
               1          2          3          4          5
     1  O    0.001334  -0.000895  -0.000909   0.000484  -0.004200
     2  O   -0.000895   0.002093   0.000328  -0.001268  -0.001770
     3  H   -0.000909   0.000328   0.000736  -0.000184   0.001966
     4  H    0.000484  -0.001268  -0.000184   0.001074  -0.008085
     5  Kr  -0.004200  -0.001770   0.001966  -0.008085  36.023828
 Mulliken charges:
               1
     1  O    0.004185
     2  O    0.001512
     3  H   -0.001937
     4  H    0.007980
     5  Kr  -0.011740
 Sum of Mulliken charges =   0.00000
 Mulliken charges with hydrogens summed into heavy atoms:
               1
     1  O    0.002248
     2  O    0.009492
     5  Kr  -0.011740
         Mulliken charges condensed to fragments:
      1      0.011740
      2     -0.011740
 Electronic spatial extent (au):  <R**2>=            165.2792
 Charge=             -0.0000 electrons
 Dipole moment (field-independent basis, Debye):
    X=             -0.0008    Y=              0.0005    Z=              0.0001  Tot=              0.0010
 Quadrupole moment (field-independent basis, Debye-Ang):
   XX=            -17.7276   YY=            -17.7324   ZZ=            -17.7365
   XY=             -0.0023   XZ=             -0.0003   YZ=              0.0001
 Traceless Quadrupole moment (field-independent basis, Debye-Ang):
   XX=              0.0046   YY=             -0.0002   ZZ=             -0.0044
   XY=             -0.0023   XZ=             -0.0003   YZ=              0.0001
 Octapole moment (field-independent basis, Debye-Ang**2):
  XXX=            -52.5892  YYY=              0.7125  ZZZ=             -0.0910  XYY=            -17.5360
  XXY=              0.2318  XXZ=             -0.0311  XZZ=            -17.5390  YZZ=              0.2382
  YYZ=             -0.0301  XYZ=              0.0002
 Hexadecapole moment (field-independent basis, Debye-Ang**3):
 XXXX=           -122.5320 YYYY=            -18.5550 ZZZZ=            -18.5535 XXXY=              0.6918
 XXXZ=             -0.0914 YYYX=              0.6958 YYYZ=              0.0012 ZZZX=             -0.0910
 ZZZY=              0.0020 XXYY=            -23.5209 XXZZ=            -23.5219 YYZZ=             -6.1843
 XXYZ=              0.0009 YYXZ=             -0.0302 ZZXY=              0.2312
 N-N= 0.000000000000D+00 E-N=-6.582554747828D+03  KE= 2.752039785112D+03
 Leave Link  601 at Thu Apr  2 08:17:36 2020, MaxMem=  2147483648 cpu:               0.5 elap:               0.0
 (Enter /usr/local/g16/g16/l122.exe)
 CPIOFr:  IOpCl= 0 IRwI=-1 IRwCP=  731 ICalc=  2 LCPTot=       59414 Len1MO=      159453 IndFrg=      537773
 Counterpoise: doing calculation for fragment   1 using the basis set of the fragment.
 Leave Link  122 at Thu Apr  2 08:17:36 2020, MaxMem=  2147483648 cpu:               0.0 elap:               0.0
 (Enter /usr/local/g16/g16/l301.exe)
 Basis read from rwf:  (5D, 7F)
 No pseudopotential information found on rwf file.
 There are   160 symmetry adapted cartesian basis functions of A   symmetry.
 There are   138 symmetry adapted basis functions of A   symmetry.
   138 basis functions,   198 primitive gaussians,   160 cartesian basis functions
     9 alpha electrons        9 beta electrons
       nuclear repulsion energy        36.6165121308 Hartrees.
 IExCor=    0 DFT=F Ex=HF Corr=None ExCW=0 ScaHFX=  1.000000
 ScaDFX=  1.000000  1.000000  1.000000  1.000000 ScalE2=  1.000000  1.000000
 IRadAn=      5 IRanWt=     -1 IRanGd=            0 ICorTp=0 IEmpDi=  4
 NAtoms=    5 NActive=    4 NUniq=    4 SFac= 1.00D+00 NAtFMM=   60 NAOKFM=F Big=F
 Integral buffers will be    131072 words long.
 Raffenetti 1 integral format.
 Two-electron integral symmetry is turned on.
 No density basis found on file   718.
 Leave Link  301 at Thu Apr  2 08:17:36 2020, MaxMem=  2147483648 cpu:               0.4 elap:               0.0
 (Enter /usr/local/g16/g16/l302.exe)
 NPDir=0 NMtPBC=     1 NCelOv=     1 NCel=       1 NClECP=     1 NCelD=      1
         NCelK=      1 NCelE2=     1 NClLst=     1 CellRange=     0.0.
 One-electron integrals computed using PRISM.
 One-electron integral symmetry used in STVInt
 NBasis=   138 RedAO= T EigKep=  2.52D-04  NBF=   138
 NBsUse=   138 1.00D-06 EigRej= -1.00D+00 NBFU=   138
 Leave Link  302 at Thu Apr  2 08:17:37 2020, MaxMem=  2147483648 cpu:               1.3 elap:               0.1
 (Enter /usr/local/g16/g16/l303.exe)
 DipDrv:  MaxL=1.
 Leave Link  303 at Thu Apr  2 08:17:37 2020, MaxMem=  2147483648 cpu:               0.3 elap:               0.0
 (Enter /usr/local/g16/g16/l401.exe)
 ExpMin= 2.53D-02 ExpMax= 1.53D+04 ExpMxC= 5.22D+02 IAcc=3 IRadAn=         5 AccDes= 0.00D+00
 Harris functional with IExCor=  205 and IRadAn=       5 diagonalized for initial guess.
 HarFok:  IExCor=  205 AccDes= 0.00D+00 IRadAn=         5 IDoV= 1 UseB2=F ITyADJ=14
 ICtDFT=  3500011 ScaDFX=  1.000000  1.000000  1.000000  1.000000
 FoFCou: FMM=F IPFlag=           0 FMFlag=      100000 FMFlg1=           0
         NFxFlg=           0 DoJE=T BraDBF=F KetDBF=T FulRan=T
         wScrn=  0.000000 ICntrl=       500 IOpCl=  0 I1Cent=   200000004 NGrid=           0
         NMat0=    1 NMatS0=      1 NMatT0=    0 NMatD0=    1 NMtDS0=    0 NMtDT0=    0
 Petite list used in FoFCou.
 Harris En= -150.935913116041    
 JPrj=0 DoOrth=F DoCkMO=F.
 Leave Link  401 at Thu Apr  2 08:17:37 2020, MaxMem=  2147483648 cpu:               2.4 elap:               0.2
 (Enter /usr/local/g16/g16/l502.exe)
 Keep R1 ints in memory in canonical form, NReq=53860811.
 FoFCou: FMM=F IPFlag=           0 FMFlag=           0 FMFlg1=           0
         NFxFlg=           0 DoJE=F BraDBF=F KetDBF=F FulRan=T
         wScrn=  0.000000 ICntrl=       600 IOpCl=  0 I1Cent=           0 NGrid=           0
         NMat0=    1 NMatS0=   9591 NMatT0=    0 NMatD0=    1 NMtDS0=    0 NMtDT0=    0
 Symmetry not used in FoFCou.
 Two-electron integral symmetry not used.
 Closed shell SCF:
 Using DIIS extrapolation, IDIIS=  1040.
 NGot=  2147483648 LenX=  2101430001 LenY=  2101403960
 Requested convergence on RMS density matrix=1.00D-08 within 128 cycles.
 Requested convergence on MAX density matrix=1.00D-06.
 Requested convergence on             energy=1.00D-06.
 No special actions if energy rises.

 Cycle   1  Pass 1  IDiag  1:
 E= -150.774151713938    
 DIIS: error= 3.35D-02 at cycle   1 NSaved=   1.
 NSaved= 1 IEnMin= 1 EnMin= -150.774151713938     IErMin= 1 ErrMin= 3.35D-02
 ErrMax= 3.35D-02  0.00D+00 EMaxC= 1.00D-01 BMatC= 2.27D-01 BMatP= 2.27D-01
 IDIUse=3 WtCom= 6.65D-01 WtEn= 3.35D-01
 Coeff-Com:  0.100D+01
 Coeff-En:   0.100D+01
 Coeff:      0.100D+01
 Gap=     0.713 Goal=   None    Shift=    0.000
 GapD=    0.713 DampG=2.000 DampE=0.500 DampFc=1.0000 IDamp=-1.
 RMSDP=1.32D-03 MaxDP=2.87D-02              OVMax= 6.38D-02

 Cycle   2  Pass 1  IDiag  1:
 E= -150.826613449356     Delta-E=       -0.052461735419 Rises=F Damp=F
 DIIS: error= 9.05D-03 at cycle   2 NSaved=   2.
 NSaved= 2 IEnMin= 2 EnMin= -150.826613449356     IErMin= 2 ErrMin= 9.05D-03
 ErrMax= 9.05D-03  0.00D+00 EMaxC= 1.00D-01 BMatC= 1.56D-02 BMatP= 2.27D-01
 IDIUse=3 WtCom= 9.09D-01 WtEn= 9.05D-02
 Coeff-Com:  0.103D+00 0.897D+00
 Coeff-En:   0.000D+00 0.100D+01
 Coeff:      0.938D-01 0.906D+00
 Gap=     0.548 Goal=   None    Shift=    0.000
 RMSDP=6.80D-04 MaxDP=2.48D-02 DE=-5.25D-02 OVMax= 2.82D-02

 Cycle   3  Pass 1  IDiag  1:
 E= -150.834407032059     Delta-E=       -0.007793582702 Rises=F Damp=F
 DIIS: error= 4.34D-03 at cycle   3 NSaved=   3.
 NSaved= 3 IEnMin= 3 EnMin= -150.834407032059     IErMin= 3 ErrMin= 4.34D-03
 ErrMax= 4.34D-03  0.00D+00 EMaxC= 1.00D-01 BMatC= 2.27D-03 BMatP= 1.56D-02
 IDIUse=3 WtCom= 9.57D-01 WtEn= 4.34D-02
 Coeff-Com: -0.208D-01 0.255D+00 0.766D+00
 Coeff-En:   0.000D+00 0.000D+00 0.100D+01
 Coeff:     -0.199D-01 0.244D+00 0.776D+00
 Gap=     0.519 Goal=   None    Shift=    0.000
 RMSDP=1.54D-04 MaxDP=3.84D-03 DE=-7.79D-03 OVMax= 9.05D-03

 Cycle   4  Pass 1  IDiag  1:
 E= -150.835817277591     Delta-E=       -0.001410245532 Rises=F Damp=F
 DIIS: error= 3.95D-04 at cycle   4 NSaved=   4.
 NSaved= 4 IEnMin= 4 EnMin= -150.835817277591     IErMin= 4 ErrMin= 3.95D-04
 ErrMax= 3.95D-04  0.00D+00 EMaxC= 1.00D-01 BMatC= 1.58D-05 BMatP= 2.27D-03
 IDIUse=3 WtCom= 9.96D-01 WtEn= 3.95D-03
 Coeff-Com: -0.174D-02-0.116D-01 0.143D-01 0.999D+00
 Coeff-En:   0.000D+00 0.000D+00 0.000D+00 0.100D+01
 Coeff:     -0.174D-02-0.115D-01 0.143D-01 0.999D+00
 Gap=     0.521 Goal=   None    Shift=    0.000
 RMSDP=2.23D-05 MaxDP=4.05D-04 DE=-1.41D-03 OVMax= 1.34D-03

 Cycle   5  Pass 1  IDiag  1:
 E= -150.835839144080     Delta-E=       -0.000021866489 Rises=F Damp=F
 DIIS: error= 1.30D-04 at cycle   5 NSaved=   5.
 NSaved= 5 IEnMin= 5 EnMin= -150.835839144080     IErMin= 5 ErrMin= 1.30D-04
 ErrMax= 1.30D-04  0.00D+00 EMaxC= 1.00D-01 BMatC= 1.50D-06 BMatP= 1.58D-05
 IDIUse=3 WtCom= 9.99D-01 WtEn= 1.30D-03
 Coeff-Com:  0.167D-02-0.165D-01-0.584D-01-0.169D+00 0.124D+01
 Coeff-En:   0.000D+00 0.000D+00 0.000D+00 0.000D+00 0.100D+01
 Coeff:      0.167D-02-0.165D-01-0.583D-01-0.168D+00 0.124D+01
 Gap=     0.521 Goal=   None    Shift=    0.000
[...]
 Symmetry not used in FoFCou.
 Two-electron integral symmetry not used.
 Closed shell SCF:
 Using DIIS extrapolation, IDIIS=  1040.
 NGot=  2147483648 LenX=  2101430001 LenY=  2101403960
 Requested convergence on RMS density matrix=1.00D-08 within 128 cycles.
 Requested convergence on MAX density matrix=1.00D-06.
 Requested convergence on             energy=1.00D-06.
 No special actions if energy rises.

 Cycle   1  Pass 1  IDiag  1:
 E= -150.835843355547    
 DIIS: error= 2.38D-10 at cycle   1 NSaved=   1.
 NSaved= 1 IEnMin= 1 EnMin= -150.835843355547     IErMin= 1 ErrMin= 2.38D-10
 ErrMax= 2.38D-10  0.00D+00 EMaxC= 1.00D-01 BMatC= 1.04D-17 BMatP= 1.04D-17
 IDIUse=1 WtCom= 1.00D+00 WtEn= 0.00D+00
 Coeff-Com:  0.100D+01
 Coeff:      0.100D+01
 Gap=     0.903 Goal=   None    Shift=    0.000
 RMSDP=1.85D-11 MaxDP=5.46D-10              OVMax= 1.09D-09

 SCF Done:  E(RHF) =  -150.835843356     A.U. after    1 cycles
            NFock=  1  Conv=0.18D-10     -V/T= 2.0021
 KE= 1.505189567391D+02 PE=-4.314511157569D+02 EE= 9.347980353141D+01
 Leave Link  502 at Thu Apr  2 09:33:40 2020, MaxMem=  2147483648 cpu:               7.2 elap:               0.5
 (Enter /usr/local/g16/g16/l801.exe)
 Windowed orbitals will be sorted by symmetry type.
 ExpMin= 2.53D-02 ExpMax= 1.53D+04 ExpMxC= 5.22D+02 IAcc=3 IRadAn=         5 AccDes= 0.00D+00
 HarFok:  IExCor=  205 AccDes= 0.00D+00 IRadAn=         5 IDoV=-2 UseB2=F ITyADJ=14
 ICtDFT= 12500011 ScaDFX=  1.000000  1.000000  1.000000  1.000000
 Largest valence mixing into a core orbital is  1.19D-04
 Largest core mixing into a valence orbital is  2.04D-05
 Range of M.O.s used for correlation:     3   138
 NBasis=   138 NAE=     9 NBE=     9 NFC=     2 NFV=     0
 NROrb=    136 NOA=     7 NOB=     7 NVA=   129 NVB=   129

 **** Warning!!: The largest alpha MO coefficient is  0.13276197D+02

 Leave Link  801 at Thu Apr  2 09:33:40 2020, MaxMem=  2147483648 cpu:               0.6 elap:               0.0
 (Enter /usr/local/g16/g16/l804.exe)
 Closed-shell transformation, MDV=  2147483648 ITran=4 ISComp=1.
 Semi-Direct transformation.
 ModeAB=           2 MOrb=             7 LenV=    2146849433
 LASXX=      8463147 LTotXX=     8463147 LenRXX=     8463147
 LTotAB=     8647912 MaxLAS=    12261760 LenRXY=    12261760
 NonZer=    16926294 LenScr=    26146816 LnRSAI=           0
 LnScr1=           0 LExtra=           0 Total=     46871723
 MaxDsk=          -1 SrtSym=           F ITran=            4
 DoSDTr:  NPSUse= 16
 JobTyp=0 Pass  1:  I=   1 to   7.
 (rs|ai) integrals will be sorted in core.
 Complete sort for first half transformation.
 First half transformation complete.
 Complete sort for second half transformation.
 Second half transformation complete.
 SymMOI:  orbitals are not symmetric.
 Spin components of T(2) and E(2):
     alpha-alpha T2 =       0.1599542585D-01 E2=     -0.6280720077D-01
     alpha-beta  T2 =       0.9320945953D-01 E2=     -0.3818411977D+00
     beta-beta   T2 =       0.1599542585D-01 E2=     -0.6280720077D-01
 ANorm=    0.1060754595D+01
 E2 =    -0.5074555993D+00 EUMP2 =    -0.15134329895481D+03
 Leave Link  804 at Thu Apr  2 09:33:42 2020, MaxMem=  2147483648 cpu:              27.9 elap:               1.7
 (Enter /usr/local/g16/g16/l913.exe)
 CIDS:  MDV=  2147483648.
 Frozen-core window:  NFC=   2 NFV=   0.
 IFCWin=0 IBDFC=1 NFBD=     0     0 NFCmp=     0     0 NFFFC=     0     0
 Using DD3R+UMP44R for 1st iteration.
 Using DD4RQ for 2nd and later iterations.
 Keep R2 and R3 ints in memory in canonical form, NReq=99863705.
 FoFCou: FMM=F IPFlag=           0 FMFlag=           0 FMFlg1=           0
         NFxFlg=           0 DoJE=F BraDBF=F KetDBF=F FulRan=T
         wScrn=  0.000000 ICntrl=       600 IOpCl=  0 I1Cent=           0 NGrid=           0
         NMat0=    1 NMatS0=   9591 NMatT0=    0 NMatD0=    1 NMtDS0=    0 NMtDT0=    0
 Symmetry not used in FoFCou.
 Two-electron integral symmetry not used.
 CIDS: In Core Option IDoMem=           1.
 MP4(SDTQ)
 =========
 Produce multiple copies of IABC intergrals
 DD1Dir will call FoFMem   1 times, MxPair=        56
 NAB=    28 NAA=     0 NBB=     0.
 MP4(D)= -0.11276907D-01
 MP4(S)= -0.52025127D-02
 MP4(R+Q)=  0.10749224D-01
 T4(AAA)= -0.65793159D-03
 T4(AAB)= -0.10249835D-01
 Time for triples=       93.68 seconds.
 MP4(T)=   -0.21815534D-01
 E3=       -0.20947009D-02        EUMP3=      -0.15134539366D+03
 E4(DQ)=   -0.52768245D-03        UMP4(DQ)=   -0.15134592134D+03
 E4(SDQ)=  -0.57301952D-02        UMP4(SDQ)=  -0.15135112385D+03
 E4(SDTQ)= -0.27545729D-01        UMP4(SDTQ)= -0.15137293938D+03
 VARIATIONAL ENERGIES WITH THE FIRST-ORDER WAVEFUNCTION:
 E(VAR1)=  -0.15128869632D+03     E(CISD,4)=  -0.15129833948D+03
 Largest amplitude= 3.23D-02
 Discarding MO integrals.
 Leave Link  913 at Thu Apr  2 09:33:49 2020, MaxMem=  2147483648 cpu:             116.6 elap:               7.3
 (Enter /usr/local/g16/g16/l122.exe)
 CPIOFr:  IOpCl= 0 IRwI=-1 IRwCP=  731 ICalc=  3 LCPTot=       59414 Len1MO=      159453 IndFrg=      697226
 Restoring MOs from calculation   5 to rwf and chk.
 CPIOFr:  IOpCl= 0 IRwI=-2 IRwCP=20731 ICalc=  4 LCPTot=       59414 Len1MO=      159453 IndFrg=      856679
 CPIOFr:  IOpCl= 0 IRwI= 4 IRwCP=20731 ICalc=  4 LCPTot=       59414 Len1MO=      159453 IndFrg=      856679
 Counterpoise: doing calculation for fragment   2 using the basis set of the fragment.
 Leave Link  122 at Thu Apr  2 09:33:49 2020, MaxMem=  2147483648 cpu:               0.0 elap:               0.0
 (Enter /usr/local/g16/g16/l301.exe)
 Basis read from rwf:  (5D, 7F)
 No pseudopotential information found on rwf file.
 There are    69 symmetry adapted cartesian basis functions of A   symmetry.
 There are    59 symmetry adapted basis functions of A   symmetry.
    59 basis functions,   217 primitive gaussians,    69 cartesian basis functions
    18 alpha electrons       18 beta electrons
       nuclear repulsion energy         0.0000000000 Hartrees.
 IExCor=    0 DFT=F Ex=HF Corr=None ExCW=0 ScaHFX=  1.000000
 ScaDFX=  1.000000  1.000000  1.000000  1.000000 ScalE2=  1.000000  1.000000
 IRadAn=      5 IRanWt=     -1 IRanGd=            0 ICorTp=0 IEmpDi=  4
 NAtoms=    5 NActive=    1 NUniq=    1 SFac= 1.00D+00 NAtFMM=   60 NAOKFM=F Big=F
 Integral buffers will be    131072 words long.
 Raffenetti 1 integral format.
 Two-electron integral symmetry is turned on.
 No density basis found on file   718.
 Leave Link  301 at Thu Apr  2 09:33:49 2020, MaxMem=  2147483648 cpu:               0.4 elap:               0.0
 (Enter /usr/local/g16/g16/l302.exe)
 NPDir=0 NMtPBC=     1 NCelOv=     1 NCel=       1 NClECP=     1 NCelD=      1
         NCelK=      1 NCelE2=     1 NClLst=     1 CellRange=     0.0.
 One-electron integrals computed using PRISM.
 One-electron integral symmetry used in STVInt
 NBasis=    59 RedAO= T EigKep=  1.06D-02  NBF=    59
 NBsUse=    59 1.00D-06 EigRej= -1.00D+00 NBFU=    59
 Leave Link  302 at Thu Apr  2 09:33:49 2020, MaxMem=  2147483648 cpu:               1.3 elap:               0.1
 (Enter /usr/local/g16/g16/l303.exe)
 DipDrv:  MaxL=1.
 Leave Link  303 at Thu Apr  2 09:33:49 2020, MaxMem=  2147483648 cpu:               0.4 elap:               0.0
 (Enter /usr/local/g16/g16/l401.exe)
 Initial guess from the checkpoint file:  "/mnt/driveB/scratch/matheus/Gau-112637.chk"
 B after Tr=     0.062990    0.000312   -0.000040
         Rot=    1.000000    0.000000    0.000000    0.000000 Ang=   0.00 deg.
 Guess basis will be translated and rotated to current coordinates.
 JPrj=2 DoOrth=T DoCkMO=T.
 Generating alternative initial guess.
 ExpMin= 4.00D-02 ExpMax= 1.17D+07 ExpMxC= 1.33D+04 IAcc=3 IRadAn=         5 AccDes= 0.00D+00
 Harris functional with IExCor=  205 and IRadAn=       5 diagonalized for initial guess.
 HarFok:  IExCor=  205 AccDes= 0.00D+00 IRadAn=         5 IDoV= 1 UseB2=F ITyADJ=14
 ICtDFT=  3500011 ScaDFX=  1.000000  1.000000  1.000000  1.000000
 FoFCou: FMM=F IPFlag=           0 FMFlag=      100000 FMFlg1=           0
         NFxFlg=           0 DoJE=T BraDBF=F KetDBF=T FulRan=T
         wScrn=  0.000000 ICntrl=       500 IOpCl=  0 I1Cent=   200000004 NGrid=           0
         NMat0=    1 NMatS0=      1 NMatT0=    0 NMatD0=    1 NMtDS0=    0 NMtDT0=    0
 Petite list used in FoFCou.
 Harris En= -2751.05937170533    
 Leave Link  401 at Thu Apr  2 09:33:49 2020, MaxMem=  2147483648 cpu:               2.3 elap:               0.1
 (Enter /usr/local/g16/g16/l502.exe)
 Keep R1 ints in memory in canonical form, NReq=14291944.
 FoFCou: FMM=F IPFlag=           0 FMFlag=           0 FMFlg1=           0
         NFxFlg=           0 DoJE=F BraDBF=F KetDBF=F FulRan=T
         wScrn=  0.000000 ICntrl=       600 IOpCl=  0 I1Cent=           0 NGrid=           0
         NMat0=    1 NMatS0=   1770 NMatT0=    0 NMatD0=    1 NMtDS0=    0 NMtDT0=    0
 Symmetry not used in FoFCou.
 Two-electron integral symmetry not used.
 Closed shell SCF:
 Using DIIS extrapolation, IDIIS=  1040.
 NGot=  2147483648 LenX=  2145904888 LenY=  2145899686
 Requested convergence on RMS density matrix=1.00D-08 within 128 cycles.
 Requested convergence on MAX density matrix=1.00D-06.
 Requested convergence on             energy=1.00D-06.
 No special actions if energy rises.

 Cycle   1  Pass 1  IDiag  1:
 E= -2752.05222307625    
 DIIS: error= 1.27D-13 at cycle   1 NSaved=   1.
 NSaved= 1 IEnMin= 1 EnMin= -2752.05222307625     IErMin= 1 ErrMin= 1.27D-13
 ErrMax= 1.27D-13  0.00D+00 EMaxC= 1.00D-01 BMatC= 7.85D-25 BMatP= 7.85D-25
 IDIUse=1 WtCom= 1.00D+00 WtEn= 0.00D+00
 Coeff-Com:  0.100D+01
 Coeff:      0.100D+01
 Gap=     0.719 Goal=   None    Shift=    0.000
 RMSDP=1.27D-14 MaxDP=2.95D-13              OVMax= 1.42D-13

 SCF Done:  E(RHF) =  -2752.05222308     A.U. after    1 cycles
            NFock=  1  Conv=0.13D-13     -V/T= 2.0000
 KE= 2.752048106937D+03 PE=-6.582565276257D+03 EE= 1.078464946243D+03
 Leave Link  502 at Thu Apr  2 09:33:50 2020, MaxMem=  2147483648 cpu:               9.8 elap:               0.6
 (Enter /usr/local/g16/g16/l801.exe)
 Windowed orbitals will be sorted by symmetry type.
 ExpMin= 4.00D-02 ExpMax= 1.17D+07 ExpMxC= 1.33D+04 IAcc=3 IRadAn=         5 AccDes= 0.00D+00
 HarFok:  IExCor=  205 AccDes= 0.00D+00 IRadAn=         5 IDoV=-2 UseB2=F ITyADJ=14
 ICtDFT= 12500011 ScaDFX=  1.000000  1.000000  1.000000  1.000000
 Largest valence mixing into a core orbital is  9.79D-05
 Largest core mixing into a valence orbital is  3.83D-05
 Range of M.O.s used for correlation:    10    59
 NBasis=    59 NAE=    18 NBE=    18 NFC=     9 NFV=     0
 NROrb=     50 NOA=     9 NOB=     9 NVA=    41 NVB=    41
 Leave Link  801 at Thu Apr  2 09:33:50 2020, MaxMem=  2147483648 cpu:               0.5 elap:               0.0
 (Enter /usr/local/g16/g16/l804.exe)
 Closed-shell transformation, MDV=  2147483648 ITran=4 ISComp=1.
 Semi-Direct transformation.
 ModeAB=           2 MOrb=             9 LenV=    2147140326
 LASXX=       482211 LTotXX=      482211 LenRXX=      482211
 LTotAB=      511245 MaxLAS=     1086750 LenRXY=     1086750
 NonZer=     1162350 LenScr=     2357760 LnRSAI=           0
 LnScr1=           0 LExtra=           0 Total=      3926721
 MaxDsk=          -1 SrtSym=           F ITran=            4
 DoSDTr:  NPSUse= 16
 JobTyp=0 Pass  1:  I=   1 to   9.
 (rs|ai) integrals will be sorted in core.
 Complete sort for first half transformation.
 First half transformation complete.
 Complete sort for second half transformation.
 Second half transformation complete.
 SymMOI:  orbitals are not symmetric.
 Spin components of T(2) and E(2):
     alpha-alpha T2 =       0.9484485167D-02 E2=     -0.3552398032D-01
     alpha-beta  T2 =       0.4799866946D-01 E2=     -0.1708433112D+00
     beta-beta   T2 =       0.9484485167D-02 E2=     -0.3552398032D-01
 ANorm=    0.1032941257D+01
 E2 =    -0.2418912719D+00 EUMP2 =    -0.27522941143481D+04
 Leave Link  804 at Thu Apr  2 09:33:50 2020, MaxMem=  2147483648 cpu:               5.2 elap:               0.3
 (Enter /usr/local/g16/g16/l913.exe)
 CIDS:  MDV=  2147483648.
 Frozen-core window:  NFC=   9 NFV=   0.
 IFCWin=0 IBDFC=1 NFBD=     0     0 NFCmp=     0     0 NFFFC=     0     0
 Using DD3R+UMP44R for 1st iteration.
 Using DD4RQ for 2nd and later iterations.
 Keep R2 and R3 ints in memory in canonical form, NReq=15862484.
 FoFCou: FMM=F IPFlag=           0 FMFlag=           0 FMFlg1=           0
         NFxFlg=           0 DoJE=F BraDBF=F KetDBF=F FulRan=T
         wScrn=  0.000000 ICntrl=       600 IOpCl=  0 I1Cent=           0 NGrid=           0
         NMat0=    1 NMatS0=   1770 NMatT0=    0 NMatD0=    1 NMtDS0=    0 NMtDT0=    0
 Symmetry not used in FoFCou.
 Two-electron integral symmetry not used.
 CIDS: In Core Option IDoMem=           1.
 MP4(SDTQ)
 =========
 Produce multiple copies of IABC intergrals
 DD1Dir will call FoFMem   1 times, MxPair=        90
 NAB=    45 NAA=     0 NBB=     0.
 MP4(D)= -0.36913093D-02
 MP4(S)= -0.10734540D-02
 MP4(R+Q)=  0.42077927D-02
 T4(AAA)= -0.32336090D-03
 T4(AAB)= -0.35259699D-02
 Time for triples=        3.43 seconds.
 MP4(T)=   -0.76986616D-02
 E3=       -0.99406389D-02        EUMP3=      -0.27523040550D+04
 E4(DQ)=    0.51648341D-03        UMP4(DQ)=   -0.27523035385D+04
 E4(SDQ)=  -0.55697064D-03        UMP4(SDQ)=  -0.27523046120D+04
 E4(SDTQ)= -0.82556322D-02        UMP4(SDTQ)= -0.27523123106D+04
 VARIATIONAL ENERGIES WITH THE FIRST-ORDER WAVEFUNCTION:
 E(VAR1)=  -0.27522882489D+04     E(CISD,4)=  -0.27522926209D+04
 Largest amplitude= 2.35D-02
 Discarding MO integrals.
 Leave Link  913 at Thu Apr  2 09:33:51 2020, MaxMem=  2147483648 cpu:              14.5 elap:               0.9
 (Enter /usr/local/g16/g16/l122.exe)
 CPIOFr:  IOpCl= 0 IRwI=-1 IRwCP=  731 ICalc=  4 LCPTot=       59414 Len1MO=      159453 IndFrg=      856679
 Restoring MOs from calculation   1 to rwf.
 CPIOFr:  IOpCl= 0 IRwI=-2 IRwCP=  731 ICalc=  0 LCPTot=       59414 Len1MO=      159453 IndFrg=      218867
 Counterpoise corrected energy =   -2903.685508845091
                   BSSE energy =       0.000219935594
              sum of fragments =   -2903.685250003890
           complexation energy =      -0.30 kcal/mole (raw)
           complexation energy =      -0.16 kcal/mole (corrected)
 Leave Link  122 at Thu Apr  2 09:33:51 2020, MaxMem=  2147483648 cpu:               0.1 elap:               0.0
 (Enter /usr/local/g16/g16/l108.exe)
 Scan completed.
 
 Summary of the potential surface scan, energies are +2752 a.u.:
   N      R1          SCF          MP2          MP3         MP4DQ       MP4SDQ       MP4SDTQ  
 ----  ---------  -----------  -----------  -----------  -----------  -----------  -----------
    1     3.0000     -0.05222     -0.29411     -0.30405     -0.30354     -0.30461     -0.31231
    2     3.1000     -0.05222     -0.29411     -0.30405     -0.30354     -0.30461     -0.31231
    3     3.2000     -0.05222     -0.29411     -0.30405     -0.30354     -0.30461     -0.31231
    4     3.3000     -0.05222     -0.29411     -0.30405     -0.30354     -0.30461     -0.31231
    5     3.4000     -0.05222     -0.29411     -0.30405     -0.30354     -0.30461     -0.31231
    6     3.5000     -0.05222     -0.29411     -0.30405     -0.30354     -0.30461     -0.31231
    7     3.6000     -0.05222     -0.29411     -0.30405     -0.30354     -0.30461     -0.31231
    8     3.7000     -0.05222     -0.29411     -0.30405     -0.30354     -0.30461     -0.31231
    9     3.8000     -0.05222     -0.29411     -0.30405     -0.30354     -0.30461     -0.31231
   10     3.9000     -0.05222     -0.29411     -0.30405     -0.30354     -0.30461     -0.31231
   11     4.0000     -0.05222     -0.29411     -0.30405     -0.30354     -0.30461     -0.31231
   12     4.1000     -0.05222     -0.29411     -0.30405     -0.30354     -0.30461     -0.31231
   13     4.2000     -0.05222     -0.29411     -0.30405     -0.30354     -0.30461     -0.31231
   14     4.3000     -0.05222     -0.29411     -0.30405     -0.30354     -0.30461     -0.31231
   15     4.4000     -0.05222     -0.29411     -0.30405     -0.30354     -0.30461     -0.31231
   16     4.5000     -0.05222     -0.29411     -0.30405     -0.30354     -0.30461     -0.31231
   17     4.6000     -0.05222     -0.29411     -0.30405     -0.30354     -0.30461     -0.31231
   18     4.7000     -0.05222     -0.29411     -0.30405     -0.30354     -0.30461     -0.31231
   19     4.8000     -0.05222     -0.29411     -0.30405     -0.30354     -0.30461     -0.31231
   20     4.9000     -0.05222     -0.29411     -0.30405     -0.30354     -0.30461     -0.31231
   21     5.0000     -0.05222     -0.29411     -0.30405     -0.30354     -0.30461     -0.31231
 ----  ---------  -----------  -----------  -----------  -----------  -----------  -----------
  
 Leave Link  108 at Thu Apr  2 09:33:51 2020, MaxMem=  2147483648 cpu:               0.1 elap:               0.0
 (Enter /usr/local/g16/g16/l9999.exe)
 1\1\GINC-ARTHUR-MS-7B09\Scan\RMP4SDTQ-FC\Aug-CC-pVTZ\H2Kr1O2\MATHEUS\0
 2-Apr-2020\1\\#p mp4/aug-cc-PVTz int=ultrafine counterpoise=2 Scan\\PT
 CC\\0,1\O,0,0.,0.,0.725\O,0,0.,0.,-0.725\H,0,-0.8633149634,-0.31422094
 95,1.0235104166\H,0,0.,0.9187205947,-1.0235104166\Kr,0,0.,R1,0.\\R1=3.
 ,s,20,0.1\\Version=ES64L-G16RevA.03\HF=-2752.0522231,-2752.0522231,-27
 52.0522231,-2752.0522231,-2752.0522231,-2752.0522231,-2752.0522231,-27
 52.0522231,-2752.0522231,-2752.0522231,-2752.0522231,-2752.0522231,-27
 52.0522231,-2752.0522231,-2752.0522231,-2752.0522231,-2752.0522231,-27
 52.0522231,-2752.0522231,-2752.0522231,-2752.0522231\MP2=-2752.2941143
 ,-2752.2941143,-2752.2941143,-2752.2941143,-2752.2941143,-2752.2941143
 ,-2752.2941143,-2752.2941143,-2752.2941143,-2752.2941143,-2752.2941143
 ,-2752.2941143,-2752.2941143,-2752.2941143,-2752.2941143,-2752.2941143
 ,-2752.2941143,-2752.2941143,-2752.2941143,-2752.2941143,-2752.2941143
 \MP3=-2752.304055,-2752.304055,-2752.304055,-2752.304055,-2752.304055,
 -2752.304055,-2752.304055,-2752.304055,-2752.304055,-2752.304055,-2752
 .304055,-2752.304055,-2752.304055,-2752.304055,-2752.304055,-2752.3040
 55,-2752.304055,-2752.304055,-2752.304055,-2752.304055,-2752.304055\MP
 4D=-2752.3077463,-2752.3077463,-2752.3077463,-2752.3077463,-2752.30774
 63,-2752.3077463,-2752.3077463,-2752.3077463,-2752.3077463,-2752.30774
 63,-2752.3077463,-2752.3077463,-2752.3077463,-2752.3077463,-2752.30774
 63,-2752.3077463,-2752.3077463,-2752.3077463,-2752.3077463,-2752.30774
 63,-2752.3077463\MP4DQ=-2752.3035385,-2752.3035385,-2752.3035385,-2752
 .3035385,-2752.3035385,-2752.3035385,-2752.3035385,-2752.3035385,-2752
 .3035385,-2752.3035385,-2752.3035385,-2752.3035385,-2752.3035385,-2752
 .3035385,-2752.3035385,-2752.3035385,-2752.3035385,-2752.3035385,-2752
 .3035385,-2752.3035385,-2752.3035385\MP4SDQ=-2752.304612,-2752.304612,
 -2752.304612,-2752.304612,-2752.304612,-2752.304612,-2752.304612,-2752
 .304612,-2752.304612,-2752.304612,-2752.304612,-2752.304612,-2752.3046
 12,-2752.304612,-2752.304612,-2752.304612,-2752.304612,-2752.304612,-2
 752.304612,-2752.304612,-2752.304612\MP4SDTQ=-2752.3123106,-2752.31231
 06,-2752.3123106,-2752.3123106,-2752.3123106,-2752.3123106,-2752.31231
 06,-2752.3123106,-2752.3123106,-2752.3123106,-2752.3123106,-2752.31231
 06,-2752.3123106,-2752.3123106,-2752.3123106,-2752.3123106,-2752.31231
 06,-2752.3123106,-2752.3123106,-2752.3123106,-2752.3123106\RMSD=9.887e
 -10,1.149e-10,2.884e-11,7.209e-12,1.872e-12,4.658e-13,1.336e-13,3.258e
 -14,1.567e-14,1.279e-14,1.004e-14,1.554e-14,1.276e-14,5.290e-15,1.497e
 -14,1.636e-14,1.099e-14,6.212e-15,6.516e-15,1.024e-14,1.268e-14\PG=C01
  [X(H2Kr1O2)]\\@


 The lyf so short, the craft so long to lerne.
                             -- Chaucer
 Job cpu time:       0 days 20 hours 48 minutes  5.5 seconds.
 Elapsed time:       0 days  1 hours 19 minutes 14.2 seconds.
 File lengths (MBytes):  RWF=   4073 Int=      0 D2E=      0 Chk=     12 Scr=      1
 Normal termination of Gaussian 16 at Thu Apr  2 09:33:52 2020.
