 Entering Gaussian System, Link 0=g16
 Input=Inputs/H2O2-Kr_5.com
 Output=Logs/H2O2-Kr_5.log
 Initial command:
 /usr/local/g16/g16/l1.exe "/mnt/driveB/scratch/matheus/Gau-24714.inp" -scrdir="/mnt/driveB/scratch/matheus/"
 Entering Link 1 = /usr/local/g16/g16/l1.exe PID=     24716.
  
 Copyright (c) 1988,1990,1992,1993,1995,1998,2003,2009,2016,
            Gaussian, Inc.  All Rights Reserved.
  
 This is part of the Gaussian(R) 16 program.  It is based on
 the Gaussian(R) 09 system (copyright 2009, Gaussian, Inc.),
 the Gaussian(R) 03 system (copyright 2003, Gaussian, Inc.),
 the Gaussian(R) 98 system (copyright 1998, Gaussian, Inc.),
 the Gaussian(R) 94 system (copyright 1995, Gaussian, Inc.),
 the Gaussian 92(TM) system (copyright 1992, Gaussian, Inc.),
 the Gaussian 90(TM) system (copyright 1990, Gaussian, Inc.),
 the Gaussian 88(TM) system (copyright 1988, Gaussian, Inc.),
 the Gaussian 86(TM) system (copyright 1986, Carnegie Mellon
 University), and the Gaussian 82(TM) system (copyright 1983,
 Carnegie Mellon University). Gaussian is a federally registered
 trademark of Gaussian, Inc.
  
 This software contains proprietary and confidential information,
 including trade secrets, belonging to Gaussian, Inc.
  
 This software is provided under written license and may be
 used, copied, transmitted, or stored only in accord with that
 written license.
  
 The following legend is applicable only to US Government
 contracts under FAR:
  
                    RESTRICTED RIGHTS LEGEND
  
 Use, reproduction and disclosure by the US Government is
 subject to restrictions as set forth in subparagraphs (a)
 and (c) of the Commercial Computer Software - Restricted
 Rights clause in FAR 52.227-19.
  
 Gaussian, Inc.
 340 Quinnipiac St., Bldg. 40, Wallingford CT 06492
  
  
 ---------------------------------------------------------------
 Warning -- This program may not be used in any manner that
 competes with the business of Gaussian, Inc. or will provide
 assistance to any competitor of Gaussian, Inc.  The licensee
 of this program is prohibited from giving any competitor of
 Gaussian, Inc. access to this program.  By using this program,
 the user acknowledges that Gaussian, Inc. is engaged in the
 business of creating and licensing software in the field of
 computational chemistry and represents and warrants to the
 licensee that it is not a competitor of Gaussian, Inc. and that
 it will not use this program in any manner prohibited above.
 ---------------------------------------------------------------
  

 Cite this work as:
 Gaussian 16, Revision A.03,
 M. J. Frisch, G. W. Trucks, H. B. Schlegel, G. E. Scuseria, 
 M. A. Robb, J. R. Cheeseman, G. Scalmani, V. Barone, 
 G. A. Petersson, H. Nakatsuji, X. Li, M. Caricato, A. V. Marenich, 
 J. Bloino, B. G. Janesko, R. Gomperts, B. Mennucci, H. P. Hratchian, 
 J. V. Ortiz, A. F. Izmaylov, J. L. Sonnenberg, D. Williams-Young, 
 F. Ding, F. Lipparini, F. Egidi, J. Goings, B. Peng, A. Petrone, 
 T. Henderson, D. Ranasinghe, V. G. Zakrzewski, J. Gao, N. Rega, 
 G. Zheng, W. Liang, M. Hada, M. Ehara, K. Toyota, R. Fukuda, 
 J. Hasegawa, M. Ishida, T. Nakajima, Y. Honda, O. Kitao, H. Nakai, 
 T. Vreven, K. Throssell, J. A. Montgomery, Jr., J. E. Peralta, 
 F. Ogliaro, M. J. Bearpark, J. J. Heyd, E. N. Brothers, K. N. Kudin, 
 V. N. Staroverov, T. A. Keith, R. Kobayashi, J. Normand, 
 K. Raghavachari, A. P. Rendell, J. C. Burant, S. S. Iyengar, 
 J. Tomasi, M. Cossi, J. M. Millam, M. Klene, C. Adamo, R. Cammi, 
 J. W. Ochterski, R. L. Martin, K. Morokuma, O. Farkas, 
 J. B. Foresman, and D. J. Fox, Gaussian, Inc., Wallingford CT, 2016.
 
 ******************************************
 Gaussian 16:  ES64L-G16RevA.03 25-Dec-2016
                30-Mar-2020 
 ******************************************
 %mem=16GB
 %nproc=16
 Will use up to   16 processors via shared memory.
 ----------------------------------------------------
 #p mp4/aug-cc-PVTz int=ultrafine counterpoise=2 Scan
 ----------------------------------------------------
 1/38=1,60=1,62=2,172=1/1,8;
 2/12=2,17=6,18=5,29=3,40=1/2;
 1/38=1,53=2,62=2,63=1/22;
 3/5=16,6=1,7=10,11=9,25=1,30=1,75=-5/1,2,3;
 4//1;
 5/5=2,38=5/2;
 8/6=4,9=120000,10=1/1,4;
 9/5=5/13;
 6/7=2,8=2,9=2,10=2,18=1/1;
 1/53=2,62=2,63=1/22;
 3/5=7,6=11,7=10,11=9,25=1,30=1,75=-5,82=7/1,2,3;
 4//1;
 5/5=2,38=5/2;
 8/6=4,9=120000,10=1/1,4;
 9/5=5/13;
 6/7=2,8=2,9=2,10=2,18=1/1;
 1/53=2,62=2,63=1/22(-6);
 1/60=1,62=2/8(1);
 99/9=1/99;
 2/29=3/2;
 1/53=3,62=2,63=1/22;
 3/5=7,6=11,7=10,11=9,25=1,30=1,75=-5,82=7/1,2,3;
 4/5=5,16=3,69=1/1;
 5/5=2,38=5/2;
 8/6=4,9=120000,10=1/1,4;
 9/5=5/13;
 1/53=3,62=2,63=1/22(-5);
 1/60=1,62=2/8(-8);
 99/9=1/99;
 Leave Link    1 at Mon Mar 30 18:14:00 2020, MaxMem=  2147483648 cpu:               0.3 elap:               0.0
 (Enter /usr/local/g16/g16/l101.exe)
 ----
 PTCC
 ----
 Symbolic Z-matrix:
 Charge =  0 Multiplicity = 1 in supermolecule
 Charge =  0 Multiplicity = 1 in fragment      1.
 Charge =  0 Multiplicity = 1 in fragment      2.
 O(Fragment=1)         0.        0.        0.725 
 O(Fragment=1)         0.        0.       -0.725 
 H(Fragment=1)         0.70378   0.59054   1.02351 
 H(Fragment=1)         0.        0.91872  -1.02351 
 Kr(Fragment=2)        0.       R1        0. 
       Variables:
  R1                    3.     Scan 20    0.1    
 
 ITRead=  0  0  0  0  0
 MicOpt= -1 -1 -1 -1 -1
 NAtoms=      5 NQM=        5 NQMF=       0 NMMI=      0 NMMIF=      0
                NMic=       0 NMicF=      0.
                    Isotopes and Nuclear Properties:
 (Nuclear quadrupole moments (NQMom) in fm**2, nuclear magnetic moments (NMagM)
  in nuclear magnetons)

  Atom         1           2           3           4           5
 IAtWgt=          16          16           1           1          84
 AtmWgt=  15.9949146  15.9949146   1.0078250   1.0078250  83.9115064
 NucSpn=           0           0           1           1           0
 AtZEff=  -0.0000000  -0.0000000  -0.0000000  -0.0000000  -0.0000000
 NQMom=    0.0000000   0.0000000   0.0000000   0.0000000   0.0000000
 NMagM=    0.0000000   0.0000000   2.7928460   2.7928460   0.0000000
 AtZNuc=   8.0000000   8.0000000   1.0000000   1.0000000  36.0000000
 Leave Link  101 at Mon Mar 30 18:14:00 2020, MaxMem=  2147483648 cpu:               1.3 elap:               0.1
 (Enter /usr/local/g16/g16/l108.exe)
 Scan the potential surface.
 Variable   Value     No. Steps Step-Size
 -------- ----------- --------- ---------
     1       3.000000      20      0.1000
 A total of     21 points will be computed.
 Leave Link  108 at Mon Mar 30 18:14:00 2020, MaxMem=  2147483648 cpu:               0.0 elap:               0.0
 (Enter /usr/local/g16/g16/l202.exe)
 ---------------------------------------------------------------------------------------------------
                            Z-MATRIX (ANGSTROMS AND DEGREES)
   CD    Cent   Atom    N1       Length/X        N2       Alpha/Y        N3        Beta/Z          J
 ---------------------------------------------------------------------------------------------------
      1      1  O        0   0.000000          0.000000          0.725000
      2      2  O        0   0.000000          0.000000         -0.725000
      3      3  H        0   0.703781          0.590542          1.023510
      4      4  H        0   0.000000          0.918721         -1.023510
      5      5  Kr       0   0.000000          3.000000          0.000000
 ---------------------------------------------------------------------------------------------------
                         Z-Matrix orientation:                         
 ---------------------------------------------------------------------
 Center     Atomic      Atomic             Coordinates (Angstroms)
 Number     Number       Type             X           Y           Z
 ---------------------------------------------------------------------
      1          8           0        0.000000    0.000000    0.725000
      2          8           0        0.000000    0.000000   -0.725000
      3          1           0        0.703781    0.590542    1.023510
      4          1           0        0.000000    0.918721   -1.023510
      5         36           0        0.000000    3.000000    0.000000
 ---------------------------------------------------------------------
                    Distance matrix (angstroms):
                    1          2          3          4          5
     1  O    0.000000
     2  O    1.450000   0.000000
     3  H    0.966000   1.975180   0.000000
     4  H    1.975180   0.966000   2.189361   0.000000
     5  Kr   3.086361   3.086361   2.710787   2.319331   0.000000
 Stoichiometry    H2KrO2
 Framework group  C1[X(H2KrO2)]
 Deg. of freedom     9
 Full point group                 C1      NOp   1
 Largest Abelian subgroup         C1      NOp   1
 Largest concise Abelian subgroup C1      NOp   1
                         Standard orientation:                         
 ---------------------------------------------------------------------
 Center     Atomic      Atomic             Coordinates (Angstroms)
 Number     Number       Type             X           Y           Z
 ---------------------------------------------------------------------
      1          8           0        2.030392   -0.713331   -0.083900
      2          8           0        2.025023    0.733004    0.018989
      3          1           0        1.447943   -1.063593    0.602558
      4          1           0        1.105248    1.026723    0.048985
      5         36           0       -0.972125   -0.003348   -0.003674
 ---------------------------------------------------------------------
 Rotational constants (GHZ):          26.0306697           2.3732907           2.1836508
 Leave Link  202 at Mon Mar 30 18:14:00 2020, MaxMem=  2147483648 cpu:               0.0 elap:               0.0
 (Enter /usr/local/g16/g16/l122.exe)
 Counterpoise: doing full-system calculation.
 Leave Link  122 at Mon Mar 30 18:14:00 2020, MaxMem=  2147483648 cpu:               0.0 elap:               0.0
 (Enter /usr/local/g16/g16/l301.exe)
 Standard basis: Aug-CC-pVTZ (5D, 7F)
 Ernie: Thresh=  0.10000D-02 Tol=  0.10000D-05 Strict=F.
 Ernie:  38 primitive shells out of 205 were deleted.
 There are   229 symmetry adapted cartesian basis functions of A   symmetry.
 There are   197 symmetry adapted basis functions of A   symmetry.
   197 basis functions,   415 primitive gaussians,   229 cartesian basis functions
    27 alpha electrons       27 beta electrons
       nuclear repulsion energy       150.6503461374 Hartrees.
 IExCor=    0 DFT=F Ex=HF Corr=None ExCW=0 ScaHFX=  1.000000
 ScaDFX=  1.000000  1.000000  1.000000  1.000000 ScalE2=  1.000000  1.000000
 IRadAn=      5 IRanWt=     -1 IRanGd=            0 ICorTp=0 IEmpDi=  4
 NAtoms=    5 NActive=    5 NUniq=    5 SFac= 1.00D+00 NAtFMM=   60 NAOKFM=F Big=F
 Integral buffers will be    131072 words long.
 Raffenetti 1 integral format.
 Two-electron integral symmetry is turned on.
 Leave Link  301 at Mon Mar 30 18:14:00 2020, MaxMem=  2147483648 cpu:               0.3 elap:               0.0
 (Enter /usr/local/g16/g16/l302.exe)
 NPDir=0 NMtPBC=     1 NCelOv=     1 NCel=       1 NClECP=     1 NCelD=      1
         NCelK=      1 NCelE2=     1 NClLst=     1 CellRange=     0.0.
 One-electron integrals computed using PRISM.
 One-electron integral symmetry used in STVInt
 NBasis=   197 RedAO= T EigKep=  1.92D-04  NBF=   197
 NBsUse=   197 1.00D-06 EigRej= -1.00D+00 NBFU=   197
 Leave Link  302 at Mon Mar 30 18:14:00 2020, MaxMem=  2147483648 cpu:               1.7 elap:               0.1
 (Enter /usr/local/g16/g16/l303.exe)
 DipDrv:  MaxL=1.
 Leave Link  303 at Mon Mar 30 18:14:00 2020, MaxMem=  2147483648 cpu:               0.5 elap:               0.0
 (Enter /usr/local/g16/g16/l401.exe)
 ExpMin= 2.53D-02 ExpMax= 1.17D+07 ExpMxC= 1.33D+04 IAcc=3 IRadAn=         5 AccDes= 0.00D+00
 Harris functional with IExCor=  205 and IRadAn=       5 diagonalized for initial guess.
 HarFok:  IExCor=  205 AccDes= 0.00D+00 IRadAn=         5 IDoV= 1 UseB2=F ITyADJ=14
 ICtDFT=  3500011 ScaDFX=  1.000000  1.000000  1.000000  1.000000
 FoFCou: FMM=F IPFlag=           0 FMFlag=      100000 FMFlg1=           0
         NFxFlg=           0 DoJE=T BraDBF=F KetDBF=T FulRan=T
         wScrn=  0.000000 ICntrl=       500 IOpCl=  0 I1Cent=   200000004 NGrid=           0
         NMat0=    1 NMatS0=      1 NMatT0=    0 NMatD0=    1 NMtDS0=    0 NMtDT0=    0
 Petite list used in FoFCou.
 Harris En= -2901.98997438808    
 JPrj=0 DoOrth=F DoCkMO=F.
 Leave Link  401 at Mon Mar 30 18:14:00 2020, MaxMem=  2147483648 cpu:               3.2 elap:               0.2
 (Enter /usr/local/g16/g16/l502.exe)
 Keep R1 ints in memory in canonical form, NReq=203139133.
 FoFCou: FMM=F IPFlag=           0 FMFlag=           0 FMFlg1=           0
         NFxFlg=           0 DoJE=F BraDBF=F KetDBF=F FulRan=T
         wScrn=  0.000000 ICntrl=       600 IOpCl=  0 I1Cent=           0 NGrid=           0
         NMat0=    1 NMatS0=  19503 NMatT0=    0 NMatD0=    1 NMtDS0=    0 NMtDT0=    0
 Symmetry not used in FoFCou.
 Two-electron integral symmetry not used.
 Closed shell SCF:
 Using DIIS extrapolation, IDIIS=  1040.
 NGot=  2147483648 LenX=  1957179903 LenY=  1957127021
 Requested convergence on RMS density matrix=1.00D-08 within 128 cycles.
 Requested convergence on MAX density matrix=1.00D-06.
 Requested convergence on             energy=1.00D-06.
 No special actions if energy rises.

 Cycle   1  Pass 1  IDiag  1:
 E= -2902.76174304611    
 DIIS: error= 4.72D-02 at cycle   1 NSaved=   1.
 NSaved= 1 IEnMin= 1 EnMin= -2902.76174304611     IErMin= 1 ErrMin= 4.72D-02
 ErrMax= 4.72D-02  0.00D+00 EMaxC= 1.00D-01 BMatC= 6.63D-01 BMatP= 6.63D-01
 IDIUse=3 WtCom= 5.28D-01 WtEn= 4.72D-01
 Coeff-Com:  0.100D+01
 Coeff-En:   0.100D+01
 Coeff:      0.100D+01
 Gap=     0.695 Goal=   None    Shift=    0.000
 GapD=    0.695 DampG=2.000 DampE=0.500 DampFc=1.0000 IDamp=-1.
 RMSDP=2.00D-03 MaxDP=1.32D-01              OVMax= 5.64D-02

 Cycle   2  Pass 1  IDiag  1:
 E= -2902.85919768971     Delta-E=       -0.097454643595 Rises=F Damp=F
 DIIS: error= 6.95D-03 at cycle   2 NSaved=   2.
 NSaved= 2 IEnMin= 2 EnMin= -2902.85919768971     IErMin= 2 ErrMin= 6.95D-03
 ErrMax= 6.95D-03  0.00D+00 EMaxC= 1.00D-01 BMatC= 3.75D-02 BMatP= 6.63D-01
 IDIUse=3 WtCom= 9.31D-01 WtEn= 6.95D-02
 Coeff-Com:  0.141D+00 0.859D+00
 Coeff-En:   0.000D+00 0.100D+01
 Coeff:      0.131D+00 0.869D+00
 Gap=     0.529 Goal=   None    Shift=    0.000
 RMSDP=7.78D-04 MaxDP=3.72D-02 DE=-9.75D-02 OVMax= 2.76D-02

 Cycle   3  Pass 1  IDiag  1:
 E= -2902.87327883960     Delta-E=       -0.014081149889 Rises=F Damp=F
 DIIS: error= 2.60D-03 at cycle   3 NSaved=   3.
 NSaved= 3 IEnMin= 3 EnMin= -2902.87327883960     IErMin= 3 ErrMin= 2.60D-03
 ErrMax= 2.60D-03  0.00D+00 EMaxC= 1.00D-01 BMatC= 2.87D-03 BMatP= 3.75D-02
 IDIUse=3 WtCom= 9.74D-01 WtEn= 2.60D-02
 Coeff-Com: -0.603D-02 0.196D+00 0.810D+00
 Coeff-En:   0.000D+00 0.000D+00 0.100D+01
 Coeff:     -0.587D-02 0.191D+00 0.815D+00
 Gap=     0.501 Goal=   None    Shift=    0.000
 RMSDP=1.40D-04 MaxDP=4.88D-03 DE=-1.41D-02 OVMax= 8.65D-03

 Cycle   4  Pass 1  IDiag  1:
 E= -2902.87476540782     Delta-E=       -0.001486568226 Rises=F Damp=F
 DIIS: error= 3.53D-04 at cycle   4 NSaved=   4.
 NSaved= 4 IEnMin= 4 EnMin= -2902.87476540782     IErMin= 4 ErrMin= 3.53D-04
 ErrMax= 3.53D-04  0.00D+00 EMaxC= 1.00D-01 BMatC= 5.09D-05 BMatP= 2.87D-03
 IDIUse=3 WtCom= 9.96D-01 WtEn= 3.53D-03
 Coeff-Com: -0.421D-02 0.141D-01 0.143D+00 0.847D+00
 Coeff-En:   0.000D+00 0.000D+00 0.000D+00 0.100D+01
 Coeff:     -0.420D-02 0.140D-01 0.142D+00 0.848D+00
 Gap=     0.505 Goal=   None    Shift=    0.000
 RMSDP=2.34D-05 MaxDP=6.73D-04 DE=-1.49D-03 OVMax= 1.78D-03

 Cycle   5  Pass 1  IDiag  1:
 E= -2902.87480911285     Delta-E=       -0.000043705032 Rises=F Damp=F
 DIIS: error= 1.18D-04 at cycle   5 NSaved=   5.
 NSaved= 5 IEnMin= 5 EnMin= -2902.87480911285     IErMin= 5 ErrMin= 1.18D-04
 ErrMax= 1.18D-04  0.00D+00 EMaxC= 1.00D-01 BMatC= 3.88D-06 BMatP= 5.09D-05
 IDIUse=3 WtCom= 9.99D-01 WtEn= 1.18D-03
 Coeff-Com:  0.905D-03-0.170D-01-0.719D-01-0.527D-02 0.109D+01
 Coeff-En:   0.000D+00 0.000D+00 0.000D+00 0.000D+00 0.100D+01
 Coeff:      0.904D-03-0.169D-01-0.719D-01-0.526D-02 0.109D+01
 Gap=     0.505 Goal=   None    Shift=    0.000
 RMSDP=1.17D-05 MaxDP=3.43D-04 DE=-4.37D-05 OVMax= 7.86D-04

 Cycle   6  Pass 1  IDiag  1:
 E= -2902.87481518605     Delta-E=       -0.000006073193 Rises=F Damp=F
 DIIS: error= 3.09D-05 at cycle   6 NSaved=   6.
 NSaved= 6 IEnMin= 6 EnMin= -2902.87481518605     IErMin= 6 ErrMin= 3.09D-05
 ErrMax= 3.09D-05  0.00D+00 EMaxC= 1.00D-01 BMatC= 2.66D-07 BMatP= 3.88D-06
 IDIUse=1 WtCom= 1.00D+00 WtEn= 0.00D+00
 Coeff-Com:  0.206D-03-0.333D-03-0.772D-02-0.559D-01-0.538D-02 0.107D+01
 Coeff:      0.206D-03-0.333D-03-0.772D-02-0.559D-01-0.538D-02 0.107D+01
 Gap=     0.505 Goal=   None    Shift=    0.000
 RMSDP=3.59D-06 MaxDP=1.20D-04 DE=-6.07D-06 OVMax= 2.76D-04

 Cycle   7  Pass 1  IDiag  1:
 E= -2902.87481573635     Delta-E=       -0.000000550307 Rises=F Damp=F
 DIIS: error= 1.05D-05 at cycle   7 NSaved=   7.
 NSaved= 7 IEnMin= 7 EnMin= -2902.87481573635     IErMin= 7 ErrMin= 1.05D-05
 ErrMax= 1.05D-05  0.00D+00 EMaxC= 1.00D-01 BMatC= 4.25D-08 BMatP= 2.66D-07
 IDIUse=1 WtCom= 1.00D+00 WtEn= 0.00D+00
 Coeff-Com: -0.360D-04 0.145D-02 0.492D-02-0.103D-01-0.993D-01 0.175D+00
 Coeff-Com:  0.928D+00
 Coeff:     -0.360D-04 0.145D-02 0.492D-02-0.103D-01-0.993D-01 0.175D+00
 Coeff:      0.928D+00
 Gap=     0.505 Goal=   None    Shift=    0.000
 RMSDP=1.31D-06 MaxDP=4.89D-05 DE=-5.50D-07 OVMax= 1.10D-04

 Cycle   8  Pass 1  IDiag  1:
 E= -2902.87481581289     Delta-E=       -0.000000076534 Rises=F Damp=F
 DIIS: error= 5.74D-06 at cycle   8 NSaved=   8.
 NSaved= 8 IEnMin= 8 EnMin= -2902.87481581289     IErMin= 8 ErrMin= 5.74D-06
 ErrMax= 5.74D-06  0.00D+00 EMaxC= 1.00D-01 BMatC= 9.09D-09 BMatP= 4.25D-08
 IDIUse=1 WtCom= 1.00D+00 WtEn= 0.00D+00
 Coeff-Com: -0.338D-04 0.312D-03 0.212D-02 0.672D-02-0.210D-01-0.137D+00
 Coeff-Com:  0.251D+00 0.899D+00
 Coeff:     -0.338D-04 0.312D-03 0.212D-02 0.672D-02-0.210D-01-0.137D+00
 Coeff:      0.251D+00 0.899D+00
 Gap=     0.505 Goal=   None    Shift=    0.000
 RMSDP=6.29D-07 MaxDP=2.06D-05 DE=-7.65D-08 OVMax= 5.78D-05

 Cycle   9  Pass 1  IDiag  1:
 E= -2902.87481582938     Delta-E=       -0.000000016497 Rises=F Damp=F
 DIIS: error= 1.75D-06 at cycle   9 NSaved=   9.
 NSaved= 9 IEnMin= 9 EnMin= -2902.87481582938     IErMin= 9 ErrMin= 1.75D-06
 ErrMax= 1.75D-06  0.00D+00 EMaxC= 1.00D-01 BMatC= 8.85D-10 BMatP= 9.09D-09
 IDIUse=1 WtCom= 1.00D+00 WtEn= 0.00D+00
 Coeff-Com:  0.106D-04-0.266D-03-0.113D-02-0.253D-03 0.174D-01 0.147D-01
 Coeff-Com: -0.187D+00-0.264D+00 0.142D+01
 Coeff:      0.106D-04-0.266D-03-0.113D-02-0.253D-03 0.174D-01 0.147D-01
 Coeff:     -0.187D+00-0.264D+00 0.142D+01
 Gap=     0.505 Goal=   None    Shift=    0.000
 RMSDP=3.11D-07 MaxDP=7.12D-06 DE=-1.65D-08 OVMax= 3.83D-05

 Cycle  10  Pass 1  IDiag  1:
 E= -2902.87481583290     Delta-E=       -0.000000003521 Rises=F Damp=F
 DIIS: error= 6.26D-07 at cycle  10 NSaved=  10.
 NSaved=10 IEnMin=10 EnMin= -2902.87481583290     IErMin=10 ErrMin= 6.26D-07
 ErrMax= 6.26D-07  0.00D+00 EMaxC= 1.00D-01 BMatC= 8.94D-11 BMatP= 8.85D-10
 IDIUse=1 WtCom= 1.00D+00 WtEn= 0.00D+00
 Coeff-Com:  0.106D-05 0.630D-04 0.124D-03-0.982D-03-0.336D-02 0.128D-01
 Coeff-Com:  0.391D-01-0.165D-01-0.523D+00 0.149D+01
 Coeff:      0.106D-05 0.630D-04 0.124D-03-0.982D-03-0.336D-02 0.128D-01
 Coeff:      0.391D-01-0.165D-01-0.523D+00 0.149D+01
 Gap=     0.505 Goal=   None    Shift=    0.000
 RMSDP=1.11D-07 MaxDP=2.90D-06 DE=-3.52D-09 OVMax= 1.49D-05

 Cycle  11  Pass 1  IDiag  1:
 E= -2902.87481583327     Delta-E=       -0.000000000367 Rises=F Damp=F
 DIIS: error= 1.21D-07 at cycle  11 NSaved=  11.
 NSaved=11 IEnMin=11 EnMin= -2902.87481583327     IErMin=11 ErrMin= 1.21D-07
 ErrMax= 1.21D-07  0.00D+00 EMaxC= 1.00D-01 BMatC= 4.69D-12 BMatP= 8.94D-11
 IDIUse=1 WtCom= 1.00D+00 WtEn= 0.00D+00
 Coeff-Com: -0.983D-06-0.973D-06 0.408D-04 0.370D-03-0.404D-03-0.508D-02
 Coeff-Com:  0.498D-02 0.257D-01 0.153D-01-0.314D+00 0.127D+01
 Coeff:     -0.983D-06-0.973D-06 0.408D-04 0.370D-03-0.404D-03-0.508D-02
 Coeff:      0.498D-02 0.257D-01 0.153D-01-0.314D+00 0.127D+01
 Gap=     0.505 Goal=   None    Shift=    0.000
 RMSDP=2.10D-08 MaxDP=4.89D-07 DE=-3.67D-10 OVMax= 2.43D-06

 Cycle  12  Pass 1  IDiag  1:
 E= -2902.87481583328     Delta-E=       -0.000000000012 Rises=F Damp=F
 DIIS: error= 4.25D-08 at cycle  12 NSaved=  12.
 NSaved=12 IEnMin=12 EnMin= -2902.87481583328     IErMin=12 ErrMin= 4.25D-08
 ErrMax= 4.25D-08  0.00D+00 EMaxC= 1.00D-01 BMatC= 4.48D-13 BMatP= 4.69D-12
 IDIUse=1 WtCom= 1.00D+00 WtEn= 0.00D+00
 Coeff-Com: -0.962D-07-0.692D-05-0.151D-04 0.121D-03 0.354D-03-0.169D-02
 Coeff-Com: -0.342D-02 0.377D-02 0.468D-01-0.143D+00-0.347D-01 0.113D+01
 Coeff:     -0.962D-07-0.692D-05-0.151D-04 0.121D-03 0.354D-03-0.169D-02
 Coeff:     -0.342D-02 0.377D-02 0.468D-01-0.143D+00-0.347D-01 0.113D+01
 Gap=     0.505 Goal=   None    Shift=    0.000
 RMSDP=6.08D-09 MaxDP=1.38D-07 DE=-1.18D-11 OVMax= 5.71D-07

 SCF Done:  E(RHF) =  -2902.87481583     A.U. after   12 cycles
            NFock= 12  Conv=0.61D-08     -V/T= 2.0001
 KE= 2.902652819355D+03 PE=-7.241190206821D+03 EE= 1.285012225494D+03
 Leave Link  502 at Mon Mar 30 18:14:04 2020, MaxMem=  2147483648 cpu:              27.6 elap:               3.5
 (Enter /usr/local/g16/g16/l801.exe)
 Windowed orbitals will be sorted by symmetry type.
 ExpMin= 2.53D-02 ExpMax= 1.17D+07 ExpMxC= 1.33D+04 IAcc=3 IRadAn=         5 AccDes= 0.00D+00
 HarFok:  IExCor=  205 AccDes= 0.00D+00 IRadAn=         5 IDoV=-2 UseB2=F ITyADJ=14
 ICtDFT= 12500011 ScaDFX=  1.000000  1.000000  1.000000  1.000000
 Largest valence mixing into a core orbital is  1.17D-04
 Largest core mixing into a valence orbital is  3.83D-05
 Range of M.O.s used for correlation:    12   197
 NBasis=   197 NAE=    27 NBE=    27 NFC=    11 NFV=     0
 NROrb=    186 NOA=    16 NOB=    16 NVA=   170 NVB=   170

 **** Warning!!: The largest alpha MO coefficient is  0.16319765D+02

 Leave Link  801 at Mon Mar 30 18:14:04 2020, MaxMem=  2147483648 cpu:               0.6 elap:               0.0
 (Enter /usr/local/g16/g16/l804.exe)
 Closed-shell transformation, MDV=  2147483648 ITran=4 ISComp=1.
 Unit  1 TFree=       1248993 TCopy=        808885.
 Semi-Direct transformation.
 ModeAB=           2 MOrb=            16 LenV=    2146359634
 LASXX=     48528660 LTotXX=    48528660 LenRXX=    48528660
 LTotAB=    49298776 MaxLAS=    78372960 LenRXY=    78372960
 NonZer=    97057320 LenScr=   146313216 LnRSAI=           0
 LnScr1=           0 LExtra=           0 Total=    273214836
 MaxDsk=          -1 SrtSym=           F ITran=            4
 DoSDTr:  NPSUse= 16
 JobTyp=0 Pass  1:  I=   1 to  16.
 (rs|ai) integrals will be sorted in core.
 Complete sort for first half transformation.
 First half transformation complete.
 Begin second half transformation for I=  10.
 Begin second half transformation for I=  10.
 Complete sort for second half transformation.
 Second half transformation complete.
 SymMOI:  orbitals are not symmetric.
 Spin components of T(2) and E(2):
     alpha-alpha T2 =       0.2612447393D-01 E2=     -0.1002849260D+00
     alpha-beta  T2 =       0.1423492465D+00 E2=     -0.5575472550D+00
     beta-beta   T2 =       0.2612447393D-01 E2=     -0.1002849260D+00
 ANorm=    0.1092976758D+01
 E2 =    -0.7581171070D+00 EUMP2 =    -0.29036329329403D+04
 Leave Link  804 at Mon Mar 30 18:14:15 2020, MaxMem=  2147483648 cpu:             179.5 elap:              11.2
 (Enter /usr/local/g16/g16/l913.exe)
 CIDS:  MDV=  2147483648.
 Frozen-core window:  NFC=  11 NFV=   0.
 IFCWin=0 IBDFC=1 NFBD=     0     0 NFCmp=     0     0 NFFFC=     0     0
 Using DD3R+UMP44R for 1st iteration.
 Using DD4RQ for 2nd and later iterations.
 Keep R2 and R3 ints in memory in canonical form, NReq=393340618.
 FoFCou: FMM=F IPFlag=           0 FMFlag=           0 FMFlg1=           0
         NFxFlg=           0 DoJE=F BraDBF=F KetDBF=F FulRan=T
         wScrn=  0.000000 ICntrl=       600 IOpCl=  0 I1Cent=           0 NGrid=           0
         NMat0=    1 NMatS0=  19503 NMatT0=    0 NMatD0=    1 NMtDS0=    0 NMtDT0=    0
 Symmetry not used in FoFCou.
 Two-electron integral symmetry not used.
 CIDS: In Core Option IDoMem=           1.
 MP4(SDTQ)
 =========
 Produce multiple copies of IABC intergrals
 DD1Dir will call FoFMem   1 times, MxPair=       272
 NAB=   136 NAA=     0 NBB=     0.
 MP4(D)= -0.14947108D-01
 MP4(S)= -0.65458450D-02
 MP4(R+Q)=  0.15566349D-01
 T4(AAA)= -0.10614819D-02
 T4(AAB)= -0.14321127D-01
 Time for triples=     1763.02 seconds.
 MP4(T)=   -0.30765218D-01
 E3=       -0.11087441D-01        EUMP3=      -0.29036440204D+04
 E4(DQ)=    0.61924139D-03        UMP4(DQ)=   -0.29036434011D+04
 E4(SDQ)=  -0.59266036D-02        UMP4(SDQ)=  -0.29036499470D+04
 E4(SDTQ)= -0.36691822D-01        UMP4(SDTQ)= -0.29036807122D+04
 VARIATIONAL ENERGIES WITH THE FIRST-ORDER WAVEFUNCTION:
 E(VAR1)=  -0.29035187182D+04     E(CISD,4)=  -0.29035179851D+04
 Largest amplitude= 4.42D-02
 Discarding MO integrals.
 Leave Link  913 at Mon Mar 30 18:16:13 2020, MaxMem=  2147483648 cpu:            1884.8 elap:             118.0
 (Enter /usr/local/g16/g16/l601.exe)
 Copying SCF densities to generalized density rwf, IOpCl= 0 IROHF=0.

 **********************************************************************

            Population analysis using the SCF density.

 **********************************************************************

 Orbital symmetries:
       Occupied  (A) (A) (A) (A) (A) (A) (A) (A) (A) (A) (A) (A)
                 (A) (A) (A) (A) (A) (A) (A) (A) (A) (A) (A) (A)
                 (A) (A) (A)
       Virtual   (A) (A) (A) (A) (A) (A) (A) (A) (A) (A) (A) (A)
                 (A) (A) (A) (A) (A) (A) (A) (A) (A) (A) (A) (A)
                 (A) (A) (A) (A) (A) (A) (A) (A) (A) (A) (A) (A)
                 (A) (A) (A) (A) (A) (A) (A) (A) (A) (A) (A) (A)
                 (A) (A) (A) (A) (A) (A) (A) (A) (A) (A) (A) (A)
                 (A) (A) (A) (A) (A) (A) (A) (A) (A) (A) (A) (A)
                 (A) (A) (A) (A) (A) (A) (A) (A) (A) (A) (A) (A)
                 (A) (A) (A) (A) (A) (A) (A) (A) (A) (A) (A) (A)
                 (A) (A) (A) (A) (A) (A) (A) (A) (A) (A) (A) (A)
                 (A) (A) (A) (A) (A) (A) (A) (A) (A) (A) (A) (A)
                 (A) (A) (A) (A) (A) (A) (A) (A) (A) (A) (A) (A)
                 (A) (A) (A) (A) (A) (A) (A) (A) (A) (A) (A) (A)
                 (A) (A) (A) (A) (A) (A) (A) (A) (A) (A) (A) (A)
                 (A) (A) (A) (A) (A) (A) (A) (A) (A) (A) (A) (A)
                 (A) (A)
 The electronic state is 1-A.
 Alpha  occ. eigenvalues -- -520.19249 -69.93006 -63.03663 -63.03662 -63.03659
 Alpha  occ. eigenvalues --  -20.62988 -20.62755 -10.87672  -8.35889  -8.35874
 Alpha  occ. eigenvalues --   -8.35856  -3.85268  -3.85266  -3.85244  -3.85230
 Alpha  occ. eigenvalues --   -3.85225  -1.46854  -1.21686  -1.18321  -0.76092
 Alpha  occ. eigenvalues --   -0.65838  -0.60018  -0.56326  -0.55162  -0.54584
 Alpha  occ. eigenvalues --   -0.53247  -0.47013
 Alpha virt. eigenvalues --    0.03533   0.04568   0.08585   0.09518   0.11517
 Alpha virt. eigenvalues --    0.13149   0.14431   0.15755   0.18200   0.18900
 Alpha virt. eigenvalues --    0.19169   0.21040   0.22568   0.25938   0.26379
 Alpha virt. eigenvalues --    0.27210   0.28281   0.31244   0.34138   0.34743
 Alpha virt. eigenvalues --    0.35417   0.37304   0.40014   0.41215   0.42373
 Alpha virt. eigenvalues --    0.44957   0.46925   0.51297   0.56944   0.58594
 Alpha virt. eigenvalues --    0.62147   0.64047   0.66018   0.69077   0.72813
 Alpha virt. eigenvalues --    0.73832   0.76484   0.79123   0.81198   0.82415
 Alpha virt. eigenvalues --    0.83256   0.83632   0.85125   0.87165   0.89752
 Alpha virt. eigenvalues --    0.91365   0.92494   0.94114   0.95576   0.97648
 Alpha virt. eigenvalues --    0.99228   1.01227   1.02682   1.04656   1.05772
 Alpha virt. eigenvalues --    1.07221   1.10296   1.13508   1.14037   1.18395
 Alpha virt. eigenvalues --    1.19783   1.22569   1.25385   1.29601   1.32005
 Alpha virt. eigenvalues --    1.37168   1.44289   1.46330   1.49673   1.50359
 Alpha virt. eigenvalues --    1.54385   1.56945   1.59769   1.64040   1.69337
 Alpha virt. eigenvalues --    1.77242   1.81152   1.97086   2.04978   2.07691
 Alpha virt. eigenvalues --    2.15595   2.21595   2.24161   2.26673   2.31268
 Alpha virt. eigenvalues --    2.33902   2.36118   2.36997   2.41543   2.43625
 Alpha virt. eigenvalues --    2.46179   2.46952   2.48544   2.51655   2.52386
 Alpha virt. eigenvalues --    2.56095   2.59097   2.63022   2.65532   2.67748
 Alpha virt. eigenvalues --    2.68663   2.69994   2.72404   2.73621   2.76161
 Alpha virt. eigenvalues --    2.77843   2.79058   2.83643   2.87988   2.89991
 Alpha virt. eigenvalues --    2.93035   2.96259   2.99232   3.06505   3.08438
 Alpha virt. eigenvalues --    3.13177   3.19927   3.30221   3.31206   3.83001
 Alpha virt. eigenvalues --    3.88378   4.17410   4.21649   4.24523   4.25979
 Alpha virt. eigenvalues --    4.32800   4.39885   4.44422   4.45767   4.49514
 Alpha virt. eigenvalues --    4.62502   4.74252   4.90490   4.90782   4.95359
 Alpha virt. eigenvalues --    5.21715   5.26697   5.28542   5.32948   5.42178
 Alpha virt. eigenvalues --    5.43920   5.80312   6.18024   6.35986   6.45772
 Alpha virt. eigenvalues --    6.46939   6.64866   6.73397   6.74848   6.88091
 Alpha virt. eigenvalues --    7.01059   7.14801   7.18046   7.21494   7.22709
 Alpha virt. eigenvalues --    7.25575   7.26414   7.30476   7.32547   7.41262
 Alpha virt. eigenvalues --    7.50919   7.55254   7.61817   7.85815   7.88688
 Alpha virt. eigenvalues --    8.27834   8.45512   8.55877  14.67455  15.32531
          Condensed to atoms (all electrons):
               1          2          3          4          5
     1  O    8.141022  -0.093381   0.231238   0.003833  -0.020441
     2  O   -0.093381   8.147153   0.014339   0.236703  -0.014855
     3  H    0.231238   0.014339   0.497675  -0.005923  -0.000498
     4  H    0.003833   0.236703  -0.005923   0.497552  -0.008483
     5  Kr  -0.020441  -0.014855  -0.000498  -0.008483  36.031534
 Mulliken charges:
               1
     1  O   -0.262270
     2  O   -0.289959
     3  H    0.263169
     4  H    0.276318
     5  Kr   0.012743
 Sum of Mulliken charges =  -0.00000
 Mulliken charges with hydrogens summed into heavy atoms:
               1
     1  O    0.000899
     2  O   -0.013642
     5  Kr   0.012743
         Mulliken charges condensed to fragments:
      1     -0.012743
      2      0.012743
 Electronic spatial extent (au):  <R**2>=            478.6107
 Charge=             -0.0000 electrons
 Dipole moment (field-independent basis, Debye):
    X=             -3.0087    Y=             -0.2093    Z=              1.1257  Tot=              3.2192
 Quadrupole moment (field-independent basis, Debye-Ang):
   XX=            -38.3058   YY=            -27.9214   ZZ=            -29.4517
   XY=             -0.8381   XZ=              1.6581   YZ=             -1.4514
 Traceless Quadrupole moment (field-independent basis, Debye-Ang):
   XX=             -6.4128   YY=              3.9716   ZZ=              2.4412
   XY=             -0.8381   XZ=              1.6581   YZ=             -1.4514
 Octapole moment (field-independent basis, Debye-Ang**2):
  XXX=            -43.0239  YYY=             -0.5598  ZZZ=              0.5666  XYY=             -6.7345
  XXY=             -2.1267  XXZ=              1.5368  XZZ=             -6.7577  YZZ=             -1.1072
  YYZ=              1.7517  XYZ=             -2.1220
 Hexadecapole moment (field-independent basis, Debye-Ang**3):
 XXXX=           -460.8849 YYYY=            -62.2412 ZZZZ=            -28.8523 XXXY=             -3.0581
 XXXZ=              1.5186 YYYX=             -1.5980 YYYZ=             -2.0912 ZZZX=              1.2318
 ZZZY=             -1.2596 XXYY=            -84.7364 XXZZ=            -73.8463 YYZZ=            -16.0941
 XXYZ=             -3.1780 YYXZ=              2.5580 ZZXY=             -1.6507
 N-N= 1.506503461374D+02 E-N=-7.241190207200D+03  KE= 2.902652819355D+03
 Leave Link  601 at Mon Mar 30 18:16:14 2020, MaxMem=  2147483648 cpu:               0.5 elap:               0.0
 (Enter /usr/local/g16/g16/l122.exe)
 CPIOFr:  IOpCl= 0 IRwI=-1 IRwCP=  731 ICalc= -1 LCPTot=       59414 Len1MO=      159453 IndFrg=       59414
 CPIOFr:  IOpCl= 0 IRwI=-1 IRwCP=  731 ICalc=  0 LCPTot=       59414 Len1MO=      159453 IndFrg=      218867
 Counterpoise: doing calculation for fragment   1 using the basis set of the full-system, NewBq=T
 Leave Link  122 at Mon Mar 30 18:16:14 2020, MaxMem=  2147483648 cpu:               0.0 elap:               0.0
 (Enter /usr/local/g16/g16/l301.exe)
 Basis read from rwf:  (5D, 7F)
 No pseudopotential information found on rwf file.
 There are   229 symmetry adapted cartesian basis functions of A   symmetry.
 There are   197 symmetry adapted basis functions of A   symmetry.
   197 basis functions,   415 primitive gaussians,   229 cartesian basis functions
     9 alpha electrons        9 beta electrons
       nuclear repulsion energy        36.6499455753 Hartrees.
 IExCor=    0 DFT=F Ex=HF Corr=None ExCW=0 ScaHFX=  1.000000
 ScaDFX=  1.000000  1.000000  1.000000  1.000000 ScalE2=  1.000000  1.000000
 IRadAn=      5 IRanWt=     -1 IRanGd=            0 ICorTp=0 IEmpDi=  4
 NAtoms=    5 NActive=    5 NUniq=    5 SFac= 1.00D+00 NAtFMM=   60 NAOKFM=F Big=F
 Integral buffers will be    131072 words long.
 Raffenetti 1 integral format.
 Two-electron integral symmetry is turned on.
 No density basis found on file   718.
 Leave Link  301 at Mon Mar 30 18:16:14 2020, MaxMem=  2147483648 cpu:               0.4 elap:               0.0
 (Enter /usr/local/g16/g16/l302.exe)
 NPDir=0 NMtPBC=     1 NCelOv=     1 NCel=       1 NClECP=     1 NCelD=      1
         NCelK=      1 NCelE2=     1 NClLst=     1 CellRange=     0.0.
 One-electron integrals computed using PRISM.
 One-electron integral symmetry used in STVInt
 NBasis=   197 RedAO= T EigKep=  1.92D-04  NBF=   197
 NBsUse=   197 1.00D-06 EigRej= -1.00D+00 NBFU=   197
 Leave Link  302 at Mon Mar 30 18:16:14 2020, MaxMem=  2147483648 cpu:               1.7 elap:               0.1
 (Enter /usr/local/g16/g16/l303.exe)
 DipDrv:  MaxL=1.
 Leave Link  303 at Mon Mar 30 18:16:14 2020, MaxMem=  2147483648 cpu:               0.4 elap:               0.0
 (Enter /usr/local/g16/g16/l401.exe)
 ExpMin= 2.53D-02 ExpMax= 1.17D+07 ExpMxC= 1.33D+04 IAcc=3 IRadAn=         5 AccDes= 0.00D+00
 Harris functional with IExCor=  205 and IRadAn=       5 diagonalized for initial guess.
 HarFok:  IExCor=  205 AccDes= 0.00D+00 IRadAn=         5 IDoV= 1 UseB2=F ITyADJ=14
 ICtDFT=  3500011 ScaDFX=  1.000000  1.000000  1.000000  1.000000
 FoFCou: FMM=F IPFlag=           0 FMFlag=      100000 FMFlg1=           0
         NFxFlg=           0 DoJE=T BraDBF=F KetDBF=T FulRan=T
         wScrn=  0.000000 ICntrl=       500 IOpCl=  0 I1Cent=   200000004 NGrid=           0
         NMat0=    1 NMatS0=      1 NMatT0=    0 NMatD0=    1 NMtDS0=    0 NMtDT0=    0
 Petite list used in FoFCou.
 Harris En= -150.934687673131    
 JPrj=0 DoOrth=F DoCkMO=F.
 Leave Link  401 at Mon Mar 30 18:16:14 2020, MaxMem=  2147483648 cpu:               3.1 elap:               0.2
 (Enter /usr/local/g16/g16/l502.exe)
 Keep R1 ints in memory in canonical form, NReq=203139133.
 FoFCou: FMM=F IPFlag=           0 FMFlag=           0 FMFlg1=           0
         NFxFlg=           0 DoJE=F BraDBF=F KetDBF=F FulRan=T
         wScrn=  0.000000 ICntrl=       600 IOpCl=  0 I1Cent=           0 NGrid=           0
         NMat0=    1 NMatS0=  19503 NMatT0=    0 NMatD0=    1 NMtDS0=    0 NMtDT0=    0
 Symmetry not used in FoFCou.
 Two-electron integral symmetry not used.
 Closed shell SCF:
 Using DIIS extrapolation, IDIIS=  1040.
 NGot=  2147483648 LenX=  1957179903 LenY=  1957127021
 Requested convergence on RMS density matrix=1.00D-08 within 128 cycles.
 Requested convergence on MAX density matrix=1.00D-06.
 Requested convergence on             energy=1.00D-06.
 No special actions if energy rises.

 Cycle   1  Pass 1  IDiag  1:
 E= -150.767586461320    
 DIIS: error= 2.45D-02 at cycle   1 NSaved=   1.
 NSaved= 1 IEnMin= 1 EnMin= -150.767586461320     IErMin= 1 ErrMin= 2.45D-02
 ErrMax= 2.45D-02  0.00D+00 EMaxC= 1.00D-01 BMatC= 2.30D-01 BMatP= 2.30D-01
 IDIUse=3 WtCom= 7.55D-01 WtEn= 2.45D-01
 Coeff-Com:  0.100D+01
 Coeff-En:   0.100D+01
 Coeff:      0.100D+01
 Gap=     0.700 Goal=   None    Shift=    0.000
 GapD=    0.700 DampG=2.000 DampE=0.500 DampFc=1.0000 IDamp=-1.
 RMSDP=9.02D-04 MaxDP=2.88D-02              OVMax= 6.70D-02

 Cycle   2  Pass 1  IDiag  1:
 E= -150.821891021853     Delta-E=       -0.054304560533 Rises=F Damp=F
 DIIS: error= 6.17D-03 at cycle   2 NSaved=   2.
 NSaved= 2 IEnMin= 2 EnMin= -150.821891021853     IErMin= 2 ErrMin= 6.17D-03
 ErrMax= 6.17D-03  0.00D+00 EMaxC= 1.00D-01 BMatC= 1.72D-02 BMatP= 2.30D-01
 IDIUse=3 WtCom= 9.38D-01 WtEn= 6.17D-02
 Coeff-Com:  0.113D+00 0.887D+00
 Coeff-En:   0.000D+00 0.100D+01
 Coeff:      0.106D+00 0.894D+00
 Gap=     0.526 Goal=   None    Shift=    0.000
 RMSDP=5.20D-04 MaxDP=2.53D-02 DE=-5.43D-02 OVMax= 2.93D-02

 Cycle   3  Pass 1  IDiag  1:
 E= -150.830684128897     Delta-E=       -0.008793107044 Rises=F Damp=F
 DIIS: error= 2.85D-03 at cycle   3 NSaved=   3.
 NSaved= 3 IEnMin= 3 EnMin= -150.830684128897     IErMin= 3 ErrMin= 2.85D-03
 ErrMax= 2.85D-03  0.00D+00 EMaxC= 1.00D-01 BMatC= 2.42D-03 BMatP= 1.72D-02
 IDIUse=3 WtCom= 9.72D-01 WtEn= 2.85D-02
 Coeff-Com: -0.211D-01 0.251D+00 0.770D+00
 Coeff-En:   0.000D+00 0.000D+00 0.100D+01
 Coeff:     -0.205D-01 0.244D+00 0.776D+00
 Gap=     0.497 Goal=   None    Shift=    0.000
 RMSDP=1.18D-04 MaxDP=4.32D-03 DE=-8.79D-03 OVMax= 9.60D-03

 Cycle   4  Pass 1  IDiag  1:
 E= -150.832203132102     Delta-E=       -0.001519003205 Rises=F Damp=F
 DIIS: error= 2.27D-04 at cycle   4 NSaved=   4.
 NSaved= 4 IEnMin= 4 EnMin= -150.832203132102     IErMin= 4 ErrMin= 2.27D-04
 ErrMax= 2.27D-04  0.00D+00 EMaxC= 1.00D-01 BMatC= 1.57D-05 BMatP= 2.42D-03
 IDIUse=3 WtCom= 9.98D-01 WtEn= 2.27D-03
 Coeff-Com: -0.184D-02-0.109D-01 0.656D-02 0.101D+01
 Coeff-En:   0.000D+00 0.000D+00 0.000D+00 0.100D+01
 Coeff:     -0.183D-02-0.109D-01 0.654D-02 0.101D+01
 Gap=     0.498 Goal=   None    Shift=    0.000
 RMSDP=1.78D-05 MaxDP=4.73D-04 DE=-1.52D-03 OVMax= 1.42D-03

 Cycle   5  Pass 1  IDiag  1:
 E= -150.832226112238     Delta-E=       -0.000022980136 Rises=F Damp=F
 DIIS: error= 8.28D-05 at cycle   5 NSaved=   5.
 NSaved= 5 IEnMin= 5 EnMin= -150.832226112238     IErMin= 5 ErrMin= 8.28D-05
 ErrMax= 8.28D-05  0.00D+00 EMaxC= 1.00D-01 BMatC= 1.60D-06 BMatP= 1.57D-05
 IDIUse=1 WtCom= 1.00D+00 WtEn= 0.00D+00
 Coeff-Com:  0.175D-02-0.168D-01-0.588D-01-0.162D+00 0.124D+01
 Coeff:      0.175D-02-0.168D-01-0.588D-01-0.162D+00 0.124D+01
 Gap=     0.498 Goal=   None    Shift=    0.000
 RMSDP=9.72D-06 MaxDP=2.99D-04 DE=-2.30D-05 OVMax= 9.08D-04

 Cycle   6  Pass 1  IDiag  1:
 E= -150.832230079112     Delta-E=       -0.000003966874 Rises=F Damp=F
 DIIS: error= 1.91D-05 at cycle   6 NSaved=   6.
 NSaved= 6 IEnMin= 6 EnMin= -150.832230079112     IErMin= 6 ErrMin= 1.91D-05
 ErrMax= 1.91D-05  0.00D+00 EMaxC= 1.00D-01 BMatC= 8.31D-08 BMatP= 1.60D-06
 IDIUse=1 WtCom= 1.00D+00 WtEn= 0.00D+00
 Coeff-Com: -0.502D-03 0.589D-02 0.213D-01 0.318D-01-0.504D+00 0.145D+01
 Coeff:     -0.502D-03 0.589D-02 0.213D-01 0.318D-01-0.504D+00 0.145D+01
 Gap=     0.499 Goal=   None    Shift=    0.000
 RMSDP=3.05D-06 MaxDP=8.38D-05 DE=-3.97D-06 OVMax= 3.34D-04

 Cycle   7  Pass 1  IDiag  1:
 E= -150.832230353573     Delta-E=       -0.000000274461 Rises=F Damp=F
 DIIS: error= 3.56D-06 at cycle   7 NSaved=   7.
 NSaved= 7 IEnMin= 7 EnMin= -150.832230353573     IErMin= 7 ErrMin= 3.56D-06
 ErrMax= 3.56D-06  0.00D+00 EMaxC= 1.00D-01 BMatC= 4.58D-09 BMatP= 8.31D-08
 IDIUse=1 WtCom= 1.00D+00 WtEn= 0.00D+00
 Coeff-Com:  0.114D-03-0.155D-02-0.607D-02-0.420D-02 0.141D+00-0.540D+00
 Coeff-Com:  0.141D+01
 Coeff:      0.114D-03-0.155D-02-0.607D-02-0.420D-02 0.141D+00-0.540D+00
 Coeff:      0.141D+01
 Gap=     0.499 Goal=   None    Shift=    0.000
 RMSDP=6.80D-07 MaxDP=1.42D-05 DE=-2.74D-07 OVMax= 9.08D-05

 Cycle   8  Pass 1  IDiag  1:
 E= -150.832230370735     Delta-E=       -0.000000017162 Rises=F Damp=F
 DIIS: error= 1.60D-06 at cycle   8 NSaved=   8.
 NSaved= 8 IEnMin= 8 EnMin= -150.832230370735     IErMin= 8 ErrMin= 1.60D-06
 ErrMax= 1.60D-06  0.00D+00 EMaxC= 1.00D-01 BMatC= 6.05D-10 BMatP= 4.58D-09
 IDIUse=1 WtCom= 1.00D+00 WtEn= 0.00D+00
 Coeff-Com: -0.792D-05 0.223D-03 0.117D-02-0.217D-02-0.222D-01 0.146D+00
 Coeff-Com: -0.795D+00 0.167D+01
 Coeff:     -0.792D-05 0.223D-03 0.117D-02-0.217D-02-0.222D-01 0.146D+00
 Coeff:     -0.795D+00 0.167D+01
 Gap=     0.499 Goal=   None    Shift=    0.000
 RMSDP=2.89D-07 MaxDP=7.87D-06 DE=-1.72D-08 OVMax= 4.64D-05

 Cycle   9  Pass 1  IDiag  1:
 E= -150.832230373326     Delta-E=       -0.000000002591 Rises=F Damp=F
 DIIS: error= 3.51D-07 at cycle   9 NSaved=   9.
 NSaved= 9 IEnMin= 9 EnMin= -150.832230373326     IErMin= 9 ErrMin= 3.51D-07
 ErrMax= 3.51D-07  0.00D+00 EMaxC= 1.00D-01 BMatC= 4.20D-11 BMatP= 6.05D-10
 IDIUse=1 WtCom= 1.00D+00 WtEn= 0.00D+00
 Coeff-Com: -0.697D-05 0.997D-04 0.396D-03 0.406D-03-0.101D-01 0.409D-01
 Coeff-Com: -0.122D+00 0.743D-01 0.102D+01
 Coeff:     -0.697D-05 0.997D-04 0.396D-03 0.406D-03-0.101D-01 0.409D-01
 Coeff:     -0.122D+00 0.743D-01 0.102D+01
 Gap=     0.499 Goal=   None    Shift=    0.000
 RMSDP=4.84D-08 MaxDP=1.67D-06 DE=-2.59D-09 OVMax= 7.07D-06

 Cycle  10  Pass 1  IDiag  1:
 E= -150.832230373419     Delta-E=       -0.000000000093 Rises=F Damp=F
 DIIS: error= 1.65D-07 at cycle  10 NSaved=  10.
 NSaved=10 IEnMin=10 EnMin= -150.832230373419     IErMin=10 ErrMin= 1.65D-07
 ErrMax= 1.65D-07  0.00D+00 EMaxC= 1.00D-01 BMatC= 1.23D-11 BMatP= 4.20D-11
 IDIUse=1 WtCom= 1.00D+00 WtEn= 0.00D+00
 Coeff-Com: -0.320D-06-0.215D-04-0.155D-03 0.773D-03 0.154D-02-0.200D-01
 Coeff-Com:  0.145D+00-0.367D+00 0.351D+00 0.889D+00
 Coeff:     -0.320D-06-0.215D-04-0.155D-03 0.773D-03 0.154D-02-0.200D-01
 Coeff:      0.145D+00-0.367D+00 0.351D+00 0.889D+00
 Gap=     0.499 Goal=   None    Shift=    0.000
 RMSDP=2.21D-08 MaxDP=7.59D-07 DE=-9.30D-11 OVMax= 2.98D-06

 Cycle  11  Pass 1  IDiag  1:
 E= -150.832230373437     Delta-E=       -0.000000000018 Rises=F Damp=F
 DIIS: error= 3.45D-08 at cycle  11 NSaved=  11.
 NSaved=11 IEnMin=11 EnMin= -150.832230373437     IErMin=11 ErrMin= 3.45D-08
 ErrMax= 3.45D-08  0.00D+00 EMaxC= 1.00D-01 BMatC= 3.21D-13 BMatP= 1.23D-11
 IDIUse=1 WtCom= 1.00D+00 WtEn= 0.00D+00
 Coeff-Com:  0.781D-06-0.700D-05-0.124D-04-0.118D-03 0.520D-03-0.113D-03
 Coeff-Com: -0.144D-01 0.552D-01-0.136D+00-0.153D+00 0.125D+01
 Coeff:      0.781D-06-0.700D-05-0.124D-04-0.118D-03 0.520D-03-0.113D-03
 Coeff:     -0.144D-01 0.552D-01-0.136D+00-0.153D+00 0.125D+01
 Gap=     0.499 Goal=   None    Shift=    0.000
 RMSDP=5.34D-09 MaxDP=1.25D-07 DE=-1.82D-11 OVMax= 6.46D-07

 SCF Done:  E(RHF) =  -150.832230373     A.U. after   11 cycles
            NFock= 11  Conv=0.53D-08     -V/T= 2.0020
 KE= 1.505357299136D+02 PE=-4.314932064782D+02 EE= 9.347530061586D+01
 Leave Link  502 at Mon Mar 30 18:16:17 2020, MaxMem=  2147483648 cpu:              26.5 elap:               3.3
 (Enter /usr/local/g16/g16/l801.exe)
 Windowed orbitals will be sorted by symmetry type.
 ExpMin= 2.53D-02 ExpMax= 1.17D+07 ExpMxC= 1.33D+04 IAcc=3 IRadAn=         5 AccDes= 0.00D+00
 HarFok:  IExCor=  205 AccDes= 0.00D+00 IRadAn=         5 IDoV=-2 UseB2=F ITyADJ=14
 ICtDFT= 12500011 ScaDFX=  1.000000  1.000000  1.000000  1.000000
 Largest valence mixing into a core orbital is  1.19D-04
 Largest core mixing into a valence orbital is  2.07D-05
 Range of M.O.s used for correlation:     3   197
 NBasis=   197 NAE=     9 NBE=     9 NFC=     2 NFV=     0
 NROrb=    195 NOA=     7 NOB=     7 NVA=   188 NVB=   188

 **** Warning!!: The largest alpha MO coefficient is  0.14494395D+02

 Leave Link  801 at Mon Mar 30 18:16:17 2020, MaxMem=  2147483648 cpu:               0.6 elap:               0.0
 (Enter /usr/local/g16/g16/l804.exe)
 Closed-shell transformation, MDV=  2147483648 ITran=4 ISComp=1.
 Semi-Direct transformation.
 ModeAB=           2 MOrb=             7 LenV=    2146279651
 LASXX=     25261509 LTotXX=    25261509 LenRXX=    25261509
 LTotAB=    25646992 MaxLAS=    35947275 LenRXY=    35947275
 NonZer=    50523018 LenScr=    76544000 LnRSAI=           0
 LnScr1=           0 LExtra=           0 Total=    137752784
 MaxDsk=          -1 SrtSym=           F ITran=            4
 DoSDTr:  NPSUse= 16
 JobTyp=0 Pass  1:  I=   1 to   7.
 (rs|ai) integrals will be sorted in core.
 Complete sort for first half transformation.
 First half transformation complete.
 Complete sort for second half transformation.
 Second half transformation complete.
 SymMOI:  orbitals are not symmetric.
 Spin components of T(2) and E(2):
     alpha-alpha T2 =       0.1605897133D-01 E2=     -0.6287906419D-01
     alpha-beta  T2 =       0.9339507234D-01 E2=     -0.3821817273D+00
     beta-beta   T2 =       0.1605897133D-01 E2=     -0.6287906419D-01
 ANorm=    0.1060901982D+01
 E2 =    -0.5079398557D+00 EUMP2 =    -0.15134017022915D+03
 Leave Link  804 at Mon Mar 30 18:16:25 2020, MaxMem=  2147483648 cpu:             125.0 elap:               7.8
 (Enter /usr/local/g16/g16/l913.exe)
 CIDS:  MDV=  2147483648.
 Frozen-core window:  NFC=   2 NFV=   0.
 IFCWin=0 IBDFC=1 NFBD=     0     0 NFCmp=     0     0 NFFFC=     0     0
 Using DD3R+UMP44R for 1st iteration.
 Using DD4RQ for 2nd and later iterations.
 Keep R2 and R3 ints in memory in canonical form, NReq=393337810.
 FoFCou: FMM=F IPFlag=           0 FMFlag=           0 FMFlg1=           0
         NFxFlg=           0 DoJE=F BraDBF=F KetDBF=F FulRan=T
         wScrn=  0.000000 ICntrl=       600 IOpCl=  0 I1Cent=           0 NGrid=           0
         NMat0=    1 NMatS0=  19503 NMatT0=    0 NMatD0=    1 NMtDS0=    0 NMtDT0=    0
 Symmetry not used in FoFCou.
 Two-electron integral symmetry not used.
 CIDS: In Core Option IDoMem=           1.
 MP4(SDTQ)
 =========
 Produce multiple copies of IABC intergrals
 DD1Dir will call FoFMem   1 times, MxPair=        56
 NAB=    28 NAA=     0 NBB=     0.
 MP4(D)= -0.11248553D-01
 MP4(S)= -0.52236576D-02
 MP4(R+Q)=  0.10816369D-01
 T4(AAA)= -0.66438685D-03
 T4(AAB)= -0.10316200D-01
 Time for triples=      371.42 seconds.
 MP4(T)=   -0.21961173D-01
 E3=       -0.20253141D-02        EUMP3=      -0.15134219554D+03
 E4(DQ)=   -0.43218443D-03        UMP4(DQ)=   -0.15134262773D+03
 E4(SDQ)=  -0.56558420D-02        UMP4(SDQ)=  -0.15134785139D+03
 E4(SDTQ)= -0.27617015D-01        UMP4(SDTQ)= -0.15136981256D+03
 VARIATIONAL ENERGIES WITH THE FIRST-ORDER WAVEFUNCTION:
 E(VAR1)=  -0.15128532613D+03     E(CISD,4)=  -0.15129491469D+03
 Largest amplitude= 3.29D-02
 Discarding MO integrals.
 Leave Link  913 at Mon Mar 30 18:16:52 2020, MaxMem=  2147483648 cpu:             429.0 elap:              26.8
 (Enter /usr/local/g16/g16/l601.exe)
 Copying SCF densities to generalized density rwf, IOpCl= 0 IROHF=0.

 **********************************************************************

            Population analysis using the SCF density.

 **********************************************************************

 Orbital symmetries:
       Occupied  (A) (A) (A) (A) (A) (A) (A) (A) (A)
       Virtual   (A) (A) (A) (A) (A) (A) (A) (A) (A) (A) (A) (A)
                 (A) (A) (A) (A) (A) (A) (A) (A) (A) (A) (A) (A)
                 (A) (A) (A) (A) (A) (A) (A) (A) (A) (A) (A) (A)
                 (A) (A) (A) (A) (A) (A) (A) (A) (A) (A) (A) (A)
                 (A) (A) (A) (A) (A) (A) (A) (A) (A) (A) (A) (A)
                 (A) (A) (A) (A) (A) (A) (A) (A) (A) (A) (A) (A)
                 (A) (A) (A) (A) (A) (A) (A) (A) (A) (A) (A) (A)
                 (A) (A) (A) (A) (A) (A) (A) (A) (A) (A) (A) (A)
                 (A) (A) (A) (A) (A) (A) (A) (A) (A) (A) (A) (A)
                 (A) (A) (A) (A) (A) (A) (A) (A) (A) (A) (A) (A)
                 (A) (A) (A) (A) (A) (A) (A) (A) (A) (A) (A) (A)
                 (A) (A) (A) (A) (A) (A) (A) (A) (A) (A) (A) (A)
                 (A) (A) (A) (A) (A) (A) (A) (A) (A) (A) (A) (A)
                 (A) (A) (A) (A) (A) (A) (A) (A) (A) (A) (A) (A)
                 (A) (A) (A) (A) (A) (A) (A) (A) (A) (A) (A) (A)
                 (A) (A) (A) (A) (A) (A) (A) (A)
 The electronic state is 1-A.
 Alpha  occ. eigenvalues --  -20.63494 -20.63466  -1.47216  -1.22042  -0.76068
 Alpha  occ. eigenvalues --   -0.65939  -0.60072  -0.54537  -0.47510
 Alpha virt. eigenvalues --    0.02349   0.04106   0.07133   0.08027   0.10279
 Alpha virt. eigenvalues --    0.10445   0.13589   0.15513   0.17691   0.18381
 Alpha virt. eigenvalues --    0.19126   0.21280   0.22423   0.26524   0.27504
 Alpha virt. eigenvalues --    0.28384   0.29967   0.30604   0.33995   0.34819
 Alpha virt. eigenvalues --    0.35603   0.36478   0.38525   0.41012   0.42880
 Alpha virt. eigenvalues --    0.43931   0.46480   0.47540   0.49947   0.52454
 Alpha virt. eigenvalues --    0.55399   0.58837   0.63765   0.66355   0.71617
 Alpha virt. eigenvalues --    0.74348   0.77018   0.81264   0.81566   0.84362
 Alpha virt. eigenvalues --    0.86288   0.87698   0.91099   0.93895   0.95198
 Alpha virt. eigenvalues --    0.96562   0.97510   0.99546   1.01366   1.02587
 Alpha virt. eigenvalues --    1.07280   1.07708   1.09224   1.11744   1.13632
 Alpha virt. eigenvalues --    1.15480   1.17762   1.22669   1.24370   1.27233
 Alpha virt. eigenvalues --    1.30418   1.30990   1.32313   1.33145   1.34205
 Alpha virt. eigenvalues --    1.35843   1.36486   1.42352   1.44366   1.46731
 Alpha virt. eigenvalues --    1.53616   1.54482   1.57781   1.59546   1.63178
 Alpha virt. eigenvalues --    1.65490   1.70734   1.71302   1.80938   1.84308
 Alpha virt. eigenvalues --    1.89240   1.98006   2.05588   2.11035   2.17015
 Alpha virt. eigenvalues --    2.22455   2.25495   2.29088   2.34220   2.36767
 Alpha virt. eigenvalues --    2.42108   2.45184   2.47553   2.51060   2.51880
 Alpha virt. eigenvalues --    2.65985   2.68873   2.73325   2.75375   2.78671
 Alpha virt. eigenvalues --    2.79206   2.91049   3.01752   3.06211   3.11659
 Alpha virt. eigenvalues --    3.16172   3.24454   3.27864   3.28462   3.31480
 Alpha virt. eigenvalues --    3.45533   3.60645   3.76323   3.77185   3.80103
 Alpha virt. eigenvalues --    3.81288   3.81595   3.82128   3.84377   3.90136
 Alpha virt. eigenvalues --    3.90878   3.92621   3.96128   3.99629   4.06424
 Alpha virt. eigenvalues --    4.16261   4.18146   4.24846   4.28168   4.31265
 Alpha virt. eigenvalues --    4.35472   4.41457   4.45403   4.50666   4.51723
 Alpha virt. eigenvalues --    4.63840   4.75609   4.90723   4.94695   5.21268
 Alpha virt. eigenvalues --    5.26495   5.28531   5.32920   5.42128   5.43751
 Alpha virt. eigenvalues --    5.79816   6.17615   6.35077   6.45258   6.46575
 Alpha virt. eigenvalues --    6.64535   6.73090   6.74467   6.87738   7.00657
 Alpha virt. eigenvalues --    7.14250   7.17560   7.20966   7.22117   7.25009
 Alpha virt. eigenvalues --    7.25986   7.30041   7.32103   7.40791   7.50480
 Alpha virt. eigenvalues --    7.54818   7.61085   7.85397   7.88189   8.27310
 Alpha virt. eigenvalues --    8.45055   8.54392  11.00584  14.66698  14.81969
 Alpha virt. eigenvalues --   14.88082  15.05995  15.35348  29.01568  29.02111
 Alpha virt. eigenvalues --   29.06514  29.14950  29.21689  49.17272 148.30215
 Alpha virt. eigenvalues --  148.40131 148.70767 752.74897
          Condensed to atoms (all electrons):
               1          2          3          4          5
     1  O    8.115627  -0.092549   0.233679   0.004287   0.002867
     2  O   -0.092549   8.128479   0.014091   0.230954  -0.001643
     3  H    0.233679   0.014091   0.493093  -0.004319  -0.002055
     4  H    0.004287   0.230954  -0.004319   0.499105  -0.004083
     5  Kr   0.002867  -0.001643  -0.002055  -0.004083   0.001236
 Mulliken charges:
               1
     1  O   -0.263911
     2  O   -0.279332
     3  H    0.265511
     4  H    0.274055
     5  Kr   0.003677
 Sum of Mulliken charges =  -0.00000
 Mulliken charges with hydrogens summed into heavy atoms:
               1
     1  O    0.001600
     2  O   -0.005277
     5  Kr   0.003677
         Mulliken charges condensed to fragments:
      1     -0.003677
      2      0.003677
 Electronic spatial extent (au):  <R**2>=            317.7935
 Charge=             -0.0000 electrons
 Dipole moment (field-independent basis, Debye):
    X=             -2.6861    Y=             -0.1009    Z=              1.2806  Tot=              2.9774
 Quadrupole moment (field-independent basis, Debye-Ang):
   XX=            -20.6807   YY=            -10.2504   ZZ=            -11.8573
   XY=             -0.9076   XZ=              1.5443   YZ=             -1.4800
 Traceless Quadrupole moment (field-independent basis, Debye-Ang):
   XX=             -6.4179   YY=              4.0125   ZZ=              2.4055
   XY=             -0.9076   XZ=              1.5443   YZ=             -1.4800
 Octapole moment (field-independent basis, Debye-Ang**2):
  XXX=            -92.6660  YYY=             -0.6275  ZZZ=              0.6283  XYY=            -23.6534
  XXY=             -2.0199  XXZ=              1.6162  XZZ=            -23.7540  YZZ=             -1.1337
  YYZ=              1.7779  XYZ=             -2.1214
 Hexadecapole moment (field-independent basis, Debye-Ang**3):
 XXXX=           -341.1866 YYYY=            -43.9977 ZZZZ=            -10.7383 XXXY=             -2.9158
 XXXZ=              1.3687 YYYX=             -1.5912 YYYZ=             -2.1367 ZZZX=              1.2329
 ZZZY=             -1.3019 XXYY=            -61.8005 XXZZ=            -51.1595 YYZZ=            -10.0242
 XXYZ=             -3.1794 YYXZ=              2.5447 ZZXY=             -1.6224
 N-N= 3.664994557534D+01 E-N=-4.314932064016D+02  KE= 1.505357299136D+02
 Leave Link  601 at Mon Mar 30 18:16:52 2020, MaxMem=  2147483648 cpu:               0.6 elap:               0.0
 (Enter /usr/local/g16/g16/l122.exe)
 CPIOFr:  IOpCl= 0 IRwI=-1 IRwCP=  731 ICalc=  1 LCPTot=       59414 Len1MO=      159453 IndFrg=      378320
 Counterpoise: doing calculation for fragment   2 using the basis set of the full-system, NewBq=T
 Leave Link  122 at Mon Mar 30 18:16:52 2020, MaxMem=  2147483648 cpu:               0.0 elap:               0.0
 (Enter /usr/local/g16/g16/l301.exe)
 Basis read from rwf:  (5D, 7F)
 No pseudopotential information found on rwf file.
 There are   229 symmetry adapted cartesian basis functions of A   symmetry.
 There are   197 symmetry adapted basis functions of A   symmetry.
   197 basis functions,   415 primitive gaussians,   229 cartesian basis functions
    18 alpha electrons       18 beta electrons
       nuclear repulsion energy         0.0000000000 Hartrees.
 IExCor=    0 DFT=F Ex=HF Corr=None ExCW=0 ScaHFX=  1.000000
 ScaDFX=  1.000000  1.000000  1.000000  1.000000 ScalE2=  1.000000  1.000000
 IRadAn=      5 IRanWt=     -1 IRanGd=            0 ICorTp=0 IEmpDi=  4
 NAtoms=    5 NActive=    5 NUniq=    5 SFac= 1.00D+00 NAtFMM=   60 NAOKFM=F Big=F
 Integral buffers will be    131072 words long.
 Raffenetti 1 integral format.
 Two-electron integral symmetry is turned on.
 No density basis found on file   718.
 Leave Link  301 at Mon Mar 30 18:16:52 2020, MaxMem=  2147483648 cpu:               0.4 elap:               0.0
 (Enter /usr/local/g16/g16/l302.exe)
 NPDir=0 NMtPBC=     1 NCelOv=     1 NCel=       1 NClECP=     1 NCelD=      1
         NCelK=      1 NCelE2=     1 NClLst=     1 CellRange=     0.0.
 One-electron integrals computed using PRISM.
 One-electron integral symmetry used in STVInt
 NBasis=   197 RedAO= T EigKep=  1.92D-04  NBF=   197
 NBsUse=   197 1.00D-06 EigRej= -1.00D+00 NBFU=   197
 Leave Link  302 at Mon Mar 30 18:16:53 2020, MaxMem=  2147483648 cpu:               1.7 elap:               0.1
 (Enter /usr/local/g16/g16/l303.exe)
 DipDrv:  MaxL=1.
 Leave Link  303 at Mon Mar 30 18:16:53 2020, MaxMem=  2147483648 cpu:               0.4 elap:               0.0
 (Enter /usr/local/g16/g16/l401.exe)
 ExpMin= 2.53D-02 ExpMax= 1.17D+07 ExpMxC= 1.33D+04 IAcc=3 IRadAn=         5 AccDes= 0.00D+00
 Harris functional with IExCor=  205 and IRadAn=       5 diagonalized for initial guess.
 HarFok:  IExCor=  205 AccDes= 0.00D+00 IRadAn=         5 IDoV= 1 UseB2=F ITyADJ=14
 ICtDFT=  3500011 ScaDFX=  1.000000  1.000000  1.000000  1.000000
 FoFCou: FMM=F IPFlag=           0 FMFlag=      100000 FMFlg1=           0
         NFxFlg=           0 DoJE=T BraDBF=F KetDBF=T FulRan=T
         wScrn=  0.000000 ICntrl=       500 IOpCl=  0 I1Cent=   200000004 NGrid=           0
         NMat0=    1 NMatS0=      1 NMatT0=    0 NMatD0=    1 NMtDS0=    0 NMtDT0=    0
 Petite list used in FoFCou.
 Harris En= -2751.06010565912    
 JPrj=0 DoOrth=F DoCkMO=F.
 Leave Link  401 at Mon Mar 30 18:16:53 2020, MaxMem=  2147483648 cpu:               3.0 elap:               0.2
 (Enter /usr/local/g16/g16/l502.exe)
 Keep R1 ints in memory in canonical form, NReq=203139133.
 FoFCou: FMM=F IPFlag=           0 FMFlag=           0 FMFlg1=           0
         NFxFlg=           0 DoJE=F BraDBF=F KetDBF=F FulRan=T
         wScrn=  0.000000 ICntrl=       600 IOpCl=  0 I1Cent=           0 NGrid=           0
         NMat0=    1 NMatS0=  19503 NMatT0=    0 NMatD0=    1 NMtDS0=    0 NMtDT0=    0
 Symmetry not used in FoFCou.
 Two-electron integral symmetry not used.
 Closed shell SCF:
 Using DIIS extrapolation, IDIIS=  1040.
 NGot=  2147483648 LenX=  1957179903 LenY=  1957127021
 Requested convergence on RMS density matrix=1.00D-08 within 128 cycles.
 Requested convergence on MAX density matrix=1.00D-06.
 Requested convergence on             energy=1.00D-06.
 No special actions if energy rises.

 Cycle   1  Pass 1  IDiag  1:
 E= -2752.00355262257    
 DIIS: error= 4.73D-02 at cycle   1 NSaved=   1.
 NSaved= 1 IEnMin= 1 EnMin= -2752.00355262257     IErMin= 1 ErrMin= 4.73D-02
 ErrMax= 4.73D-02  0.00D+00 EMaxC= 1.00D-01 BMatC= 4.31D-01 BMatP= 4.31D-01
 IDIUse=3 WtCom= 5.27D-01 WtEn= 4.73D-01
 Coeff-Com:  0.100D+01
 Coeff-En:   0.100D+01
 Coeff:      0.100D+01
 Gap=     0.630 Goal=   None    Shift=    0.000
 GapD=    0.630 DampG=2.000 DampE=0.500 DampFc=1.0000 IDamp=-1.
 RMSDP=1.76D-03 MaxDP=1.31D-01              OVMax= 2.38D-02

 Cycle   2  Pass 1  IDiag  1:
 E= -2752.04697531840     Delta-E=       -0.043422695829 Rises=F Damp=F
 DIIS: error= 6.46D-03 at cycle   2 NSaved=   2.
 NSaved= 2 IEnMin= 2 EnMin= -2752.04697531840     IErMin= 2 ErrMin= 6.46D-03
 ErrMax= 6.46D-03  0.00D+00 EMaxC= 1.00D-01 BMatC= 1.98D-02 BMatP= 4.31D-01
 IDIUse=3 WtCom= 9.35D-01 WtEn= 6.46D-02
 Coeff-Com:  0.152D+00 0.848D+00
 Coeff-En:   0.000D+00 0.100D+01
 Coeff:      0.142D+00 0.858D+00
 Gap=     0.545 Goal=   None    Shift=    0.000
 RMSDP=5.67D-04 MaxDP=3.54D-02 DE=-4.34D-02 OVMax= 1.31D-02

 Cycle   3  Pass 1  IDiag  1:
 E= -2752.05205962163     Delta-E=       -0.005084303237 Rises=F Damp=F
 DIIS: error= 1.15D-03 at cycle   3 NSaved=   3.
 NSaved= 3 IEnMin= 3 EnMin= -2752.05205962163     IErMin= 3 ErrMin= 1.15D-03
 ErrMax= 1.15D-03  0.00D+00 EMaxC= 1.00D-01 BMatC= 7.07D-04 BMatP= 1.98D-02
 IDIUse=3 WtCom= 9.88D-01 WtEn= 1.15D-02
 Coeff-Com: -0.129D-02 0.154D+00 0.847D+00
 Coeff-En:   0.000D+00 0.000D+00 0.100D+01
 Coeff:     -0.128D-02 0.152D+00 0.849D+00
 Gap=     0.556 Goal=   None    Shift=    0.000
 RMSDP=7.46D-05 MaxDP=4.40D-03 DE=-5.08D-03 OVMax= 2.87D-03

 Cycle   4  Pass 1  IDiag  1:
 E= -2752.05226938521     Delta-E=       -0.000209763572 Rises=F Damp=F
 DIIS: error= 3.92D-05 at cycle   4 NSaved=   4.
 NSaved= 4 IEnMin= 4 EnMin= -2752.05226938521     IErMin= 4 ErrMin= 3.92D-05
 ErrMax= 3.92D-05  0.00D+00 EMaxC= 1.00D-01 BMatC= 7.01D-07 BMatP= 7.07D-04
 IDIUse=1 WtCom= 1.00D+00 WtEn= 0.00D+00
 Coeff-Com: -0.360D-03-0.174D-01-0.588D-01 0.108D+01
 Coeff:     -0.360D-03-0.174D-01-0.588D-01 0.108D+01
 Gap=     0.555 Goal=   None    Shift=    0.000
 RMSDP=6.09D-06 MaxDP=2.87D-04 DE=-2.10D-04 OVMax= 2.69D-04

 Cycle   5  Pass 1  IDiag  1:
 E= -2752.05226981318     Delta-E=       -0.000000427973 Rises=F Damp=F
 DIIS: error= 2.96D-06 at cycle   5 NSaved=   5.
 NSaved= 5 IEnMin= 5 EnMin= -2752.05226981318     IErMin= 5 ErrMin= 2.96D-06
 ErrMax= 2.96D-06  0.00D+00 EMaxC= 1.00D-01 BMatC= 6.09D-09 BMatP= 7.01D-07
 IDIUse=1 WtCom= 1.00D+00 WtEn= 0.00D+00
 Coeff-Com:  0.612D-04 0.156D-05-0.521D-02-0.848D-01 0.109D+01
 Coeff:      0.612D-04 0.156D-05-0.521D-02-0.848D-01 0.109D+01
 Gap=     0.555 Goal=   None    Shift=    0.000
 RMSDP=6.80D-07 MaxDP=2.89D-05 DE=-4.28D-07 OVMax= 2.78D-05

 Cycle   6  Pass 1  IDiag  1:
 E= -2752.05226981909     Delta-E=       -0.000000005907 Rises=F Damp=F
 DIIS: error= 3.05D-07 at cycle   6 NSaved=   6.
 NSaved= 6 IEnMin= 6 EnMin= -2752.05226981909     IErMin= 6 ErrMin= 3.05D-07
 ErrMax= 3.05D-07  0.00D+00 EMaxC= 1.00D-01 BMatC= 4.15D-11 BMatP= 6.09D-09
 IDIUse=1 WtCom= 1.00D+00 WtEn= 0.00D+00
 Coeff-Com: -0.299D-05 0.985D-04 0.871D-03-0.191D-02-0.930D-01 0.109D+01
 Coeff:     -0.299D-05 0.985D-04 0.871D-03-0.191D-02-0.930D-01 0.109D+01
 Gap=     0.555 Goal=   None    Shift=    0.000
 RMSDP=6.35D-08 MaxDP=3.76D-06 DE=-5.91D-09 OVMax= 3.32D-06

 Cycle   7  Pass 1  IDiag  1:
 E= -2752.05226981912     Delta-E=       -0.000000000034 Rises=F Damp=F
 DIIS: error= 1.84D-08 at cycle   7 NSaved=   7.
 NSaved= 7 IEnMin= 7 EnMin= -2752.05226981912     IErMin= 7 ErrMin= 1.84D-08
 ErrMax= 1.84D-08  0.00D+00 EMaxC= 1.00D-01 BMatC= 1.55D-13 BMatP= 4.15D-11
 IDIUse=1 WtCom= 1.00D+00 WtEn= 0.00D+00
 Coeff-Com:  0.315D-07-0.316D-05-0.276D-04 0.230D-03 0.224D-02-0.576D-01
 Coeff-Com:  0.106D+01
 Coeff:      0.315D-07-0.316D-05-0.276D-04 0.230D-03 0.224D-02-0.576D-01
 Coeff:      0.106D+01
 Gap=     0.555 Goal=   None    Shift=    0.000
 RMSDP=5.57D-09 MaxDP=2.08D-07 DE=-3.37D-11 OVMax= 2.60D-07

 SCF Done:  E(RHF) =  -2752.05226982     A.U. after    7 cycles
            NFock=  7  Conv=0.56D-08     -V/T= 2.0000
 KE= 2.752039052104D+03 PE=-6.582553918137D+03 EE= 1.078462596214D+03
 Leave Link  502 at Mon Mar 30 18:16:55 2020, MaxMem=  2147483648 cpu:              25.2 elap:               2.6
 (Enter /usr/local/g16/g16/l801.exe)
 Windowed orbitals will be sorted by symmetry type.
 ExpMin= 2.53D-02 ExpMax= 1.17D+07 ExpMxC= 1.33D+04 IAcc=3 IRadAn=         5 AccDes= 0.00D+00
 HarFok:  IExCor=  205 AccDes= 0.00D+00 IRadAn=         5 IDoV=-2 UseB2=F ITyADJ=14
 ICtDFT= 12500011 ScaDFX=  1.000000  1.000000  1.000000  1.000000
 Largest valence mixing into a core orbital is  9.81D-05
 Largest core mixing into a valence orbital is  3.83D-05
 Range of M.O.s used for correlation:    10   197
 NBasis=   197 NAE=    18 NBE=    18 NFC=     9 NFV=     0
 NROrb=    188 NOA=     9 NOB=     9 NVA=   179 NVB=   179

 **** Warning!!: The largest alpha MO coefficient is  0.13887136D+02

 Leave Link  801 at Mon Mar 30 18:16:56 2020, MaxMem=  2147483648 cpu:               0.5 elap:               0.0
 (Enter /usr/local/g16/g16/l804.exe)
 Closed-shell transformation, MDV=  2147483648 ITran=4 ISComp=1.
 Semi-Direct transformation.
 ModeAB=           2 MOrb=             9 LenV=    2146334142
 LASXX=     28892340 LTotXX=    28892340 LenRXX=    28892340
 LTotAB=    29348001 MaxLAS=    44558820 LenRXY=    44558820
 NonZer=    57784680 LenScr=    87449600 LnRSAI=           0
 LnScr1=           0 LExtra=           0 Total=    160900760
 MaxDsk=          -1 SrtSym=           F ITran=            4
 DoSDTr:  NPSUse= 16
 JobTyp=0 Pass  1:  I=   1 to   9.
 (rs|ai) integrals will be sorted in core.
 Complete sort for first half transformation.
 First half transformation complete.
 Complete sort for second half transformation.
 Second half transformation complete.
 SymMOI:  orbitals are not symmetric.
 Spin components of T(2) and E(2):
     alpha-alpha T2 =       0.9505178592D-02 E2=     -0.3583640096D-01
     alpha-beta  T2 =       0.4820290978D-01 E2=     -0.1724996707D+00
     beta-beta   T2 =       0.9505178592D-02 E2=     -0.3583640096D-01
 ANorm=    0.1033060147D+01
 E2 =    -0.2441724726D+00 EUMP2 =    -0.27522964422918D+04
 Leave Link  804 at Mon Mar 30 18:17:04 2020, MaxMem=  2147483648 cpu:             133.4 elap:               8.3
 (Enter /usr/local/g16/g16/l913.exe)
 CIDS:  MDV=  2147483648.
 Frozen-core window:  NFC=   9 NFV=   0.
 IFCWin=0 IBDFC=1 NFBD=     0     0 NFCmp=     0     0 NFFFC=     0     0
 Using DD3R+UMP44R for 1st iteration.
 Using DD4RQ for 2nd and later iterations.
 Keep R2 and R3 ints in memory in canonical form, NReq=393338400.
 FoFCou: FMM=F IPFlag=           0 FMFlag=           0 FMFlg1=           0
         NFxFlg=           0 DoJE=F BraDBF=F KetDBF=F FulRan=T
         wScrn=  0.000000 ICntrl=       600 IOpCl=  0 I1Cent=           0 NGrid=           0
         NMat0=    1 NMatS0=  19503 NMatT0=    0 NMatD0=    1 NMtDS0=    0 NMtDT0=    0
 Symmetry not used in FoFCou.
 Two-electron integral symmetry not used.
 CIDS: In Core Option IDoMem=           1.
 MP4(SDTQ)
 =========
 Produce multiple copies of IABC intergrals
 DD1Dir will call FoFMem   1 times, MxPair=        90
 NAB=    45 NAA=     0 NBB=     0.
 MP4(D)= -0.37245891D-02
 MP4(S)= -0.10915096D-02
 MP4(R+Q)=  0.42525241D-02
 T4(AAA)= -0.32596649D-03
 T4(AAB)= -0.35681405D-02
 Time for triples=      476.90 seconds.
 MP4(T)=   -0.77882140D-02
 E3=       -0.98536098D-02        EUMP3=      -0.27523062959D+04
 E4(DQ)=    0.52793496D-03        UMP4(DQ)=   -0.27523057680D+04
 E4(SDQ)=  -0.56357468D-03        UMP4(SDQ)=  -0.27523068595D+04
 E4(SDTQ)= -0.83517887D-02        UMP4(SDTQ)= -0.27523146477D+04
 VARIATIONAL ENERGIES WITH THE FIRST-ORDER WAVEFUNCTION:
 E(VAR1)=  -0.27522902973D+04     E(CISD,4)=  -0.27522947004D+04
 Largest amplitude= 1.26D-02
 Discarding MO integrals.
 Leave Link  913 at Mon Mar 30 18:17:38 2020, MaxMem=  2147483648 cpu:             548.8 elap:              34.3
 (Enter /usr/local/g16/g16/l601.exe)
 Copying SCF densities to generalized density rwf, IOpCl= 0 IROHF=0.

 **********************************************************************

            Population analysis using the SCF density.

 **********************************************************************

 Orbital symmetries:
       Occupied  (A) (A) (A) (A) (A) (A) (A) (A) (A) (A) (A) (A)
                 (A) (A) (A) (A) (A) (A)
       Virtual   (A) (A) (A) (A) (A) (A) (A) (A) (A) (A) (A) (A)
                 (A) (A) (A) (A) (A) (A) (A) (A) (A) (A) (A) (A)
                 (A) (A) (A) (A) (A) (A) (A) (A) (A) (A) (A) (A)
                 (A) (A) (A) (A) (A) (A) (A) (A) (A) (A) (A) (A)
                 (A) (A) (A) (A) (A) (A) (A) (A) (A) (A) (A) (A)
                 (A) (A) (A) (A) (A) (A) (A) (A) (A) (A) (A) (A)
                 (A) (A) (A) (A) (A) (A) (A) (A) (A) (A) (A) (A)
                 (A) (A) (A) (A) (A) (A) (A) (A) (A) (A) (A) (A)
                 (A) (A) (A) (A) (A) (A) (A) (A) (A) (A) (A) (A)
                 (A) (A) (A) (A) (A) (A) (A) (A) (A) (A) (A) (A)
                 (A) (A) (A) (A) (A) (A) (A) (A) (A) (A) (A) (A)
                 (A) (A) (A) (A) (A) (A) (A) (A) (A) (A) (A) (A)
                 (A) (A) (A) (A) (A) (A) (A) (A) (A) (A) (A) (A)
                 (A) (A) (A) (A) (A) (A) (A) (A) (A) (A) (A) (A)
                 (A) (A) (A) (A) (A) (A) (A) (A) (A) (A) (A)
 The electronic state is 1-A.
 Alpha  occ. eigenvalues -- -520.16582 -69.90315 -63.00973 -63.00973 -63.00973
 Alpha  occ. eigenvalues --  -10.84954  -8.33154  -8.33154  -8.33153  -3.82532
 Alpha  occ. eigenvalues --   -3.82531  -3.82531  -3.82530  -3.82530  -1.15311
 Alpha  occ. eigenvalues --   -0.52430  -0.52429  -0.52428
 Alpha virt. eigenvalues --    0.03101   0.04982   0.08695   0.09470   0.12279
 Alpha virt. eigenvalues --    0.12926   0.13559   0.13865   0.16126   0.17264
 Alpha virt. eigenvalues --    0.17979   0.19354   0.21633   0.27091   0.28390
 Alpha virt. eigenvalues --    0.29123   0.30061   0.33074   0.34574   0.36660
 Alpha virt. eigenvalues --    0.37476   0.38978   0.40087   0.41604   0.42582
 Alpha virt. eigenvalues --    0.42649   0.46781   0.55737   0.58154   0.62065
 Alpha virt. eigenvalues --    0.63373   0.66517   0.68423   0.70501   0.73246
 Alpha virt. eigenvalues --    0.74047   0.77424   0.79654   0.80728   0.82299
 Alpha virt. eigenvalues --    0.83441   0.86121   0.87533   0.87782   0.90123
 Alpha virt. eigenvalues --    0.90714   0.92174   0.92972   0.94694   0.98761
 Alpha virt. eigenvalues --    1.00171   1.01731   1.03894   1.04968   1.06424
 Alpha virt. eigenvalues --    1.08341   1.10555   1.12581   1.17081   1.20933
 Alpha virt. eigenvalues --    1.22125   1.25257   1.29424   1.35742   1.36423
 Alpha virt. eigenvalues --    1.38525   1.40958   1.50971   1.52152   1.55917
 Alpha virt. eigenvalues --    1.59102   1.61207   1.65202   1.71723   1.80997
 Alpha virt. eigenvalues --    1.82992   1.84555   1.88694   1.94320   2.24908
 Alpha virt. eigenvalues --    2.29982   2.36083   2.38132   2.38284   2.38967
 Alpha virt. eigenvalues --    2.43228   2.45272   2.46411   2.50190   2.52030
 Alpha virt. eigenvalues --    2.54346   2.55087   2.56600   2.58414   2.60334
 Alpha virt. eigenvalues --    2.63603   2.65697   2.67575   2.69200   2.71067
 Alpha virt. eigenvalues --    2.71876   2.72678   2.80019   2.81152   2.82776
 Alpha virt. eigenvalues --    2.83541   2.89483   2.92208   2.93113   2.98218
 Alpha virt. eigenvalues --    3.01205   3.05486   3.08459   3.10384   3.18703
 Alpha virt. eigenvalues --    3.21997   3.27742   3.32868   3.41139   3.47217
 Alpha virt. eigenvalues --    3.61801   3.67216   3.82731   3.87212   4.02800
 Alpha virt. eigenvalues --    4.47426   4.52287   4.55864   4.59078   4.70482
 Alpha virt. eigenvalues --    4.80808   4.86784   4.90061   4.98869   5.13882
 Alpha virt. eigenvalues --    5.16665   5.25808   5.55742   5.69064   5.82179
 Alpha virt. eigenvalues --    5.91588   5.99833   6.14229   6.80017   6.83926
 Alpha virt. eigenvalues --    7.37319   7.40868   7.59769   7.70493   7.71488
 Alpha virt. eigenvalues --    7.82656   7.99130   8.16166   8.17080   8.25990
 Alpha virt. eigenvalues --    8.31872   8.47844   8.62586   8.92377   9.57345
 Alpha virt. eigenvalues --    9.73711   9.83000   9.87789   9.94871   9.97015
 Alpha virt. eigenvalues --   10.17681  10.22949  10.55285  10.93217  11.57371
 Alpha virt. eigenvalues --   11.59443  11.77227  11.99568  12.04756  13.20696
 Alpha virt. eigenvalues --   13.68850  14.52302  62.67673  64.67924
          Condensed to atoms (all electrons):
               1          2          3          4          5
     1  O    0.000383  -0.000354  -0.000231   0.000214  -0.002638
     2  O   -0.000354   0.001475   0.000120  -0.001024  -0.002508
     3  H   -0.000231   0.000120   0.000272  -0.000111  -0.001373
     4  H    0.000214  -0.001024  -0.000111   0.001037  -0.007787
     5  Kr  -0.002638  -0.002508  -0.001373  -0.007787  36.028214
 Mulliken charges:
               1
     1  O    0.002625
     2  O    0.002291
     3  H    0.001322
     4  H    0.007670
     5  Kr  -0.013909
 Sum of Mulliken charges =  -0.00000
 Mulliken charges with hydrogens summed into heavy atoms:
               1
     1  O    0.003948
     2  O    0.009961
     5  Kr  -0.013909
         Mulliken charges condensed to fragments:
      1      0.013909
      2     -0.013909
 Electronic spatial extent (au):  <R**2>=            161.0440
 Charge=              0.0000 electrons
 Dipole moment (field-independent basis, Debye):
    X=              0.0010    Y=              0.0003    Z=              0.0001  Tot=              0.0010
 Quadrupole moment (field-independent basis, Debye-Ang):
   XX=            -17.7269   YY=            -17.7322   ZZ=            -17.7365
   XY=              0.0012   XZ=              0.0013   YZ=             -0.0006
 Traceless Quadrupole moment (field-independent basis, Debye-Ang):
   XX=              0.0050   YY=             -0.0003   ZZ=             -0.0047
   XY=              0.0012   XZ=              0.0013   YZ=             -0.0006
 Octapole moment (field-independent basis, Debye-Ang**2):
  XXX=             51.6981  YYY=              0.1796  ZZZ=              0.1951  XYY=             17.2398
  XXY=              0.0561  XXZ=              0.0630  XZZ=             17.2433  YZZ=              0.0600
  YYZ=              0.0657  XYZ=              0.0000
 Hexadecapole moment (field-independent basis, Debye-Ang**3):
 XXXX=           -119.0395 YYYY=            -18.5409 ZZZZ=            -18.5577 XXXY=             -0.1665
 XXXZ=             -0.1860 YYYX=             -0.1691 YYYZ=             -0.0005 ZZZX=             -0.1867
 ZZZY=             -0.0008 XXYY=            -22.9354 XXZZ=            -22.9408 YYZZ=             -6.1829
 XXYZ=             -0.0008 YYXZ=             -0.0621 ZZXY=             -0.0559
 N-N= 0.000000000000D+00 E-N=-6.582553919621D+03  KE= 2.752039052104D+03
 Leave Link  601 at Mon Mar 30 18:17:39 2020, MaxMem=  2147483648 cpu:               0.4 elap:               0.0
 (Enter /usr/local/g16/g16/l122.exe)
 CPIOFr:  IOpCl= 0 IRwI=-1 IRwCP=  731 ICalc=  2 LCPTot=       59414 Len1MO=      159453 IndFrg=      537773
 Counterpoise: doing calculation for fragment   1 using the basis set of the fragment.
 Leave Link  122 at Mon Mar 30 18:17:39 2020, MaxMem=  2147483648 cpu:               0.0 elap:               0.0
 (Enter /usr/local/g16/g16/l301.exe)
 Basis read from rwf:  (5D, 7F)
 No pseudopotential information found on rwf file.
 There are   160 symmetry adapted cartesian basis functions of A   symmetry.
 There are   138 symmetry adapted basis functions of A   symmetry.
   138 basis functions,   198 primitive gaussians,   160 cartesian basis functions
     9 alpha electrons        9 beta electrons
       nuclear repulsion energy        36.6499455753 Hartrees.
 IExCor=    0 DFT=F Ex=HF Corr=None ExCW=0 ScaHFX=  1.000000
 ScaDFX=  1.000000  1.000000  1.000000  1.000000 ScalE2=  1.000000  1.000000
 IRadAn=      5 IRanWt=     -1 IRanGd=            0 ICorTp=0 IEmpDi=  4
 NAtoms=    5 NActive=    4 NUniq=    4 SFac= 1.00D+00 NAtFMM=   60 NAOKFM=F Big=F
 Integral buffers will be    131072 words long.
 Raffenetti 1 integral format.
 Two-electron integral symmetry is turned on.
 No density basis found on file   718.
 Leave Link  301 at Mon Mar 30 18:17:39 2020, MaxMem=  2147483648 cpu:               0.4 elap:               0.0
 (Enter /usr/local/g16/g16/l302.exe)
 NPDir=0 NMtPBC=     1 NCelOv=     1 NCel=       1 NClECP=     1 NCelD=      1
         NCelK=      1 NCelE2=     1 NClLst=     1 CellRange=     0.0.
 One-electron integrals computed using PRISM.
 One-electron integral symmetry used in STVInt
 NBasis=   138 RedAO= T EigKep=  2.36D-04  NBF=   138
 NBsUse=   138 1.00D-06 EigRej= -1.00D+00 NBFU=   138
 Leave Link  302 at Mon Mar 30 18:17:39 2020, MaxMem=  2147483648 cpu:               1.4 elap:               0.1
 (Enter /usr/local/g16/g16/l303.exe)
 DipDrv:  MaxL=1.
 Leave Link  303 at Mon Mar 30 18:17:39 2020, MaxMem=  2147483648 cpu:               0.3 elap:               0.0
 (Enter /usr/local/g16/g16/l401.exe)
 ExpMin= 2.53D-02 ExpMax= 1.53D+04 ExpMxC= 5.22D+02 IAcc=3 IRadAn=         5 AccDes= 0.00D+00
 Harris functional with IExCor=  205 and IRadAn=       5 diagonalized for initial guess.
 HarFok:  IExCor=  205 AccDes= 0.00D+00 IRadAn=         5 IDoV= 1 UseB2=F ITyADJ=14
 ICtDFT=  3500011 ScaDFX=  1.000000  1.000000  1.000000  1.000000
 FoFCou: FMM=F IPFlag=           0 FMFlag=      100000 FMFlg1=           0
         NFxFlg=           0 DoJE=T BraDBF=F KetDBF=T FulRan=T
         wScrn=  0.000000 ICntrl=       500 IOpCl=  0 I1Cent=   200000004 NGrid=           0
         NMat0=    1 NMatS0=      1 NMatT0=    0 NMatD0=    1 NMtDS0=    0 NMtDT0=    0
 Petite list used in FoFCou.
 Harris En= -150.934600191415    
 JPrj=0 DoOrth=F DoCkMO=F.
 Leave Link  401 at Mon Mar 30 18:17:39 2020, MaxMem=  2147483648 cpu:               2.3 elap:               0.1
 (Enter /usr/local/g16/g16/l502.exe)
 Keep R1 ints in memory in canonical form, NReq=53860811.
 FoFCou: FMM=F IPFlag=           0 FMFlag=           0 FMFlg1=           0
         NFxFlg=           0 DoJE=F BraDBF=F KetDBF=F FulRan=T
         wScrn=  0.000000 ICntrl=       600 IOpCl=  0 I1Cent=           0 NGrid=           0
         NMat0=    1 NMatS0=   9591 NMatT0=    0 NMatD0=    1 NMtDS0=    0 NMtDT0=    0
 Symmetry not used in FoFCou.
 Two-electron integral symmetry not used.
 Closed shell SCF:
 Using DIIS extrapolation, IDIIS=  1040.
 NGot=  2147483648 LenX=  2101430001 LenY=  2101403960
 Requested convergence on RMS density matrix=1.00D-08 within 128 cycles.
 Requested convergence on MAX density matrix=1.00D-06.
 Requested convergence on             energy=1.00D-06.
 No special actions if energy rises.

 Cycle   1  Pass 1  IDiag  1:
 E= -150.767537154257    
 DIIS: error= 3.72D-02 at cycle   1 NSaved=   1.
 NSaved= 1 IEnMin= 1 EnMin= -150.767537154257     IErMin= 1 ErrMin= 3.72D-02
 ErrMax= 3.72D-02  0.00D+00 EMaxC= 1.00D-01 BMatC= 2.29D-01 BMatP= 2.29D-01
 IDIUse=3 WtCom= 6.28D-01 WtEn= 3.72D-01
 Coeff-Com:  0.100D+01
 Coeff-En:   0.100D+01
 Coeff:      0.100D+01
 Gap=     0.700 Goal=   None    Shift=    0.000
 GapD=    0.700 DampG=2.000 DampE=0.500 DampFc=1.0000 IDamp=-1.
 RMSDP=1.28D-03 MaxDP=2.85D-02              OVMax= 6.69D-02

 Cycle   2  Pass 1  IDiag  1:
 E= -150.821824301353     Delta-E=       -0.054287147096 Rises=F Damp=F
 DIIS: error= 1.06D-02 at cycle   2 NSaved=   2.
 NSaved= 2 IEnMin= 2 EnMin= -150.821824301353     IErMin= 2 ErrMin= 1.06D-02
 ErrMax= 1.06D-02  0.00D+00 EMaxC= 1.00D-01 BMatC= 1.72D-02 BMatP= 2.29D-01
 IDIUse=3 WtCom= 8.94D-01 WtEn= 1.06D-01
 Coeff-Com:  0.113D+00 0.887D+00
 Coeff-En:   0.000D+00 0.100D+01
 Coeff:      0.101D+00 0.899D+00
 Gap=     0.531 Goal=   None    Shift=    0.000
 RMSDP=7.41D-04 MaxDP=2.52D-02 DE=-5.43D-02 OVMax= 2.95D-02

 Cycle   3  Pass 1  IDiag  1:
 E= -150.830563196915     Delta-E=       -0.008738895561 Rises=F Damp=F
 DIIS: error= 4.29D-03 at cycle   3 NSaved=   3.
 NSaved= 3 IEnMin= 3 EnMin= -150.830563196915     IErMin= 3 ErrMin= 4.29D-03
 ErrMax= 4.29D-03  0.00D+00 EMaxC= 1.00D-01 BMatC= 2.51D-03 BMatP= 1.72D-02
 IDIUse=3 WtCom= 9.57D-01 WtEn= 4.29D-02
 Coeff-Com: -0.211D-01 0.255D+00 0.766D+00
 Coeff-En:   0.000D+00 0.000D+00 0.100D+01
 Coeff:     -0.202D-01 0.244D+00 0.776D+00
 Gap=     0.501 Goal=   None    Shift=    0.000
 RMSDP=1.72D-04 MaxDP=4.44D-03 DE=-8.74D-03 OVMax= 9.78D-03

 Cycle   4  Pass 1  IDiag  1:
 E= -150.832132610496     Delta-E=       -0.001569413581 Rises=F Damp=F
 DIIS: error= 4.24D-04 at cycle   4 NSaved=   4.
 NSaved= 4 IEnMin= 4 EnMin= -150.832132610496     IErMin= 4 ErrMin= 4.24D-04
 ErrMax= 4.24D-04  0.00D+00 EMaxC= 1.00D-01 BMatC= 1.69D-05 BMatP= 2.51D-03
 IDIUse=3 WtCom= 9.96D-01 WtEn= 4.24D-03
 Coeff-Com: -0.185D-02-0.118D-01 0.119D-01 0.100D+01
 Coeff-En:   0.000D+00 0.000D+00 0.000D+00 0.100D+01
 Coeff:     -0.184D-02-0.118D-01 0.119D-01 0.100D+01
 Gap=     0.502 Goal=   None    Shift=    0.000
 RMSDP=2.48D-05 MaxDP=4.35D-04 DE=-1.57D-03 OVMax= 1.42D-03

 Cycle   5  Pass 1  IDiag  1:
 E= -150.832156248940     Delta-E=       -0.000023638445 Rises=F Damp=F
 DIIS: error= 1.34D-04 at cycle   5 NSaved=   5.
 NSaved= 5 IEnMin= 5 EnMin= -150.832156248940     IErMin= 5 ErrMin= 1.34D-04
 ErrMax= 1.34D-04  0.00D+00 EMaxC= 1.00D-01 BMatC= 1.60D-06 BMatP= 1.69D-05
 IDIUse=3 WtCom= 9.99D-01 WtEn= 1.34D-03
 Coeff-Com:  0.175D-02-0.170D-01-0.594D-01-0.161D+00 0.124D+01
 Coeff-En:   0.000D+00 0.000D+00 0.000D+00 0.000D+00 0.100D+01
 Coeff:      0.175D-02-0.169D-01-0.593D-01-0.161D+00 0.124D+01
 Gap=     0.503 Goal=   None    Shift=    0.000
 RMSDP=1.36D-05 MaxDP=2.75D-04 DE=-2.36D-05 OVMax= 9.07D-04

 Cycle   6  Pass 1  IDiag  1:
[...]
 Closed shell SCF:
 Using DIIS extrapolation, IDIIS=  1040.
 NGot=  2147483648 LenX=  2101430001 LenY=  2101403960
 Requested convergence on RMS density matrix=1.00D-08 within 128 cycles.
 Requested convergence on MAX density matrix=1.00D-06.
 Requested convergence on             energy=1.00D-06.
 No special actions if energy rises.

 Cycle   1  Pass 1  IDiag  1:
 E= -150.832160504572    
 DIIS: error= 1.06D-10 at cycle   1 NSaved=   1.
 NSaved= 1 IEnMin= 1 EnMin= -150.832160504572     IErMin= 1 ErrMin= 1.06D-10
 ErrMax= 1.06D-10  0.00D+00 EMaxC= 1.00D-01 BMatC= 1.45D-18 BMatP= 1.45D-18
 IDIUse=1 WtCom= 1.00D+00 WtEn= 0.00D+00
 Coeff-Com:  0.100D+01
 Coeff:      0.100D+01
 Gap=     0.873 Goal=   None    Shift=    0.000
 RMSDP=6.79D-12 MaxDP=2.03D-10              OVMax= 4.82D-10

 SCF Done:  E(RHF) =  -150.832160505     A.U. after    1 cycles
            NFock=  1  Conv=0.68D-11     -V/T= 2.0020
 KE= 1.505360279071D+02 PE=-4.314924019126D+02 EE= 9.347426792567D+01
 Leave Link  502 at Mon Mar 30 19:33:35 2020, MaxMem=  2147483648 cpu:               7.0 elap:               0.5
 (Enter /usr/local/g16/g16/l801.exe)
 Windowed orbitals will be sorted by symmetry type.
 ExpMin= 2.53D-02 ExpMax= 1.53D+04 ExpMxC= 5.22D+02 IAcc=3 IRadAn=         5 AccDes= 0.00D+00
 HarFok:  IExCor=  205 AccDes= 0.00D+00 IRadAn=         5 IDoV=-2 UseB2=F ITyADJ=14
 ICtDFT= 12500011 ScaDFX=  1.000000  1.000000  1.000000  1.000000
 Largest valence mixing into a core orbital is  1.19D-04
 Largest core mixing into a valence orbital is  2.07D-05
 Range of M.O.s used for correlation:     3   138
 NBasis=   138 NAE=     9 NBE=     9 NFC=     2 NFV=     0
 NROrb=    136 NOA=     7 NOB=     7 NVA=   129 NVB=   129

 **** Warning!!: The largest alpha MO coefficient is  0.15839147D+02

 Leave Link  801 at Mon Mar 30 19:33:35 2020, MaxMem=  2147483648 cpu:               0.7 elap:               0.0
 (Enter /usr/local/g16/g16/l804.exe)
 Closed-shell transformation, MDV=  2147483648 ITran=4 ISComp=1.
 Semi-Direct transformation.
 ModeAB=           2 MOrb=             7 LenV=    2146849405
 LASXX=      8463147 LTotXX=     8463147 LenRXX=     8463147
 LTotAB=     8647912 MaxLAS=    12261760 LenRXY=    12261760
 NonZer=    16926294 LenScr=    26146816 LnRSAI=           0
 LnScr1=           0 LExtra=           0 Total=     46871723
 MaxDsk=          -1 SrtSym=           F ITran=            4
 DoSDTr:  NPSUse= 16
 JobTyp=0 Pass  1:  I=   1 to   7.
 (rs|ai) integrals will be sorted in core.
 Complete sort for first half transformation.
 First half transformation complete.
 Complete sort for second half transformation.
 Second half transformation complete.
 SymMOI:  orbitals are not symmetric.
 Spin components of T(2) and E(2):
     alpha-alpha T2 =       0.1605795356D-01 E2=     -0.6287112291D-01
     alpha-beta  T2 =       0.9338625316D-01 E2=     -0.3820014389D+00
     beta-beta   T2 =       0.1605795356D-01 E2=     -0.6287112291D-01
 ANorm=    0.1060896866D+01
 E2 =    -0.5077436847D+00 EUMP2 =    -0.15133990418927D+03
 Leave Link  804 at Mon Mar 30 19:33:36 2020, MaxMem=  2147483648 cpu:              27.4 elap:               1.7
 (Enter /usr/local/g16/g16/l913.exe)
 CIDS:  MDV=  2147483648.
 Frozen-core window:  NFC=   2 NFV=   0.
 IFCWin=0 IBDFC=1 NFBD=     0     0 NFCmp=     0     0 NFFFC=     0     0
 Using DD3R+UMP44R for 1st iteration.
 Using DD4RQ for 2nd and later iterations.
 Keep R2 and R3 ints in memory in canonical form, NReq=99863705.
 FoFCou: FMM=F IPFlag=           0 FMFlag=           0 FMFlg1=           0
         NFxFlg=           0 DoJE=F BraDBF=F KetDBF=F FulRan=T
         wScrn=  0.000000 ICntrl=       600 IOpCl=  0 I1Cent=           0 NGrid=           0
         NMat0=    1 NMatS0=   9591 NMatT0=    0 NMatD0=    1 NMtDS0=    0 NMtDT0=    0
 Symmetry not used in FoFCou.
 Two-electron integral symmetry not used.
 CIDS: In Core Option IDoMem=           1.
 MP4(SDTQ)
 =========
 Produce multiple copies of IABC intergrals
 DD1Dir will call FoFMem   1 times, MxPair=        56
 NAB=    28 NAA=     0 NBB=     0.
 MP4(D)= -0.11245890D-01
 MP4(S)= -0.52219819D-02
 MP4(R+Q)=  0.10807011D-01
 T4(AAA)= -0.66371824D-03
 T4(AAB)= -0.10306261D-01
 Time for triples=       93.24 seconds.
 MP4(T)=   -0.21939958D-01
 E3=       -0.20247301D-02        EUMP3=      -0.15134192892D+03
 E4(DQ)=   -0.43887920D-03        UMP4(DQ)=   -0.15134236780D+03
 E4(SDQ)=  -0.56608611D-02        UMP4(SDQ)=  -0.15134758978D+03
 E4(SDTQ)= -0.27600819D-01        UMP4(SDTQ)= -0.15136952974D+03
 VARIATIONAL ENERGIES WITH THE FIRST-ORDER WAVEFUNCTION:
 E(VAR1)=  -0.15128508581D+03     E(CISD,4)=  -0.15129467386D+03
 Largest amplitude= 4.70D-02
 Discarding MO integrals.
 Leave Link  913 at Mon Mar 30 19:33:44 2020, MaxMem=  2147483648 cpu:             117.2 elap:               7.3
 (Enter /usr/local/g16/g16/l122.exe)
 CPIOFr:  IOpCl= 0 IRwI=-1 IRwCP=  731 ICalc=  3 LCPTot=       59414 Len1MO=      159453 IndFrg=      697226
 Restoring MOs from calculation   5 to rwf and chk.
 CPIOFr:  IOpCl= 0 IRwI=-2 IRwCP=20731 ICalc=  4 LCPTot=       59414 Len1MO=      159453 IndFrg=      856679
 CPIOFr:  IOpCl= 0 IRwI= 4 IRwCP=20731 ICalc=  4 LCPTot=       59414 Len1MO=      159453 IndFrg=      856679
 Counterpoise: doing calculation for fragment   2 using the basis set of the fragment.
 Leave Link  122 at Mon Mar 30 19:33:44 2020, MaxMem=  2147483648 cpu:               0.0 elap:               0.0
 (Enter /usr/local/g16/g16/l301.exe)
 Basis read from rwf:  (5D, 7F)
 No pseudopotential information found on rwf file.
 There are    69 symmetry adapted cartesian basis functions of A   symmetry.
 There are    59 symmetry adapted basis functions of A   symmetry.
    59 basis functions,   217 primitive gaussians,    69 cartesian basis functions
    18 alpha electrons       18 beta electrons
       nuclear repulsion energy         0.0000000000 Hartrees.
 IExCor=    0 DFT=F Ex=HF Corr=None ExCW=0 ScaHFX=  1.000000
 ScaDFX=  1.000000  1.000000  1.000000  1.000000 ScalE2=  1.000000  1.000000
 IRadAn=      5 IRanWt=     -1 IRanGd=            0 ICorTp=0 IEmpDi=  4
 NAtoms=    5 NActive=    1 NUniq=    1 SFac= 1.00D+00 NAtFMM=   60 NAOKFM=F Big=F
 Integral buffers will be    131072 words long.
 Raffenetti 1 integral format.
 Two-electron integral symmetry is turned on.
 No density basis found on file   718.
 Leave Link  301 at Mon Mar 30 19:33:44 2020, MaxMem=  2147483648 cpu:               0.4 elap:               0.0
 (Enter /usr/local/g16/g16/l302.exe)
 NPDir=0 NMtPBC=     1 NCelOv=     1 NCel=       1 NClECP=     1 NCelD=      1
         NCelK=      1 NCelE2=     1 NClLst=     1 CellRange=     0.0.
 One-electron integrals computed using PRISM.
 One-electron integral symmetry used in STVInt
 NBasis=    59 RedAO= T EigKep=  1.06D-02  NBF=    59
 NBsUse=    59 1.00D-06 EigRej= -1.00D+00 NBFU=    59
 Leave Link  302 at Mon Mar 30 19:33:44 2020, MaxMem=  2147483648 cpu:               1.3 elap:               0.1
 (Enter /usr/local/g16/g16/l303.exe)
 DipDrv:  MaxL=1.
 Leave Link  303 at Mon Mar 30 19:33:44 2020, MaxMem=  2147483648 cpu:               0.3 elap:               0.0
 (Enter /usr/local/g16/g16/l401.exe)
 Initial guess from the checkpoint file:  "/mnt/driveB/scratch/matheus/Gau-24716.chk"
 B after Tr=    -0.062989    0.000079    0.000086
         Rot=    1.000000    0.000000    0.000000    0.000000 Ang=   0.00 deg.
 Guess basis will be translated and rotated to current coordinates.
 JPrj=2 DoOrth=T DoCkMO=T.
 Generating alternative initial guess.
 ExpMin= 4.00D-02 ExpMax= 1.17D+07 ExpMxC= 1.33D+04 IAcc=3 IRadAn=         5 AccDes= 0.00D+00
 Harris functional with IExCor=  205 and IRadAn=       5 diagonalized for initial guess.
 HarFok:  IExCor=  205 AccDes= 0.00D+00 IRadAn=         5 IDoV= 1 UseB2=F ITyADJ=14
 ICtDFT=  3500011 ScaDFX=  1.000000  1.000000  1.000000  1.000000
 FoFCou: FMM=F IPFlag=           0 FMFlag=      100000 FMFlg1=           0
         NFxFlg=           0 DoJE=T BraDBF=F KetDBF=T FulRan=T
         wScrn=  0.000000 ICntrl=       500 IOpCl=  0 I1Cent=   200000004 NGrid=           0
         NMat0=    1 NMatS0=      1 NMatT0=    0 NMatD0=    1 NMtDS0=    0 NMtDT0=    0
 Petite list used in FoFCou.
 Harris En= -2751.05937170533    
 Leave Link  401 at Mon Mar 30 19:33:44 2020, MaxMem=  2147483648 cpu:               2.4 elap:               0.2
 (Enter /usr/local/g16/g16/l502.exe)
 Keep R1 ints in memory in canonical form, NReq=14291944.
 FoFCou: FMM=F IPFlag=           0 FMFlag=           0 FMFlg1=           0
         NFxFlg=           0 DoJE=F BraDBF=F KetDBF=F FulRan=T
         wScrn=  0.000000 ICntrl=       600 IOpCl=  0 I1Cent=           0 NGrid=           0
         NMat0=    1 NMatS0=   1770 NMatT0=    0 NMatD0=    1 NMtDS0=    0 NMtDT0=    0
 Symmetry not used in FoFCou.
 Two-electron integral symmetry not used.
 Closed shell SCF:
 Using DIIS extrapolation, IDIIS=  1040.
 NGot=  2147483648 LenX=  2145904888 LenY=  2145899686
 Requested convergence on RMS density matrix=1.00D-08 within 128 cycles.
 Requested convergence on MAX density matrix=1.00D-06.
 Requested convergence on             energy=1.00D-06.
 No special actions if energy rises.

 Cycle   1  Pass 1  IDiag  1:
 E= -2752.05222307625    
 DIIS: error= 5.07D-13 at cycle   1 NSaved=   1.
 NSaved= 1 IEnMin= 1 EnMin= -2752.05222307625     IErMin= 1 ErrMin= 5.07D-13
 ErrMax= 5.07D-13  0.00D+00 EMaxC= 1.00D-01 BMatC= 3.89D-24 BMatP= 3.89D-24
 IDIUse=1 WtCom= 1.00D+00 WtEn= 0.00D+00
 Coeff-Com:  0.100D+01
 Coeff:      0.100D+01
 Gap=     0.719 Goal=   None    Shift=    0.000
 RMSDP=9.85D-15 MaxDP=1.44D-13              OVMax= 1.47D-13

 SCF Done:  E(RHF) =  -2752.05222308     A.U. after    1 cycles
            NFock=  1  Conv=0.98D-14     -V/T= 2.0000
 KE= 2.752048106937D+03 PE=-6.582565276257D+03 EE= 1.078464946243D+03
 Leave Link  502 at Mon Mar 30 19:33:45 2020, MaxMem=  2147483648 cpu:               9.0 elap:               0.6
 (Enter /usr/local/g16/g16/l801.exe)
 Windowed orbitals will be sorted by symmetry type.
 ExpMin= 4.00D-02 ExpMax= 1.17D+07 ExpMxC= 1.33D+04 IAcc=3 IRadAn=         5 AccDes= 0.00D+00
 HarFok:  IExCor=  205 AccDes= 0.00D+00 IRadAn=         5 IDoV=-2 UseB2=F ITyADJ=14
 ICtDFT= 12500011 ScaDFX=  1.000000  1.000000  1.000000  1.000000
 Largest valence mixing into a core orbital is  9.79D-05
 Largest core mixing into a valence orbital is  3.83D-05
 Range of M.O.s used for correlation:    10    59
 NBasis=    59 NAE=    18 NBE=    18 NFC=     9 NFV=     0
 NROrb=     50 NOA=     9 NOB=     9 NVA=    41 NVB=    41
 Leave Link  801 at Mon Mar 30 19:33:45 2020, MaxMem=  2147483648 cpu:               0.4 elap:               0.0
 (Enter /usr/local/g16/g16/l804.exe)
 Closed-shell transformation, MDV=  2147483648 ITran=4 ISComp=1.
 Semi-Direct transformation.
 ModeAB=           2 MOrb=             9 LenV=    2147140326
 LASXX=       482211 LTotXX=      482211 LenRXX=      482211
 LTotAB=      511245 MaxLAS=     1086750 LenRXY=     1086750
 NonZer=     1162350 LenScr=     2357760 LnRSAI=           0
 LnScr1=           0 LExtra=           0 Total=      3926721
 MaxDsk=          -1 SrtSym=           F ITran=            4
 DoSDTr:  NPSUse= 16
 JobTyp=0 Pass  1:  I=   1 to   9.
 (rs|ai) integrals will be sorted in core.
 Complete sort for first half transformation.
 First half transformation complete.
 Complete sort for second half transformation.
 Second half transformation complete.
 SymMOI:  orbitals are not symmetric.
 Spin components of T(2) and E(2):
     alpha-alpha T2 =       0.9484485167D-02 E2=     -0.3552398032D-01
     alpha-beta  T2 =       0.4799866946D-01 E2=     -0.1708433112D+00
     beta-beta   T2 =       0.9484485167D-02 E2=     -0.3552398032D-01
 ANorm=    0.1032941257D+01
 E2 =    -0.2418912719D+00 EUMP2 =    -0.27522941143481D+04
 Leave Link  804 at Mon Mar 30 19:33:45 2020, MaxMem=  2147483648 cpu:               4.9 elap:               0.3
 (Enter /usr/local/g16/g16/l913.exe)
 CIDS:  MDV=  2147483648.
 Frozen-core window:  NFC=   9 NFV=   0.
 IFCWin=0 IBDFC=1 NFBD=     0     0 NFCmp=     0     0 NFFFC=     0     0
 Using DD3R+UMP44R for 1st iteration.
 Using DD4RQ for 2nd and later iterations.
 Keep R2 and R3 ints in memory in canonical form, NReq=15862484.
 FoFCou: FMM=F IPFlag=           0 FMFlag=           0 FMFlg1=           0
         NFxFlg=           0 DoJE=F BraDBF=F KetDBF=F FulRan=T
         wScrn=  0.000000 ICntrl=       600 IOpCl=  0 I1Cent=           0 NGrid=           0
         NMat0=    1 NMatS0=   1770 NMatT0=    0 NMatD0=    1 NMtDS0=    0 NMtDT0=    0
 Symmetry not used in FoFCou.
 Two-electron integral symmetry not used.
 CIDS: In Core Option IDoMem=           1.
 MP4(SDTQ)
 =========
 Produce multiple copies of IABC intergrals
 DD1Dir will call FoFMem   1 times, MxPair=        90
 NAB=    45 NAA=     0 NBB=     0.
 MP4(D)= -0.36913093D-02
 MP4(S)= -0.10734540D-02
 MP4(R+Q)=  0.42077927D-02
 T4(AAA)= -0.32336090D-03
 T4(AAB)= -0.35259699D-02
 Time for triples=        3.34 seconds.
 MP4(T)=   -0.76986616D-02
 E3=       -0.99406389D-02        EUMP3=      -0.27523040550D+04
 E4(DQ)=    0.51648341D-03        UMP4(DQ)=   -0.27523035385D+04
 E4(SDQ)=  -0.55697064D-03        UMP4(SDQ)=  -0.27523046120D+04
 E4(SDTQ)= -0.82556322D-02        UMP4(SDTQ)= -0.27523123106D+04
 VARIATIONAL ENERGIES WITH THE FIRST-ORDER WAVEFUNCTION:
 E(VAR1)=  -0.27522882489D+04     E(CISD,4)=  -0.27522926209D+04
 Largest amplitude= 2.13D-02
 Discarding MO integrals.
 Leave Link  913 at Mon Mar 30 19:33:46 2020, MaxMem=  2147483648 cpu:              13.4 elap:               0.8
 (Enter /usr/local/g16/g16/l122.exe)
 CPIOFr:  IOpCl= 0 IRwI=-1 IRwCP=  731 ICalc=  4 LCPTot=       59414 Len1MO=      159453 IndFrg=      856679
 Restoring MOs from calculation   1 to rwf.
 CPIOFr:  IOpCl= 0 IRwI=-2 IRwCP=  731 ICalc=  0 LCPTot=       59414 Len1MO=      159453 IndFrg=      218867
 Counterpoise corrected energy =   -2903.682161145998
                   BSSE energy =       0.000243576419
              sum of fragments =   -2903.681840357798
           complexation energy =      -0.35 kcal/mole (raw)
           complexation energy =      -0.20 kcal/mole (corrected)
 Leave Link  122 at Mon Mar 30 19:33:46 2020, MaxMem=  2147483648 cpu:               0.1 elap:               0.0
 (Enter /usr/local/g16/g16/l108.exe)
 Scan completed.
 
 Summary of the potential surface scan, energies are +2752 a.u.:
   N      R1          SCF          MP2          MP3         MP4DQ       MP4SDQ       MP4SDTQ  
 ----  ---------  -----------  -----------  -----------  -----------  -----------  -----------
    1     3.0000     -0.05222     -0.29411     -0.30405     -0.30354     -0.30461     -0.31231
    2     3.1000     -0.05222     -0.29411     -0.30405     -0.30354     -0.30461     -0.31231
    3     3.2000     -0.05222     -0.29411     -0.30405     -0.30354     -0.30461     -0.31231
    4     3.3000     -0.05222     -0.29411     -0.30405     -0.30354     -0.30461     -0.31231
    5     3.4000     -0.05222     -0.29411     -0.30405     -0.30354     -0.30461     -0.31231
    6     3.5000     -0.05222     -0.29411     -0.30405     -0.30354     -0.30461     -0.31231
    7     3.6000     -0.05222     -0.29411     -0.30405     -0.30354     -0.30461     -0.31231
    8     3.7000     -0.05222     -0.29411     -0.30405     -0.30354     -0.30461     -0.31231
    9     3.8000     -0.05222     -0.29411     -0.30405     -0.30354     -0.30461     -0.31231
   10     3.9000     -0.05222     -0.29411     -0.30405     -0.30354     -0.30461     -0.31231
   11     4.0000     -0.05222     -0.29411     -0.30405     -0.30354     -0.30461     -0.31231
   12     4.1000     -0.05222     -0.29411     -0.30405     -0.30354     -0.30461     -0.31231
   13     4.2000     -0.05222     -0.29411     -0.30405     -0.30354     -0.30461     -0.31231
   14     4.3000     -0.05222     -0.29411     -0.30405     -0.30354     -0.30461     -0.31231
   15     4.4000     -0.05222     -0.29411     -0.30405     -0.30354     -0.30461     -0.31231
   16     4.5000     -0.05222     -0.29411     -0.30405     -0.30354     -0.30461     -0.31231
   17     4.6000     -0.05222     -0.29411     -0.30405     -0.30354     -0.30461     -0.31231
   18     4.7000     -0.05222     -0.29411     -0.30405     -0.30354     -0.30461     -0.31231
   19     4.8000     -0.05222     -0.29411     -0.30405     -0.30354     -0.30461     -0.31231
   20     4.9000     -0.05222     -0.29411     -0.30405     -0.30354     -0.30461     -0.31231
   21     5.0000     -0.05222     -0.29411     -0.30405     -0.30354     -0.30461     -0.31231
 ----  ---------  -----------  -----------  -----------  -----------  -----------  -----------
  
 Leave Link  108 at Mon Mar 30 19:33:46 2020, MaxMem=  2147483648 cpu:               0.1 elap:               0.0
 (Enter /usr/local/g16/g16/l9999.exe)
 1\1\GINC-ARTHUR-MS-7B09\Scan\RMP4SDTQ-FC\Aug-CC-pVTZ\H2Kr1O2\MATHEUS\3
 0-Mar-2020\1\\#p mp4/aug-cc-PVTz int=ultrafine counterpoise=2 Scan\\PT
 CC\\0,1\O,0,0.,0.,0.725\O,0,0.,0.,-0.725\H,0,0.7037808064,0.5905422151
 ,1.0235104166\H,0,0.,0.9187205947,-1.0235104166\Kr,0,0.,R1,0.\\R1=3.,s
 ,20,0.1\\Version=ES64L-G16RevA.03\HF=-2752.0522231,-2752.0522231,-2752
 .0522231,-2752.0522231,-2752.0522231,-2752.0522231,-2752.0522231,-2752
 .0522231,-2752.0522231,-2752.0522231,-2752.0522231,-2752.0522231,-2752
 .0522231,-2752.0522231,-2752.0522231,-2752.0522231,-2752.0522231,-2752
 .0522231,-2752.0522231,-2752.0522231,-2752.0522231\MP2=-2752.2941143,-
 2752.2941143,-2752.2941143,-2752.2941143,-2752.2941143,-2752.2941143,-
 2752.2941143,-2752.2941143,-2752.2941143,-2752.2941143,-2752.2941143,-
 2752.2941143,-2752.2941143,-2752.2941143,-2752.2941143,-2752.2941143,-
 2752.2941143,-2752.2941143,-2752.2941143,-2752.2941143,-2752.2941143\M
 P3=-2752.304055,-2752.304055,-2752.304055,-2752.304055,-2752.304055,-2
 752.304055,-2752.304055,-2752.304055,-2752.304055,-2752.304055,-2752.3
 04055,-2752.304055,-2752.304055,-2752.304055,-2752.304055,-2752.304055
 ,-2752.304055,-2752.304055,-2752.304055,-2752.304055,-2752.304055\MP4D
 =-2752.3077463,-2752.3077463,-2752.3077463,-2752.3077463,-2752.3077463
 ,-2752.3077463,-2752.3077463,-2752.3077463,-2752.3077463,-2752.3077463
 ,-2752.3077463,-2752.3077463,-2752.3077463,-2752.3077463,-2752.3077463
 ,-2752.3077463,-2752.3077463,-2752.3077463,-2752.3077463,-2752.3077463
 ,-2752.3077463\MP4DQ=-2752.3035385,-2752.3035385,-2752.3035385,-2752.3
 035385,-2752.3035385,-2752.3035385,-2752.3035385,-2752.3035385,-2752.3
 035385,-2752.3035385,-2752.3035385,-2752.3035385,-2752.3035385,-2752.3
 035385,-2752.3035385,-2752.3035385,-2752.3035385,-2752.3035385,-2752.3
 035385,-2752.3035385,-2752.3035385\MP4SDQ=-2752.304612,-2752.304612,-2
 752.304612,-2752.304612,-2752.304612,-2752.304612,-2752.304612,-2752.3
 04612,-2752.304612,-2752.304612,-2752.304612,-2752.304612,-2752.304612
 ,-2752.304612,-2752.304612,-2752.304612,-2752.304612,-2752.304612,-275
 2.304612,-2752.304612,-2752.304612\MP4SDTQ=-2752.3123106,-2752.3123106
 ,-2752.3123106,-2752.3123106,-2752.3123106,-2752.3123106,-2752.3123106
 ,-2752.3123106,-2752.3123106,-2752.3123106,-2752.3123106,-2752.3123106
 ,-2752.3123106,-2752.3123106,-2752.3123106,-2752.3123106,-2752.3123106
 ,-2752.3123106,-2752.3123106,-2752.3123106,-2752.3123106\RMSD=9.887e-1
 0,1.149e-10,2.884e-11,7.212e-12,1.871e-12,4.683e-13,1.349e-13,3.485e-1
 4,2.119e-14,1.135e-14,6.963e-15,6.330e-15,6.154e-15,4.304e-15,5.953e-1
 5,9.704e-15,8.080e-15,1.009e-14,1.092e-14,1.269e-14,9.845e-15\PG=C01 [
 X(H2Kr1O2)]\\@


 A CHEMICAL PHYSICIST MAKES PRECISE MEASUREMENTS ON IMPURE COMPOUNDS.
 A THEORETICAL PHYSICAL CHEMIST MAKES IMPRECISE
     MEASUREMENTS ON PURE COMPOUNDS.
 AN EXPERIMENTAL PHYSICAL CHEMIST MAKES IMPRECISE
     MEASUREMENTS ON IMPURE COMPOUNDS.
 Job cpu time:       0 days 20 hours 46 minutes 34.9 seconds.
 Elapsed time:       0 days  1 hours 19 minutes  8.7 seconds.
 File lengths (MBytes):  RWF=   4068 Int=      0 D2E=      0 Chk=     12 Scr=      1
 Normal termination of Gaussian 16 at Mon Mar 30 19:33:46 2020.
