 Entering Gaussian System, Link 0=g16
 Input=Inputs/H2O2-Kr_18.com
 Output=Logs/H2O2-Kr_18.log
 Initial command:
 /usr/local/g16/g16/l1.exe "/mnt/driveB/scratch/matheus/Gau-124900.inp" -scrdir="/mnt/driveB/scratch/matheus/"
 Entering Link 1 = /usr/local/g16/g16/l1.exe PID=    124902.
  
 Copyright (c) 1988,1990,1992,1993,1995,1998,2003,2009,2016,
            Gaussian, Inc.  All Rights Reserved.
  
 This is part of the Gaussian(R) 16 program.  It is based on
 the Gaussian(R) 09 system (copyright 2009, Gaussian, Inc.),
 the Gaussian(R) 03 system (copyright 2003, Gaussian, Inc.),
 the Gaussian(R) 98 system (copyright 1998, Gaussian, Inc.),
 the Gaussian(R) 94 system (copyright 1995, Gaussian, Inc.),
 the Gaussian 92(TM) system (copyright 1992, Gaussian, Inc.),
 the Gaussian 90(TM) system (copyright 1990, Gaussian, Inc.),
 the Gaussian 88(TM) system (copyright 1988, Gaussian, Inc.),
 the Gaussian 86(TM) system (copyright 1986, Carnegie Mellon
 University), and the Gaussian 82(TM) system (copyright 1983,
 Carnegie Mellon University). Gaussian is a federally registered
 trademark of Gaussian, Inc.
  
 This software contains proprietary and confidential information,
 including trade secrets, belonging to Gaussian, Inc.
  
 This software is provided under written license and may be
 used, copied, transmitted, or stored only in accord with that
 written license.
  
 The following legend is applicable only to US Government
 contracts under FAR:
  
                    RESTRICTED RIGHTS LEGEND
  
 Use, reproduction and disclosure by the US Government is
 subject to restrictions as set forth in subparagraphs (a)
 and (c) of the Commercial Computer Software - Restricted
 Rights clause in FAR 52.227-19.
  
 Gaussian, Inc.
 340 Quinnipiac St., Bldg. 40, Wallingford CT 06492
  
  
 ---------------------------------------------------------------
 Warning -- This program may not be used in any manner that
 competes with the business of Gaussian, Inc. or will provide
 assistance to any competitor of Gaussian, Inc.  The licensee
 of this program is prohibited from giving any competitor of
 Gaussian, Inc. access to this program.  By using this program,
 the user acknowledges that Gaussian, Inc. is engaged in the
 business of creating and licensing software in the field of
 computational chemistry and represents and warrants to the
 licensee that it is not a competitor of Gaussian, Inc. and that
 it will not use this program in any manner prohibited above.
 ---------------------------------------------------------------
  

 Cite this work as:
 Gaussian 16, Revision A.03,
 M. J. Frisch, G. W. Trucks, H. B. Schlegel, G. E. Scuseria, 
 M. A. Robb, J. R. Cheeseman, G. Scalmani, V. Barone, 
 G. A. Petersson, H. Nakatsuji, X. Li, M. Caricato, A. V. Marenich, 
 J. Bloino, B. G. Janesko, R. Gomperts, B. Mennucci, H. P. Hratchian, 
 J. V. Ortiz, A. F. Izmaylov, J. L. Sonnenberg, D. Williams-Young, 
 F. Ding, F. Lipparini, F. Egidi, J. Goings, B. Peng, A. Petrone, 
 T. Henderson, D. Ranasinghe, V. G. Zakrzewski, J. Gao, N. Rega, 
 G. Zheng, W. Liang, M. Hada, M. Ehara, K. Toyota, R. Fukuda, 
 J. Hasegawa, M. Ishida, T. Nakajima, Y. Honda, O. Kitao, H. Nakai, 
 T. Vreven, K. Throssell, J. A. Montgomery, Jr., J. E. Peralta, 
 F. Ogliaro, M. J. Bearpark, J. J. Heyd, E. N. Brothers, K. N. Kudin, 
 V. N. Staroverov, T. A. Keith, R. Kobayashi, J. Normand, 
 K. Raghavachari, A. P. Rendell, J. C. Burant, S. S. Iyengar, 
 J. Tomasi, M. Cossi, J. M. Millam, M. Klene, C. Adamo, R. Cammi, 
 J. W. Ochterski, R. L. Martin, K. Morokuma, O. Farkas, 
 J. B. Foresman, and D. J. Fox, Gaussian, Inc., Wallingford CT, 2016.
 
 ******************************************
 Gaussian 16:  ES64L-G16RevA.03 25-Dec-2016
                 1-Apr-2020 
 ******************************************
 %mem=16GB
 %nproc=16
 Will use up to   16 processors via shared memory.
 ----------------------------------------------------
 #p mp4/aug-cc-PVTz int=ultrafine counterpoise=2 Scan
 ----------------------------------------------------
 1/38=1,60=1,62=2,172=1/1,8;
 2/12=2,17=6,18=5,29=3,40=1/2;
 1/38=1,53=2,62=2,63=1/22;
 3/5=16,6=1,7=10,11=9,25=1,30=1,75=-5/1,2,3;
 4//1;
 5/5=2,38=5/2;
 8/6=4,9=120000,10=1/1,4;
 9/5=5/13;
 6/7=2,8=2,9=2,10=2,18=1/1;
 1/53=2,62=2,63=1/22;
 3/5=7,6=11,7=10,11=9,25=1,30=1,75=-5,82=7/1,2,3;
 4//1;
 5/5=2,38=5/2;
 8/6=4,9=120000,10=1/1,4;
 9/5=5/13;
 6/7=2,8=2,9=2,10=2,18=1/1;
 1/53=2,62=2,63=1/22(-6);
 1/60=1,62=2/8(1);
 99/9=1/99;
 2/29=3/2;
 1/53=3,62=2,63=1/22;
 3/5=7,6=11,7=10,11=9,25=1,30=1,75=-5,82=7/1,2,3;
 4/5=5,16=3,69=1/1;
 5/5=2,38=5/2;
 8/6=4,9=120000,10=1/1,4;
 9/5=5/13;
 1/53=3,62=2,63=1/22(-5);
 1/60=1,62=2/8(-8);
 99/9=1/99;
 Leave Link    1 at Wed Apr  1 13:00:12 2020, MaxMem=  2147483648 cpu:               0.3 elap:               0.0
 (Enter /usr/local/g16/g16/l101.exe)
 ----
 PTCC
 ----
 Symbolic Z-matrix:
 Charge =  0 Multiplicity = 1 in supermolecule
 Charge =  0 Multiplicity = 1 in fragment      1.
 Charge =  0 Multiplicity = 1 in fragment      2.
 O(Fragment=1)         0.        0.        0.725 
 O(Fragment=1)         0.        0.       -0.725 
 H(Fragment=1)         0.       -0.91872   1.02351 
 H(Fragment=1)         0.        0.91872  -1.02351 
 Kr(Fragment=2)        0.       R1        0. 
       Variables:
  R1                    3.     Scan 20    0.1    
 
 ITRead=  0  0  0  0  0
 MicOpt= -1 -1 -1 -1 -1
 NAtoms=      5 NQM=        5 NQMF=       0 NMMI=      0 NMMIF=      0
                NMic=       0 NMicF=      0.
                    Isotopes and Nuclear Properties:
 (Nuclear quadrupole moments (NQMom) in fm**2, nuclear magnetic moments (NMagM)
  in nuclear magnetons)

  Atom         1           2           3           4           5
 IAtWgt=          16          16           1           1          84
 AtmWgt=  15.9949146  15.9949146   1.0078250   1.0078250  83.9115064
 NucSpn=           0           0           1           1           0
 AtZEff=  -0.0000000  -0.0000000  -0.0000000  -0.0000000  -0.0000000
 NQMom=    0.0000000   0.0000000   0.0000000   0.0000000   0.0000000
 NMagM=    0.0000000   0.0000000   2.7928460   2.7928460   0.0000000
 AtZNuc=   8.0000000   8.0000000   1.0000000   1.0000000  36.0000000
 Leave Link  101 at Wed Apr  1 13:00:12 2020, MaxMem=  2147483648 cpu:               1.4 elap:               0.1
 (Enter /usr/local/g16/g16/l108.exe)
 Scan the potential surface.
 Variable   Value     No. Steps Step-Size
 -------- ----------- --------- ---------
     1       3.000000      20      0.1000
 A total of     21 points will be computed.
 Leave Link  108 at Wed Apr  1 13:00:13 2020, MaxMem=  2147483648 cpu:               0.0 elap:               0.0
 (Enter /usr/local/g16/g16/l202.exe)
 ---------------------------------------------------------------------------------------------------
                            Z-MATRIX (ANGSTROMS AND DEGREES)
   CD    Cent   Atom    N1       Length/X        N2       Alpha/Y        N3        Beta/Z          J
 ---------------------------------------------------------------------------------------------------
      1      1  O        0   0.000000          0.000000          0.725000
      2      2  O        0   0.000000          0.000000         -0.725000
      3      3  H        0   0.000000         -0.918721          1.023510
      4      4  H        0   0.000000          0.918721         -1.023510
      5      5  Kr       0   0.000000          3.000000          0.000000
 ---------------------------------------------------------------------------------------------------
                         Z-Matrix orientation:                         
 ---------------------------------------------------------------------
 Center     Atomic      Atomic             Coordinates (Angstroms)
 Number     Number       Type             X           Y           Z
 ---------------------------------------------------------------------
      1          8           0        0.000000    0.000000    0.725000
      2          8           0        0.000000    0.000000   -0.725000
      3          1           0        0.000000   -0.918721    1.023510
      4          1           0        0.000000    0.918721   -1.023510
      5         36           0        0.000000    3.000000    0.000000
 ---------------------------------------------------------------------
                    Distance matrix (angstroms):
                    1          2          3          4          5
     1  O    0.000000
     2  O    1.450000   0.000000
     3  H    0.966000   1.975180   0.000000
     4  H    1.975180   0.966000   2.750724   0.000000
     5  Kr   3.086361   3.086361   4.050178   2.319331   0.000000
 Stoichiometry    H2KrO2
 Framework group  CS[SG(H2KrO2)]
 Deg. of freedom     7
 Full point group                 CS      NOp   2
 Largest Abelian subgroup         CS      NOp   2
 Largest concise Abelian subgroup C1      NOp   1
                         Standard orientation:                         
 ---------------------------------------------------------------------
 Center     Atomic      Atomic             Coordinates (Angstroms)
 Number     Number       Type             X           Y           Z
 ---------------------------------------------------------------------
      1          8           0        0.725000   -2.000000    0.000000
      2          8           0       -0.725000   -2.000000    0.000000
      3          1           0        1.023510   -2.918721    0.000000
      4          1           0       -1.023510   -1.081279    0.000000
      5         36           0        0.000000    1.000000   -0.000000
 ---------------------------------------------------------------------
 Rotational constants (GHZ):          26.7279122           2.3023207           2.1197289
 Leave Link  202 at Wed Apr  1 13:00:13 2020, MaxMem=  2147483648 cpu:               0.0 elap:               0.0
 (Enter /usr/local/g16/g16/l122.exe)
 Counterpoise: doing full-system calculation.
 Leave Link  122 at Wed Apr  1 13:00:13 2020, MaxMem=  2147483648 cpu:               0.0 elap:               0.0
 (Enter /usr/local/g16/g16/l301.exe)
 Standard basis: Aug-CC-pVTZ (5D, 7F)
 Ernie: Thresh=  0.10000D-02 Tol=  0.10000D-05 Strict=F.
 Ernie:  38 primitive shells out of 205 were deleted.
 There are   157 symmetry adapted cartesian basis functions of A'  symmetry.
 There are    72 symmetry adapted cartesian basis functions of A"  symmetry.
 There are   131 symmetry adapted basis functions of A'  symmetry.
 There are    66 symmetry adapted basis functions of A"  symmetry.
   197 basis functions,   415 primitive gaussians,   229 cartesian basis functions
    27 alpha electrons       27 beta electrons
       nuclear repulsion energy       148.2769912019 Hartrees.
 IExCor=    0 DFT=F Ex=HF Corr=None ExCW=0 ScaHFX=  1.000000
 ScaDFX=  1.000000  1.000000  1.000000  1.000000 ScalE2=  1.000000  1.000000
 IRadAn=      5 IRanWt=     -1 IRanGd=            0 ICorTp=0 IEmpDi=  4
 NAtoms=    5 NActive=    5 NUniq=    5 SFac= 1.00D+00 NAtFMM=   60 NAOKFM=F Big=F
 Integral buffers will be    131072 words long.
 Raffenetti 1 integral format.
 Two-electron integral symmetry is turned on.
 Leave Link  301 at Wed Apr  1 13:00:13 2020, MaxMem=  2147483648 cpu:               0.3 elap:               0.0
 (Enter /usr/local/g16/g16/l302.exe)
 NPDir=0 NMtPBC=     1 NCelOv=     1 NCel=       1 NClECP=     1 NCelD=      1
         NCelK=      1 NCelE2=     1 NClLst=     1 CellRange=     0.0.
 One-electron integrals computed using PRISM.
 One-electron integral symmetry used in STVInt
 NBasis=   197 RedAO= T EigKep=  1.91D-04  NBF=   131    66
 NBsUse=   197 1.00D-06 EigRej= -1.00D+00 NBFU=   131    66
 Leave Link  302 at Wed Apr  1 13:00:13 2020, MaxMem=  2147483648 cpu:               1.6 elap:               0.1
 (Enter /usr/local/g16/g16/l303.exe)
 DipDrv:  MaxL=1.
 Leave Link  303 at Wed Apr  1 13:00:13 2020, MaxMem=  2147483648 cpu:               0.4 elap:               0.0
 (Enter /usr/local/g16/g16/l401.exe)
 ExpMin= 2.53D-02 ExpMax= 1.17D+07 ExpMxC= 1.33D+04 IAcc=3 IRadAn=         5 AccDes= 0.00D+00
 Harris functional with IExCor=  205 and IRadAn=       5 diagonalized for initial guess.
 HarFok:  IExCor=  205 AccDes= 0.00D+00 IRadAn=         5 IDoV= 1 UseB2=F ITyADJ=14
 ICtDFT=  3500011 ScaDFX=  1.000000  1.000000  1.000000  1.000000
 FoFCou: FMM=F IPFlag=           0 FMFlag=      100000 FMFlg1=           0
         NFxFlg=           0 DoJE=T BraDBF=F KetDBF=T FulRan=T
         wScrn=  0.000000 ICntrl=       500 IOpCl=  0 I1Cent=   200000004 NGrid=           0
         NMat0=    1 NMatS0=      1 NMatT0=    0 NMatD0=    1 NMtDS0=    0 NMtDT0=    0
 Petite list used in FoFCou.
 Harris En= -2901.99047294537    
 JPrj=0 DoOrth=F DoCkMO=F.
 Initial guess orbital symmetries:
       Occupied  (A') (A') (A') (A') (A") (A') (A') (A') (A') (A')
                 (A") (A') (A') (A") (A') (A") (A') (A') (A') (A')
                 (A') (A") (A') (A") (A') (A') (A")
       Virtual   (A') (A') (A') (A') (A") (A') (A') (A") (A') (A')
                 (A") (A') (A') (A') (A") (A') (A") (A') (A') (A')
                 (A") (A') (A') (A") (A') (A') (A') (A') (A") (A')
                 (A') (A') (A") (A') (A") (A") (A') (A') (A') (A")
                 (A") (A') (A') (A') (A") (A') (A') (A") (A") (A')
                 (A') (A") (A') (A") (A') (A") (A') (A') (A') (A')
                 (A") (A') (A") (A') (A") (A') (A') (A') (A") (A')
                 (A') (A") (A") (A') (A') (A') (A") (A') (A') (A')
                 (A") (A') (A') (A") (A") (A") (A') (A') (A') (A")
                 (A') (A') (A") (A') (A') (A") (A') (A') (A") (A")
                 (A') (A') (A") (A') (A") (A') (A") (A') (A') (A")
                 (A') (A') (A") (A') (A') (A') (A') (A") (A') (A')
                 (A") (A') (A") (A') (A") (A") (A') (A") (A') (A")
                 (A') (A') (A') (A') (A') (A') (A') (A') (A") (A")
                 (A') (A') (A') (A") (A') (A') (A") (A') (A") (A')
                 (A") (A') (A") (A") (A") (A") (A") (A') (A') (A')
                 (A') (A") (A') (A') (A') (A') (A') (A') (A') (A')
 The electronic state of the initial guess is 1-A'.
 Leave Link  401 at Wed Apr  1 13:00:13 2020, MaxMem=  2147483648 cpu:               2.7 elap:               0.2
 (Enter /usr/local/g16/g16/l502.exe)
 Keep R1 ints in memory in symmetry-blocked form, NReq=286560089.
 FoFCou: FMM=F IPFlag=           0 FMFlag=           0 FMFlg1=           0
         NFxFlg=           0 DoJE=F BraDBF=F KetDBF=F FulRan=T
         wScrn=  0.000000 ICntrl=       600 IOpCl=  0 I1Cent=           0 NGrid=           0
         NMat0=    1 NMatS0=  19503 NMatT0=    0 NMatD0=    1 NMtDS0=    0 NMtDT0=    0
 Petite list used in FoFCou.
 Closed shell SCF:
 Using DIIS extrapolation, IDIIS=  1040.
 NGot=  2147483648 LenX=  2051007463 LenY=  2050954581
 Requested convergence on RMS density matrix=1.00D-08 within 128 cycles.
 Requested convergence on MAX density matrix=1.00D-06.
 Requested convergence on             energy=1.00D-06.
 No special actions if energy rises.

 Cycle   1  Pass 1  IDiag  1:
 E= -2902.76633194029    
 DIIS: error= 3.61D-02 at cycle   1 NSaved=   1.
 NSaved= 1 IEnMin= 1 EnMin= -2902.76633194029     IErMin= 1 ErrMin= 3.61D-02
 ErrMax= 3.61D-02  0.00D+00 EMaxC= 1.00D-01 BMatC= 6.57D-01 BMatP= 6.57D-01
 IDIUse=3 WtCom= 6.39D-01 WtEn= 3.61D-01
 Coeff-Com:  0.100D+01
 Coeff-En:   0.100D+01
 Coeff:      0.100D+01
 Gap=     0.523 Goal=   None    Shift=    0.000
 GapD=    0.523 DampG=2.000 DampE=0.500 DampFc=1.0000 IDamp=-1.
 RMSDP=2.03D-03 MaxDP=1.30D-01              OVMax= 6.29D-02

 Cycle   2  Pass 1  IDiag  1:
 E= -2902.86272026697     Delta-E=       -0.096388326676 Rises=F Damp=F
 DIIS: error= 8.34D-03 at cycle   2 NSaved=   2.
 NSaved= 2 IEnMin= 2 EnMin= -2902.86272026697     IErMin= 2 ErrMin= 8.34D-03
 ErrMax= 8.34D-03  0.00D+00 EMaxC= 1.00D-01 BMatC= 3.53D-02 BMatP= 6.57D-01
 IDIUse=3 WtCom= 9.17D-01 WtEn= 8.34D-02
 Coeff-Com:  0.137D+00 0.863D+00
 Coeff-En:   0.000D+00 0.100D+01
 Coeff:      0.125D+00 0.875D+00
 Gap=     0.514 Goal=   None    Shift=    0.000
 RMSDP=7.45D-04 MaxDP=3.65D-02 DE=-9.64D-02 OVMax= 2.55D-02

 Cycle   3  Pass 1  IDiag  1:
 E= -2902.87557907262     Delta-E=       -0.012858805650 Rises=F Damp=F
 DIIS: error= 2.56D-03 at cycle   3 NSaved=   3.
 NSaved= 3 IEnMin= 3 EnMin= -2902.87557907262     IErMin= 3 ErrMin= 2.56D-03
 ErrMax= 2.56D-03  0.00D+00 EMaxC= 1.00D-01 BMatC= 2.60D-03 BMatP= 3.53D-02
 IDIUse=3 WtCom= 9.74D-01 WtEn= 2.56D-02
 Coeff-Com: -0.663D-02 0.192D+00 0.815D+00
 Coeff-En:   0.000D+00 0.000D+00 0.100D+01
 Coeff:     -0.646D-02 0.187D+00 0.820D+00
 Gap=     0.487 Goal=   None    Shift=    0.000
 RMSDP=1.28D-04 MaxDP=4.97D-03 DE=-1.29D-02 OVMax= 8.43D-03

 Cycle   4  Pass 1  IDiag  1:
 E= -2902.87687645323     Delta-E=       -0.001297380616 Rises=F Damp=F
 DIIS: error= 4.22D-04 at cycle   4 NSaved=   4.
 NSaved= 4 IEnMin= 4 EnMin= -2902.87687645323     IErMin= 4 ErrMin= 4.22D-04
 ErrMax= 4.22D-04  0.00D+00 EMaxC= 1.00D-01 BMatC= 4.17D-05 BMatP= 2.60D-03
 IDIUse=3 WtCom= 9.96D-01 WtEn= 4.22D-03
 Coeff-Com: -0.389D-02 0.122D-01 0.135D+00 0.857D+00
 Coeff-En:   0.000D+00 0.000D+00 0.000D+00 0.100D+01
 Coeff:     -0.387D-02 0.122D-01 0.134D+00 0.857D+00
 Gap=     0.491 Goal=   None    Shift=    0.000
 RMSDP=2.05D-05 MaxDP=6.14D-04 DE=-1.30D-03 OVMax= 1.61D-03

 Cycle   5  Pass 1  IDiag  1:
 E= -2902.87691135722     Delta-E=       -0.000034903987 Rises=F Damp=F
 DIIS: error= 1.48D-04 at cycle   5 NSaved=   5.
 NSaved= 5 IEnMin= 5 EnMin= -2902.87691135722     IErMin= 5 ErrMin= 1.48D-04
 ErrMax= 1.48D-04  0.00D+00 EMaxC= 1.00D-01 BMatC= 3.09D-06 BMatP= 4.17D-05
 IDIUse=3 WtCom= 9.99D-01 WtEn= 1.48D-03
 Coeff-Com:  0.808D-03-0.158D-01-0.663D-01 0.800D-02 0.107D+01
 Coeff-En:   0.000D+00 0.000D+00 0.000D+00 0.000D+00 0.100D+01
 Coeff:      0.806D-03-0.157D-01-0.662D-01 0.799D-02 0.107D+01
 Gap=     0.491 Goal=   None    Shift=    0.000
 RMSDP=9.27D-06 MaxDP=3.17D-04 DE=-3.49D-05 OVMax= 8.34D-04

 Cycle   6  Pass 1  IDiag  1:
 E= -2902.87691582007     Delta-E=       -0.000004462854 Rises=F Damp=F
 DIIS: error= 3.28D-05 at cycle   6 NSaved=   6.
 NSaved= 6 IEnMin= 6 EnMin= -2902.87691582007     IErMin= 6 ErrMin= 3.28D-05
 ErrMax= 3.28D-05  0.00D+00 EMaxC= 1.00D-01 BMatC= 1.87D-07 BMatP= 3.09D-06
 IDIUse=1 WtCom= 1.00D+00 WtEn= 0.00D+00
 Coeff-Com:  0.155D-03 0.153D-03-0.535D-02-0.574D-01-0.237D-01 0.109D+01
 Coeff:      0.155D-03 0.153D-03-0.535D-02-0.574D-01-0.237D-01 0.109D+01
 Gap=     0.491 Goal=   None    Shift=    0.000
 RMSDP=2.49D-06 MaxDP=8.05D-05 DE=-4.46D-06 OVMax= 2.22D-04

 Cycle   7  Pass 1  IDiag  1:
 E= -2902.87691618244     Delta-E=       -0.000000362364 Rises=F Damp=F
 DIIS: error= 9.15D-06 at cycle   7 NSaved=   7.
 NSaved= 7 IEnMin= 7 EnMin= -2902.87691618244     IErMin= 7 ErrMin= 9.15D-06
 ErrMax= 9.15D-06  0.00D+00 EMaxC= 1.00D-01 BMatC= 1.65D-08 BMatP= 1.87D-07
 IDIUse=1 WtCom= 1.00D+00 WtEn= 0.00D+00
 Coeff-Com: -0.379D-04 0.109D-02 0.425D-02-0.419D-02-0.743D-01 0.247D-01
 Coeff-Com:  0.105D+01
 Coeff:     -0.379D-04 0.109D-02 0.425D-02-0.419D-02-0.743D-01 0.247D-01
 Coeff:      0.105D+01
 Gap=     0.491 Goal=   None    Shift=    0.000
 RMSDP=8.10D-07 MaxDP=3.22D-05 DE=-3.62D-07 OVMax= 6.52D-05

 Cycle   8  Pass 1  IDiag  1:
 E= -2902.87691621539     Delta-E=       -0.000000032950 Rises=F Damp=F
 DIIS: error= 4.26D-06 at cycle   8 NSaved=   8.
 NSaved= 8 IEnMin= 8 EnMin= -2902.87691621539     IErMin= 8 ErrMin= 4.26D-06
 ErrMax= 4.26D-06  0.00D+00 EMaxC= 1.00D-01 BMatC= 4.65D-09 BMatP= 1.65D-08
 IDIUse=1 WtCom= 1.00D+00 WtEn= 0.00D+00
 Coeff-Com: -0.276D-04 0.351D-03 0.204D-02 0.449D-02-0.240D-01-0.108D+00
 Coeff-Com:  0.379D+00 0.745D+00
 Coeff:     -0.276D-04 0.351D-03 0.204D-02 0.449D-02-0.240D-01-0.108D+00
 Coeff:      0.379D+00 0.745D+00
 Gap=     0.491 Goal=   None    Shift=    0.000
 RMSDP=2.46D-07 MaxDP=8.20D-06 DE=-3.30D-08 OVMax= 1.90D-05

 Cycle   9  Pass 1  IDiag  1:
 E= -2902.87691622011     Delta-E=       -0.000000004726 Rises=F Damp=F
 DIIS: error= 1.12D-06 at cycle   9 NSaved=   9.
 NSaved= 9 IEnMin= 9 EnMin= -2902.87691622011     IErMin= 9 ErrMin= 1.12D-06
 ErrMax= 1.12D-06  0.00D+00 EMaxC= 1.00D-01 BMatC= 2.27D-10 BMatP= 4.65D-09
 IDIUse=1 WtCom= 1.00D+00 WtEn= 0.00D+00
 Coeff-Com:  0.376D-05-0.130D-03-0.515D-03 0.158D-03 0.915D-02 0.602D-02
 Coeff-Com: -0.150D+00-0.953D-01 0.123D+01
 Coeff:      0.376D-05-0.130D-03-0.515D-03 0.158D-03 0.915D-02 0.602D-02
 Coeff:     -0.150D+00-0.953D-01 0.123D+01
 Gap=     0.491 Goal=   None    Shift=    0.000
 RMSDP=1.29D-07 MaxDP=4.38D-06 DE=-4.73D-09 OVMax= 1.32D-05

 Cycle  10  Pass 1  IDiag  1:
 E= -2902.87691622081     Delta-E=       -0.000000000701 Rises=F Damp=F
 DIIS: error= 3.86D-07 at cycle  10 NSaved=  10.
 NSaved=10 IEnMin=10 EnMin= -2902.87691622081     IErMin=10 ErrMin= 3.86D-07
 ErrMax= 3.86D-07  0.00D+00 EMaxC= 1.00D-01 BMatC= 2.75D-11 BMatP= 2.27D-10
 IDIUse=1 WtCom= 1.00D+00 WtEn= 0.00D+00
 Coeff-Com:  0.980D-06 0.344D-04 0.528D-04-0.766D-03-0.157D-02 0.926D-02
 Coeff-Com:  0.295D-01-0.582D-01-0.432D+00 0.145D+01
 Coeff:      0.980D-06 0.344D-04 0.528D-04-0.766D-03-0.157D-02 0.926D-02
 Coeff:      0.295D-01-0.582D-01-0.432D+00 0.145D+01
 Gap=     0.491 Goal=   None    Shift=    0.000
 RMSDP=4.99D-08 MaxDP=1.42D-06 DE=-7.01D-10 OVMax= 5.40D-06

 Cycle  11  Pass 1  IDiag  1:
 E= -2902.87691622089     Delta-E=       -0.000000000077 Rises=F Damp=F
 DIIS: error= 1.32D-07 at cycle  11 NSaved=  11.
 NSaved=11 IEnMin=11 EnMin= -2902.87691622089     IErMin=11 ErrMin= 1.32D-07
 ErrMax= 1.32D-07  0.00D+00 EMaxC= 1.00D-01 BMatC= 1.87D-12 BMatP= 2.75D-11
 IDIUse=1 WtCom= 1.00D+00 WtEn= 0.00D+00
 Coeff-Com: -0.738D-06-0.390D-05 0.242D-04 0.331D-03-0.201D-03-0.470D-02
 Coeff-Com:  0.352D-02 0.239D-01 0.750D-01-0.531D+00 0.143D+01
 Coeff:     -0.738D-06-0.390D-05 0.242D-04 0.331D-03-0.201D-03-0.470D-02
 Coeff:      0.352D-02 0.239D-01 0.750D-01-0.531D+00 0.143D+01
 Gap=     0.491 Goal=   None    Shift=    0.000
 RMSDP=1.38D-08 MaxDP=3.31D-07 DE=-7.73D-11 OVMax= 1.64D-06

 Cycle  12  Pass 1  IDiag  1:
 E= -2902.87691622090     Delta-E=       -0.000000000006 Rises=F Damp=F
 DIIS: error= 2.85D-08 at cycle  12 NSaved=  12.
 NSaved=12 IEnMin=12 EnMin= -2902.87691622090     IErMin=12 ErrMin= 2.85D-08
 ErrMax= 2.85D-08  0.00D+00 EMaxC= 1.00D-01 BMatC= 1.60D-13 BMatP= 1.87D-12
 IDIUse=1 WtCom= 1.00D+00 WtEn= 0.00D+00
 Coeff-Com: -0.929D-08-0.336D-05-0.974D-05 0.563D-04 0.212D-03-0.796D-03
 Coeff-Com: -0.233D-02 0.288D-02 0.307D-01-0.754D-01-0.214D+00 0.126D+01
 Coeff:     -0.929D-08-0.336D-05-0.974D-05 0.563D-04 0.212D-03-0.796D-03
 Coeff:     -0.233D-02 0.288D-02 0.307D-01-0.754D-01-0.214D+00 0.126D+01
 Gap=     0.491 Goal=   None    Shift=    0.000
 RMSDP=4.04D-09 MaxDP=9.43D-08 DE=-6.37D-12 OVMax= 4.86D-07

 SCF Done:  E(RHF) =  -2902.87691622     A.U. after   12 cycles
            NFock= 12  Conv=0.40D-08     -V/T= 2.0001
 KE= 2.902624426310D+03 PE=-7.237174844330D+03 EE= 1.283396510596D+03
 Leave Link  502 at Wed Apr  1 13:00:16 2020, MaxMem=  2147483648 cpu:              38.7 elap:               3.0
 (Enter /usr/local/g16/g16/l801.exe)
 Windowed orbitals will be sorted by symmetry type.
 ExpMin= 2.53D-02 ExpMax= 1.17D+07 ExpMxC= 1.33D+04 IAcc=3 IRadAn=         5 AccDes= 0.00D+00
 HarFok:  IExCor=  205 AccDes= 0.00D+00 IRadAn=         5 IDoV=-2 UseB2=F ITyADJ=14
 ICtDFT= 12500011 ScaDFX=  1.000000  1.000000  1.000000  1.000000
 Largest valence mixing into a core orbital is  1.16D-04
 Largest core mixing into a valence orbital is  3.82D-05
 Range of M.O.s used for correlation:    12   197
 NBasis=   197 NAE=    27 NBE=    27 NFC=    11 NFV=     0
 NROrb=    186 NOA=    16 NOB=    16 NVA=   170 NVB=   170

 **** Warning!!: The largest alpha MO coefficient is  0.12991332D+02

 Leave Link  801 at Wed Apr  1 13:00:16 2020, MaxMem=  2147483648 cpu:               0.7 elap:               0.0
 (Enter /usr/local/g16/g16/l804.exe)
 Closed-shell transformation, MDV=  2147483648 ITran=4 ISComp=2.
 Unit  1 TFree=       1287998 TCopy=        809813.
 Semi-Direct transformation.
 ModeAB=           2 MOrb=            16 LenV=    2146359748
 LASXX=     24518604 LTotXX=    24518604 LenRXX=    24518604
 LTotAB=    24945307 MaxLAS=    78372960 LenRXY=    78372960
 NonZer=    78932448 LenScr=   119149056 LnRSAI=           0
 LnScr1=           0 LExtra=           0 Total=    222040620
 MaxDsk=          -1 SrtSym=           F ITran=            4
 DoSDTr:  NPSUse= 16
 JobTyp=0 Pass  1:  I=   1 to  16.
 (rs|ai) integrals will be sorted in core.
 Complete sort for first half transformation.
 First half transformation complete.
 Begin second half transformation for I=  10.
 Begin second half transformation for I=  10.
 Complete sort for second half transformation.
 Second half transformation complete.
 Spin components of T(2) and E(2):
     alpha-alpha T2 =       0.2590278064D-01 E2=     -0.9985929434D-01
     alpha-beta  T2 =       0.1417237922D+00 E2=     -0.5561905219D+00
     beta-beta   T2 =       0.2590278064D-01 E2=     -0.9985929434D-01
 ANorm=    0.1092487690D+01
 E2 =    -0.7559091106D+00 EUMP2 =    -0.29036328253315D+04
 Leave Link  804 at Wed Apr  1 13:00:27 2020, MaxMem=  2147483648 cpu:             176.0 elap:              11.0
 (Enter /usr/local/g16/g16/l913.exe)
 CIDS:  MDV=  2147483648.
 Frozen-core window:  NFC=  11 NFV=   0.
 IFCWin=0 IBDFC=1 NFBD=     0     0 NFCmp=     0     0 NFFFC=     0     0
 Using DD3R+UMP44R for 1st iteration.
 Using DD4RQ for 2nd and later iterations.
 Keep R2 and R3 ints in memory in symmetry-blocked form, NReq=289022395.
 FoFCou: FMM=F IPFlag=           0 FMFlag=           0 FMFlg1=           0
         NFxFlg=           0 DoJE=F BraDBF=F KetDBF=F FulRan=T
         wScrn=  0.000000 ICntrl=       600 IOpCl=  0 I1Cent=           0 NGrid=           0
         NMat0=    1 NMatS0=  19503 NMatT0=    0 NMatD0=    1 NMtDS0=    0 NMtDT0=    0
 Petite list used in FoFCou.
 CIDS: In Core Option IDoMem=           1.
 MP4(SDTQ)
 =========
 Produce multiple copies of IABC intergrals
 DD1Dir will call FoFMem   1 times, MxPair=       272
 NAB=   136 NAA=     0 NBB=     0.
 MP4(D)= -0.14941152D-01
 MP4(S)= -0.63862989D-02
 MP4(R+Q)=  0.15340477D-01
 IPart=  9 IA=   10   10.34% done.
 IPart=  3 IA=   19   20.11% done.
 IPart= 11 IA=   29   30.31% done.
 IPart=  4 IA=   40   40.72% done.
 IPart=  2 IA=   51   50.30% done.
 IPart= 14 IA=   64   60.52% done.
 IPart=  6 IA=   78   70.22% done.
 IPart=  9 IA=   95   80.16% done.
 IPart=  3 IA=  117   90.04% done.
 Time for triples=     1649.84 seconds.
 MP4(T)=   -0.30321415D-01
 E3=       -0.11347981D-01        EUMP3=      -0.29036441733D+04
 E4(DQ)=    0.39932519D-03        UMP4(DQ)=   -0.29036437740D+04
 E4(SDQ)=  -0.59869737D-02        UMP4(SDQ)=  -0.29036501603D+04
 E4(SDTQ)= -0.36308389D-01        UMP4(SDTQ)= -0.29036804817D+04
 VARIATIONAL ENERGIES WITH THE FIRST-ORDER WAVEFUNCTION:
 E(VAR1)=  -0.29035197635D+04     E(CISD,4)=  -0.29035192102D+04
 Largest amplitude= 3.06D-02
 Discarding MO integrals.
 Leave Link  913 at Wed Apr  1 13:02:16 2020, MaxMem=  2147483648 cpu:            1740.0 elap:             108.8
 (Enter /usr/local/g16/g16/l601.exe)
 Copying SCF densities to generalized density rwf, IOpCl= 0 IROHF=0.

 **********************************************************************

            Population analysis using the SCF density.

 **********************************************************************

 Orbital symmetries:
       Occupied  (A') (A') (A') (A") (A') (A') (A') (A') (A') (A")
                 (A') (A') (A") (A') (A") (A') (A') (A') (A') (A')
                 (A') (A") (A') (A") (A') (A') (A")
       Virtual   (A') (A') (A') (A") (A') (A') (A') (A') (A") (A')
                 (A") (A') (A') (A") (A') (A') (A") (A') (A') (A')
                 (A") (A') (A') (A") (A') (A') (A') (A') (A") (A')
                 (A') (A') (A") (A') (A") (A') (A") (A') (A") (A')
                 (A") (A') (A') (A') (A") (A') (A') (A") (A") (A')
                 (A') (A') (A") (A') (A") (A') (A') (A") (A') (A')
                 (A') (A") (A") (A") (A') (A') (A') (A') (A") (A')
                 (A') (A") (A") (A') (A') (A') (A') (A") (A') (A')
                 (A") (A') (A') (A") (A") (A') (A') (A") (A') (A")
                 (A') (A') (A") (A') (A') (A') (A") (A') (A") (A')
                 (A") (A') (A") (A") (A') (A') (A") (A') (A") (A')
                 (A') (A") (A') (A') (A') (A') (A') (A") (A') (A')
                 (A') (A") (A") (A") (A') (A") (A') (A") (A') (A")
                 (A') (A') (A') (A') (A') (A') (A') (A') (A") (A")
                 (A') (A') (A') (A") (A') (A') (A") (A') (A") (A')
                 (A") (A') (A") (A") (A") (A") (A') (A") (A') (A')
                 (A') (A") (A') (A') (A') (A') (A') (A') (A') (A')
 The electronic state is 1-A'.
 Alpha  occ. eigenvalues -- -520.17278 -69.91033 -63.01691 -63.01689 -63.01685
 Alpha  occ. eigenvalues --  -20.62648 -20.62304 -10.85696  -8.33920  -8.33893
 Alpha  occ. eigenvalues --   -8.33878  -3.83299  -3.83294  -3.83274  -3.83246
 Alpha  occ. eigenvalues --   -3.83243  -1.46406  -1.21664  -1.16278  -0.71589
 Alpha  occ. eigenvalues --   -0.69800  -0.62408  -0.54397  -0.53173  -0.52804
 Alpha  occ. eigenvalues --   -0.51759  -0.45521
 Alpha virt. eigenvalues --    0.03596   0.04508   0.08876   0.10612   0.11421
 Alpha virt. eigenvalues --    0.12474   0.15263   0.16483   0.17579   0.17589
 Alpha virt. eigenvalues --    0.19713   0.21228   0.25213   0.26126   0.26666
 Alpha virt. eigenvalues --    0.28304   0.29297   0.30905   0.33628   0.35891
 Alpha virt. eigenvalues --    0.36734   0.37606   0.39210   0.41707   0.43107
 Alpha virt. eigenvalues --    0.44652   0.46123   0.52449   0.56759   0.59245
 Alpha virt. eigenvalues --    0.61491   0.65325   0.69590   0.70883   0.74423
 Alpha virt. eigenvalues --    0.76099   0.77723   0.79016   0.79569   0.82491
 Alpha virt. eigenvalues --    0.83845   0.84554   0.85111   0.86270   0.87759
 Alpha virt. eigenvalues --    0.89333   0.91589   0.93356   0.94000   0.96603
 Alpha virt. eigenvalues --    0.98670   1.00542   1.02149   1.03456   1.07816
 Alpha virt. eigenvalues --    1.09533   1.12326   1.13101   1.13719   1.17056
 Alpha virt. eigenvalues --    1.20660   1.21257   1.23560   1.25112   1.27395
 Alpha virt. eigenvalues --    1.35035   1.40014   1.46373   1.50216   1.50684
 Alpha virt. eigenvalues --    1.59189   1.60480   1.62915   1.64715   1.68728
 Alpha virt. eigenvalues --    1.71482   1.91020   1.94491   1.99466   2.08675
 Alpha virt. eigenvalues --    2.13549   2.13678   2.20879   2.28112   2.30466
 Alpha virt. eigenvalues --    2.32199   2.33158   2.37061   2.41325   2.43369
 Alpha virt. eigenvalues --    2.45008   2.48377   2.53260   2.53667   2.55422
 Alpha virt. eigenvalues --    2.56318   2.58242   2.62296   2.63351   2.66052
 Alpha virt. eigenvalues --    2.68602   2.69938   2.71457   2.75283   2.75619
 Alpha virt. eigenvalues --    2.78244   2.80842   2.82987   2.86021   2.88646
 Alpha virt. eigenvalues --    2.90711   2.92547   2.94670   2.99976   3.09791
 Alpha virt. eigenvalues --    3.14614   3.27881   3.28893   3.35600   3.73851
 Alpha virt. eigenvalues --    3.96915   4.08571   4.14822   4.30194   4.33433
 Alpha virt. eigenvalues --    4.34206   4.37216   4.40547   4.44471   4.51737
 Alpha virt. eigenvalues --    4.58287   4.65049   4.79307   4.83434   5.05093
 Alpha virt. eigenvalues --    5.15036   5.28889   5.29771   5.33741   5.35099
 Alpha virt. eigenvalues --    5.64396   5.81328   6.15983   6.30484   6.43336
 Alpha virt. eigenvalues --    6.47448   6.63844   6.71006   6.79929   6.80946
 Alpha virt. eigenvalues --    7.09870   7.09870   7.11066   7.19511   7.21147
 Alpha virt. eigenvalues --    7.26146   7.31460   7.32988   7.34148   7.35322
 Alpha virt. eigenvalues --    7.39655   7.61957   7.62644   7.76826   8.02318
 Alpha virt. eigenvalues --    8.23959   8.53218   8.55926  14.80088  15.24332
          Condensed to atoms (all electrons):
               1          2          3          4          5
     1  O    8.119970  -0.056461   0.223766  -0.015530  -0.030560
     2  O   -0.056461   8.122277  -0.006716   0.265193  -0.011093
     3  H    0.223766  -0.006716   0.526361   0.004972   0.002498
     4  H   -0.015530   0.265193   0.004972   0.458031  -0.004681
     5  Kr  -0.030560  -0.011093   0.002498  -0.004681  36.030586
 Mulliken charges:
               1
     1  O   -0.241185
     2  O   -0.313199
     3  H    0.249119
     4  H    0.292015
     5  Kr   0.013250
 Sum of Mulliken charges =  -0.00000
 Mulliken charges with hydrogens summed into heavy atoms:
               1
     1  O    0.007934
     2  O   -0.021184
     5  Kr   0.013250
         Mulliken charges condensed to fragments:
      1     -0.013250
      2      0.013250
 Electronic spatial extent (au):  <R**2>=            492.3348
 Charge=             -0.0000 electrons
 Dipole moment (field-independent basis, Debye):
    X=              0.2591    Y=              0.1423    Z=             -0.0000  Tot=              0.2956
 Quadrupole moment (field-independent basis, Debye-Ang):
   XX=            -28.1789   YY=            -26.1855   ZZ=            -30.5300
   XY=             -4.0487   XZ=              0.0000   YZ=              0.0000
 Traceless Quadrupole moment (field-independent basis, Debye-Ang):
   XX=              0.1192   YY=              2.1126   ZZ=             -2.2318
   XY=             -4.0487   XZ=              0.0000   YZ=              0.0000
 Octapole moment (field-independent basis, Debye-Ang**2):
  XXX=              0.3375  YYY=             -2.1108  ZZZ=             -0.0000  XYY=             17.3086
  XXY=              3.4094  XXZ=             -0.0000  XZZ=              0.1199  YZZ=              8.1751
  YYZ=              0.0000  XYZ=             -0.0000
 Hexadecapole moment (field-independent basis, Debye-Ang**3):
 XXXX=            -62.9010 YYYY=           -335.3728 ZZZZ=            -28.6828 XXXY=             -2.7182
 XXXZ=              0.0000 YYYX=            -52.4878 YYYZ=              0.0000 ZZZX=             -0.0000
 ZZZY=              0.0000 XXYY=            -72.6731 XXZZ=            -17.1721 YYZZ=            -79.3946
 XXYZ=              0.0000 YYXZ=              0.0000 ZZXY=              0.8088
 N-N= 1.482769912019D+02 E-N=-7.237174844887D+03  KE= 2.902624426310D+03
 Symmetry A'   KE= 2.486372158028D+03
 Symmetry A"   KE= 4.162522682825D+02
 Leave Link  601 at Wed Apr  1 13:02:16 2020, MaxMem=  2147483648 cpu:               0.6 elap:               0.0
 (Enter /usr/local/g16/g16/l122.exe)
 CPIOFr:  IOpCl= 0 IRwI=-1 IRwCP=  731 ICalc= -1 LCPTot=       59414 Len1MO=      159453 IndFrg=       59414
 CPIOFr:  IOpCl= 0 IRwI=-1 IRwCP=  731 ICalc=  0 LCPTot=       59414 Len1MO=      159453 IndFrg=      218867
 Counterpoise: doing calculation for fragment   1 using the basis set of the full-system, NewBq=T
 Leave Link  122 at Wed Apr  1 13:02:16 2020, MaxMem=  2147483648 cpu:               0.0 elap:               0.0
 (Enter /usr/local/g16/g16/l301.exe)
 Basis read from rwf:  (5D, 7F)
 No pseudopotential information found on rwf file.
 There are   157 symmetry adapted cartesian basis functions of A'  symmetry.
 There are    72 symmetry adapted cartesian basis functions of A"  symmetry.
 There are   131 symmetry adapted basis functions of A'  symmetry.
 There are    66 symmetry adapted basis functions of A"  symmetry.
   197 basis functions,   415 primitive gaussians,   229 cartesian basis functions
     9 alpha electrons        9 beta electrons
       nuclear repulsion energy        36.6006190557 Hartrees.
 IExCor=    0 DFT=F Ex=HF Corr=None ExCW=0 ScaHFX=  1.000000
 ScaDFX=  1.000000  1.000000  1.000000  1.000000 ScalE2=  1.000000  1.000000
 IRadAn=      5 IRanWt=     -1 IRanGd=            0 ICorTp=0 IEmpDi=  4
 NAtoms=    5 NActive=    5 NUniq=    5 SFac= 1.00D+00 NAtFMM=   60 NAOKFM=F Big=F
 Integral buffers will be    131072 words long.
 Raffenetti 1 integral format.
 Two-electron integral symmetry is turned on.
 No density basis found on file   718.
 Leave Link  301 at Wed Apr  1 13:02:16 2020, MaxMem=  2147483648 cpu:               0.4 elap:               0.0
 (Enter /usr/local/g16/g16/l302.exe)
 NPDir=0 NMtPBC=     1 NCelOv=     1 NCel=       1 NClECP=     1 NCelD=      1
         NCelK=      1 NCelE2=     1 NClLst=     1 CellRange=     0.0.
 One-electron integrals computed using PRISM.
 One-electron integral symmetry used in STVInt
 NBasis=   197 RedAO= T EigKep=  1.91D-04  NBF=   131    66
 NBsUse=   197 1.00D-06 EigRej= -1.00D+00 NBFU=   131    66
 Leave Link  302 at Wed Apr  1 13:02:16 2020, MaxMem=  2147483648 cpu:               1.7 elap:               0.1
 (Enter /usr/local/g16/g16/l303.exe)
 DipDrv:  MaxL=1.
 Leave Link  303 at Wed Apr  1 13:02:16 2020, MaxMem=  2147483648 cpu:               0.5 elap:               0.0
 (Enter /usr/local/g16/g16/l401.exe)
 ExpMin= 2.53D-02 ExpMax= 1.17D+07 ExpMxC= 1.33D+04 IAcc=3 IRadAn=         5 AccDes= 0.00D+00
 Harris functional with IExCor=  205 and IRadAn=       5 diagonalized for initial guess.
 HarFok:  IExCor=  205 AccDes= 0.00D+00 IRadAn=         5 IDoV= 1 UseB2=F ITyADJ=14
 ICtDFT=  3500011 ScaDFX=  1.000000  1.000000  1.000000  1.000000
 FoFCou: FMM=F IPFlag=           0 FMFlag=      100000 FMFlg1=           0
         NFxFlg=           0 DoJE=T BraDBF=F KetDBF=T FulRan=T
         wScrn=  0.000000 ICntrl=       500 IOpCl=  0 I1Cent=   200000004 NGrid=           0
         NMat0=    1 NMatS0=      1 NMatT0=    0 NMatD0=    1 NMtDS0=    0 NMtDT0=    0
 Petite list used in FoFCou.
 Harris En= -150.933391562430    
 JPrj=0 DoOrth=F DoCkMO=F.
 Initial guess orbital symmetries:
       Occupied  (A') (A') (A') (A') (A') (A') (A") (A') (A")
       Virtual   (A') (A') (A') (A') (A") (A') (A') (A') (A') (A")
                 (A') (A") (A') (A') (A') (A") (A') (A') (A") (A')
                 (A') (A') (A") (A') (A') (A') (A") (A') (A') (A")
                 (A') (A') (A') (A") (A") (A') (A') (A") (A") (A')
                 (A') (A') (A") (A') (A') (A") (A') (A") (A') (A')
                 (A") (A') (A') (A') (A") (A") (A') (A') (A") (A')
                 (A') (A") (A') (A') (A") (A') (A') (A") (A") (A')
                 (A') (A") (A') (A') (A') (A") (A') (A") (A") (A')
                 (A') (A') (A') (A') (A") (A') (A') (A") (A") (A')
                 (A') (A") (A') (A') (A') (A") (A') (A") (A') (A')
                 (A") (A") (A') (A') (A') (A') (A") (A') (A') (A")
                 (A') (A') (A") (A') (A') (A") (A") (A') (A") (A')
                 (A") (A') (A") (A") (A') (A') (A') (A") (A") (A')
                 (A') (A') (A") (A") (A') (A') (A') (A') (A') (A')
                 (A') (A') (A") (A") (A') (A') (A') (A") (A') (A')
                 (A") (A') (A") (A') (A") (A') (A") (A") (A") (A")
                 (A") (A') (A') (A') (A') (A") (A') (A') (A') (A')
                 (A') (A') (A') (A') (A') (A") (A') (A') (A") (A')
                 (A") (A') (A') (A') (A") (A') (A') (A')
 The electronic state of the initial guess is 1-A'.
 Leave Link  401 at Wed Apr  1 13:02:16 2020, MaxMem=  2147483648 cpu:               2.7 elap:               0.2
 (Enter /usr/local/g16/g16/l502.exe)
 Keep R1 ints in memory in symmetry-blocked form, NReq=286560089.
 FoFCou: FMM=F IPFlag=           0 FMFlag=           0 FMFlg1=           0
         NFxFlg=           0 DoJE=F BraDBF=F KetDBF=F FulRan=T
         wScrn=  0.000000 ICntrl=       600 IOpCl=  0 I1Cent=           0 NGrid=           0
         NMat0=    1 NMatS0=  19503 NMatT0=    0 NMatD0=    1 NMtDS0=    0 NMtDT0=    0
 Petite list used in FoFCou.
 Closed shell SCF:
 Using DIIS extrapolation, IDIIS=  1040.
 NGot=  2147483648 LenX=  2051007463 LenY=  2050954581
 Requested convergence on RMS density matrix=1.00D-08 within 128 cycles.
 Requested convergence on MAX density matrix=1.00D-06.
 Requested convergence on             energy=1.00D-06.
 No special actions if energy rises.

 Cycle   1  Pass 1  IDiag  1:
 E= -150.771618309104    
 DIIS: error= 2.53D-02 at cycle   1 NSaved=   1.
 NSaved= 1 IEnMin= 1 EnMin= -150.771618309104     IErMin= 1 ErrMin= 2.53D-02
 ErrMax= 2.53D-02  0.00D+00 EMaxC= 1.00D-01 BMatC= 2.27D-01 BMatP= 2.27D-01
 IDIUse=3 WtCom= 7.47D-01 WtEn= 2.53D-01
 Coeff-Com:  0.100D+01
 Coeff-En:   0.100D+01
 Coeff:      0.100D+01
 Gap=     0.514 Goal=   None    Shift=    0.000
 GapD=    0.514 DampG=2.000 DampE=0.500 DampFc=1.0000 IDamp=-1.
 RMSDP=9.43D-04 MaxDP=2.93D-02              OVMax= 6.78D-02

 Cycle   2  Pass 1  IDiag  1:
 E= -150.823792357592     Delta-E=       -0.052174048489 Rises=F Damp=F
 DIIS: error= 7.11D-03 at cycle   2 NSaved=   2.
 NSaved= 2 IEnMin= 2 EnMin= -150.823792357592     IErMin= 2 ErrMin= 7.11D-03
 ErrMax= 7.11D-03  0.00D+00 EMaxC= 1.00D-01 BMatC= 1.52D-02 BMatP= 2.27D-01
 IDIUse=3 WtCom= 9.29D-01 WtEn= 7.11D-02
 Coeff-Com:  0.998D-01 0.900D+00
 Coeff-En:   0.000D+00 0.100D+01
 Coeff:      0.927D-01 0.907D+00
 Gap=     0.516 Goal=   None    Shift=    0.000
 RMSDP=4.55D-04 MaxDP=2.41D-02 DE=-5.22D-02 OVMax= 2.73D-02

 Cycle   3  Pass 1  IDiag  1:
 E= -150.831288008275     Delta-E=       -0.007495650683 Rises=F Damp=F
 DIIS: error= 2.78D-03 at cycle   3 NSaved=   3.
 NSaved= 3 IEnMin= 3 EnMin= -150.831288008275     IErMin= 3 ErrMin= 2.78D-03
 ErrMax= 2.78D-03  0.00D+00 EMaxC= 1.00D-01 BMatC= 2.13D-03 BMatP= 1.52D-02
 IDIUse=3 WtCom= 9.72D-01 WtEn= 2.78D-02
 Coeff-Com: -0.205D-01 0.252D+00 0.769D+00
 Coeff-En:   0.000D+00 0.000D+00 0.100D+01
 Coeff:     -0.199D-01 0.245D+00 0.775D+00
 Gap=     0.488 Goal=   None    Shift=    0.000
 RMSDP=1.01D-04 MaxDP=3.41D-03 DE=-7.50D-03 OVMax= 8.98D-03

 Cycle   4  Pass 1  IDiag  1:
 E= -150.832607936625     Delta-E=       -0.001319928350 Rises=F Damp=F
 DIIS: error= 3.08D-04 at cycle   4 NSaved=   4.
 NSaved= 4 IEnMin= 4 EnMin= -150.832607936625     IErMin= 4 ErrMin= 3.08D-04
 ErrMax= 3.08D-04  0.00D+00 EMaxC= 1.00D-01 BMatC= 1.44D-05 BMatP= 2.13D-03
 IDIUse=3 WtCom= 9.97D-01 WtEn= 3.08D-03
 Coeff-Com: -0.163D-02-0.116D-01 0.739D-02 0.101D+01
 Coeff-En:   0.000D+00 0.000D+00 0.000D+00 0.100D+01
 Coeff:     -0.163D-02-0.115D-01 0.737D-02 0.101D+01
 Gap=     0.489 Goal=   None    Shift=    0.000
 RMSDP=1.46D-05 MaxDP=3.87D-04 DE=-1.32D-03 OVMax= 1.35D-03

 Cycle   5  Pass 1  IDiag  1:
 E= -150.832628264509     Delta-E=       -0.000020327884 Rises=F Damp=F
 DIIS: error= 9.57D-05 at cycle   5 NSaved=   5.
 NSaved= 5 IEnMin= 5 EnMin= -150.832628264509     IErMin= 5 ErrMin= 9.57D-05
 ErrMax= 9.57D-05  0.00D+00 EMaxC= 1.00D-01 BMatC= 1.38D-06 BMatP= 1.44D-05
 IDIUse=1 WtCom= 1.00D+00 WtEn= 0.00D+00
 Coeff-Com:  0.162D-02-0.164D-01-0.571D-01-0.171D+00 0.124D+01
 Coeff:      0.162D-02-0.164D-01-0.571D-01-0.171D+00 0.124D+01
 Gap=     0.489 Goal=   None    Shift=    0.000
 RMSDP=7.95D-06 MaxDP=2.10D-04 DE=-2.03D-05 OVMax= 7.77D-04

 Cycle   6  Pass 1  IDiag  1:
 E= -150.832631485917     Delta-E=       -0.000003221408 Rises=F Damp=F
 DIIS: error= 1.89D-05 at cycle   6 NSaved=   6.
 NSaved= 6 IEnMin= 6 EnMin= -150.832631485917     IErMin= 6 ErrMin= 1.89D-05
 ErrMax= 1.89D-05  0.00D+00 EMaxC= 1.00D-01 BMatC= 5.47D-08 BMatP= 1.38D-06
 IDIUse=1 WtCom= 1.00D+00 WtEn= 0.00D+00
 Coeff-Com: -0.378D-03 0.489D-02 0.175D-01 0.187D-01-0.399D+00 0.136D+01
 Coeff:     -0.378D-03 0.489D-02 0.175D-01 0.187D-01-0.399D+00 0.136D+01
 Gap=     0.489 Goal=   None    Shift=    0.000
 RMSDP=1.81D-06 MaxDP=5.75D-05 DE=-3.22D-06 OVMax= 1.58D-04

 Cycle   7  Pass 1  IDiag  1:
 E= -150.832631634229     Delta-E=       -0.000000148312 Rises=F Damp=F
 DIIS: error= 2.24D-06 at cycle   7 NSaved=   7.
 NSaved= 7 IEnMin= 7 EnMin= -150.832631634229     IErMin= 7 ErrMin= 2.24D-06
 ErrMax= 2.24D-06  0.00D+00 EMaxC= 1.00D-01 BMatC= 1.32D-09 BMatP= 5.47D-08
 IDIUse=1 WtCom= 1.00D+00 WtEn= 0.00D+00
 Coeff-Com:  0.211D-04-0.408D-03-0.190D-02-0.623D-03 0.467D-01-0.279D+00
 Coeff-Com:  0.124D+01
 Coeff:      0.211D-04-0.408D-03-0.190D-02-0.623D-03 0.467D-01-0.279D+00
 Coeff:      0.124D+01
 Gap=     0.489 Goal=   None    Shift=    0.000
 RMSDP=2.47D-07 MaxDP=6.90D-06 DE=-1.48D-07 OVMax= 3.29D-05

 Cycle   8  Pass 1  IDiag  1:
 E= -150.832631637726     Delta-E=       -0.000000003497 Rises=F Damp=F
 DIIS: error= 5.64D-07 at cycle   8 NSaved=   8.
 NSaved= 8 IEnMin= 8 EnMin= -150.832631637726     IErMin= 8 ErrMin= 5.64D-07
 ErrMax= 5.64D-07  0.00D+00 EMaxC= 1.00D-01 BMatC= 8.54D-11 BMatP= 1.32D-09
 IDIUse=1 WtCom= 1.00D+00 WtEn= 0.00D+00
 Coeff-Com:  0.108D-04-0.100D-03-0.302D-03-0.211D-02 0.117D-01-0.643D-02
 Coeff-Com: -0.234D+00 0.123D+01
 Coeff:      0.108D-04-0.100D-03-0.302D-03-0.211D-02 0.117D-01-0.643D-02
 Coeff:     -0.234D+00 0.123D+01
 Gap=     0.489 Goal=   None    Shift=    0.000
 RMSDP=5.20D-08 MaxDP=1.99D-06 DE=-3.50D-09 OVMax= 6.53D-06

 Cycle   9  Pass 1  IDiag  1:
 E= -150.832631637873     Delta-E=       -0.000000000147 Rises=F Damp=F
 DIIS: error= 2.95D-07 at cycle   9 NSaved=   9.
 NSaved= 9 IEnMin= 9 EnMin= -150.832631637873     IErMin= 9 ErrMin= 2.95D-07
 ErrMax= 2.95D-07  0.00D+00 EMaxC= 1.00D-01 BMatC= 1.53D-11 BMatP= 8.54D-11
 IDIUse=1 WtCom= 1.00D+00 WtEn= 0.00D+00
 Coeff-Com:  0.245D-05-0.450D-05 0.379D-04-0.906D-03 0.124D-02 0.184D-01
 Coeff-Com: -0.181D+00 0.451D+00 0.711D+00
 Coeff:      0.245D-05-0.450D-05 0.379D-04-0.906D-03 0.124D-02 0.184D-01
 Coeff:     -0.181D+00 0.451D+00 0.711D+00
 Gap=     0.489 Goal=   None    Shift=    0.000
 RMSDP=1.25D-08 MaxDP=5.10D-07 DE=-1.47D-10 OVMax= 1.28D-06

 Cycle  10  Pass 1  IDiag  1:
 E= -150.832631637885     Delta-E=       -0.000000000012 Rises=F Damp=F
 DIIS: error= 4.90D-08 at cycle  10 NSaved=  10.
 NSaved=10 IEnMin=10 EnMin= -150.832631637885     IErMin=10 ErrMin= 4.90D-08
 ErrMax= 4.90D-08  0.00D+00 EMaxC= 1.00D-01 BMatC= 5.08D-13 BMatP= 1.53D-11
 IDIUse=1 WtCom= 1.00D+00 WtEn= 0.00D+00
 Coeff-Com: -0.100D-05 0.112D-04 0.358D-04 0.109D-03-0.102D-02 0.129D-02
 Coeff-Com:  0.178D-01-0.105D+00 0.460D-01 0.104D+01
 Coeff:     -0.100D-05 0.112D-04 0.358D-04 0.109D-03-0.102D-02 0.129D-02
 Coeff:      0.178D-01-0.105D+00 0.460D-01 0.104D+01
 Gap=     0.489 Goal=   None    Shift=    0.000
 RMSDP=4.08D-09 MaxDP=9.81D-08 DE=-1.17D-11 OVMax= 3.13D-07

 SCF Done:  E(RHF) =  -150.832631638     A.U. after   10 cycles
            NFock= 10  Conv=0.41D-08     -V/T= 2.0021
 KE= 1.505164354526D+02 PE=-4.314513610757D+02 EE= 9.350167492954D+01
 Leave Link  502 at Wed Apr  1 13:02:19 2020, MaxMem=  2147483648 cpu:              38.3 elap:               2.9
 (Enter /usr/local/g16/g16/l801.exe)
 Windowed orbitals will be sorted by symmetry type.
 ExpMin= 2.53D-02 ExpMax= 1.17D+07 ExpMxC= 1.33D+04 IAcc=3 IRadAn=         5 AccDes= 0.00D+00
 HarFok:  IExCor=  205 AccDes= 0.00D+00 IRadAn=         5 IDoV=-2 UseB2=F ITyADJ=14
 ICtDFT= 12500011 ScaDFX=  1.000000  1.000000  1.000000  1.000000
 Largest valence mixing into a core orbital is  1.19D-04
 Largest core mixing into a valence orbital is  2.01D-05
 Range of M.O.s used for correlation:     3   197
 NBasis=   197 NAE=     9 NBE=     9 NFC=     2 NFV=     0
 NROrb=    195 NOA=     7 NOB=     7 NVA=   188 NVB=   188

 **** Warning!!: The largest alpha MO coefficient is  0.17013797D+02

 Leave Link  801 at Wed Apr  1 13:02:19 2020, MaxMem=  2147483648 cpu:               0.6 elap:               0.0
 (Enter /usr/local/g16/g16/l804.exe)
 Closed-shell transformation, MDV=  2147483648 ITran=4 ISComp=2.
 Semi-Direct transformation.
 ModeAB=           2 MOrb=             7 LenV=    2146279756
 LASXX=     12801443 LTotXX=    12801443 LenRXX=    12801443
 LTotAB=    13018484 MaxLAS=    35947275 LenRXY=    35947275
 NonZer=    36203895 LenScr=    55073280 LnRSAI=           0
 LnScr1=           0 LExtra=           0 Total=    103821998
 MaxDsk=          -1 SrtSym=           F ITran=            4
 DoSDTr:  NPSUse= 16
 JobTyp=0 Pass  1:  I=   1 to   7.
 (rs|ai) integrals will be sorted in core.
 Complete sort for first half transformation.
 First half transformation complete.
 Complete sort for second half transformation.
 Second half transformation complete.
 Spin components of T(2) and E(2):
     alpha-alpha T2 =       0.1589695967D-01 E2=     -0.6266046891D-01
     alpha-beta  T2 =       0.9284548287D-01 E2=     -0.3813117805D+00
     beta-beta   T2 =       0.1589695967D-01 E2=     -0.6266046891D-01
 ANorm=    0.1060490171D+01
 E2 =    -0.5066327183D+00 EUMP2 =    -0.15133926435622D+03
 Leave Link  804 at Wed Apr  1 13:02:27 2020, MaxMem=  2147483648 cpu:             117.8 elap:               7.4
 (Enter /usr/local/g16/g16/l913.exe)
 CIDS:  MDV=  2147483648.
 Frozen-core window:  NFC=   2 NFV=   0.
 IFCWin=0 IBDFC=1 NFBD=     0     0 NFCmp=     0     0 NFFFC=     0     0
 Using DD3R+UMP44R for 1st iteration.
 Using DD4RQ for 2nd and later iterations.
 Keep R2 and R3 ints in memory in symmetry-blocked form, NReq=289019587.
 FoFCou: FMM=F IPFlag=           0 FMFlag=           0 FMFlg1=           0
         NFxFlg=           0 DoJE=F BraDBF=F KetDBF=F FulRan=T
         wScrn=  0.000000 ICntrl=       600 IOpCl=  0 I1Cent=           0 NGrid=           0
         NMat0=    1 NMatS0=  19503 NMatT0=    0 NMatD0=    1 NMtDS0=    0 NMtDT0=    0
 Petite list used in FoFCou.
 CIDS: In Core Option IDoMem=           1.
 MP4(SDTQ)
 =========
 Produce multiple copies of IABC intergrals
 DD1Dir will call FoFMem   1 times, MxPair=        56
 NAB=    28 NAA=     0 NBB=     0.
 MP4(D)= -0.11225252D-01
 MP4(S)= -0.51188061D-02
 MP4(R+Q)=  0.10694600D-01
 IPart=  9 IA=   11   10.38% done.
 IPart= 16 IA=   21   20.20% done.
 IPart=  5 IA=   32   30.33% done.
 IPart=  5 IA=   44   40.61% done.
 IPart=  9 IA=   56   50.06% done.
 IPart=  4 IA=   70   60.06% done.
 IPart=  5 IA=   86   70.12% done.
 IPart=  1 IA=  105   80.17% done.
 IPart= 10 IA=  130   90.27% done.
 Time for triples=      491.70 seconds.
 MP4(T)=   -0.21665430D-01
 E3=       -0.23145412D-02        EUMP3=      -0.15134157890D+03
 E4(DQ)=   -0.53065144D-03        UMP4(DQ)=   -0.15134210955D+03
 E4(SDQ)=  -0.56494575D-02        UMP4(SDQ)=  -0.15134722835D+03
 E4(SDTQ)= -0.27314888D-01        UMP4(SDTQ)= -0.15136889379D+03
 VARIATIONAL ENERGIES WITH THE FIRST-ORDER WAVEFUNCTION:
 E(VAR1)=  -0.15128517426D+03     E(CISD,4)=  -0.15129477656D+03
 Largest amplitude= 2.74D-02
 Discarding MO integrals.
 Leave Link  913 at Wed Apr  1 13:03:01 2020, MaxMem=  2147483648 cpu:             545.3 elap:              34.1
 (Enter /usr/local/g16/g16/l601.exe)
 Copying SCF densities to generalized density rwf, IOpCl= 0 IROHF=0.

 **********************************************************************

            Population analysis using the SCF density.

 **********************************************************************

 Orbital symmetries:
       Occupied  (A') (A') (A') (A') (A') (A') (A") (A') (A")
       Virtual   (A') (A') (A') (A") (A') (A') (A') (A') (A') (A")
                 (A") (A') (A') (A') (A") (A') (A') (A") (A') (A')
                 (A") (A') (A') (A') (A') (A") (A') (A') (A") (A')
                 (A') (A') (A') (A") (A') (A") (A') (A") (A') (A")
                 (A') (A') (A") (A') (A") (A') (A') (A") (A') (A')
                 (A') (A") (A') (A") (A') (A') (A') (A") (A") (A')
                 (A") (A') (A') (A') (A") (A') (A") (A") (A') (A')
                 (A') (A') (A') (A") (A") (A') (A") (A') (A') (A')
                 (A') (A") (A') (A') (A") (A') (A') (A") (A") (A')
                 (A') (A") (A') (A') (A') (A") (A') (A') (A") (A')
                 (A") (A") (A') (A') (A') (A") (A') (A') (A") (A')
                 (A') (A') (A') (A") (A') (A") (A') (A") (A') (A")
                 (A') (A') (A") (A') (A") (A') (A") (A') (A") (A")
                 (A') (A") (A') (A') (A") (A') (A') (A') (A') (A')
                 (A') (A') (A") (A") (A') (A') (A') (A") (A') (A')
                 (A") (A') (A") (A') (A") (A') (A") (A") (A") (A")
                 (A') (A") (A') (A') (A') (A") (A') (A') (A') (A')
                 (A') (A') (A') (A') (A") (A') (A') (A') (A") (A')
                 (A") (A') (A') (A') (A") (A') (A') (A')
 The electronic state is 1-A'.
 Alpha  occ. eigenvalues --  -20.62893 -20.62865  -1.46599  -1.21831  -0.71204
 Alpha  occ. eigenvalues --   -0.69890  -0.62628  -0.52861  -0.45806
 Alpha virt. eigenvalues --    0.03134   0.03906   0.07468   0.09046   0.10302
 Alpha virt. eigenvalues --    0.11513   0.13272   0.15304   0.17268   0.17696
 Alpha virt. eigenvalues --    0.20017   0.20776   0.24314   0.26570   0.27980
 Alpha virt. eigenvalues --    0.29024   0.30651   0.32133   0.32500   0.34669
 Alpha virt. eigenvalues --    0.37727   0.38142   0.39501   0.41277   0.43237
 Alpha virt. eigenvalues --    0.43943   0.45371   0.49424   0.49556   0.51535
 Alpha virt. eigenvalues --    0.56350   0.59455   0.65426   0.70517   0.72904
 Alpha virt. eigenvalues --    0.74434   0.77620   0.79669   0.80396   0.81294
 Alpha virt. eigenvalues --    0.82855   0.87599   0.90327   0.90995   0.94560
 Alpha virt. eigenvalues --    0.96161   0.96594   0.99244   1.01247   1.03624
 Alpha virt. eigenvalues --    1.05369   1.09749   1.10310   1.14114   1.14507
 Alpha virt. eigenvalues --    1.17694   1.18475   1.19445   1.24260   1.28223
 Alpha virt. eigenvalues --    1.30280   1.31173   1.33309   1.34144   1.34578
 Alpha virt. eigenvalues --    1.35546   1.37926   1.38647   1.40179   1.50377
 Alpha virt. eigenvalues --    1.52357   1.54855   1.59813   1.60047   1.63182
 Alpha virt. eigenvalues --    1.65967   1.70205   1.71663   1.78495   1.87374
 Alpha virt. eigenvalues --    1.94236   1.94422   2.00972   2.11431   2.14381
 Alpha virt. eigenvalues --    2.15173   2.21909   2.28315   2.30657   2.33092
 Alpha virt. eigenvalues --    2.39674   2.44540   2.46105   2.52904   2.58564
 Alpha virt. eigenvalues --    2.63753   2.69589   2.72479   2.73286   2.82538
 Alpha virt. eigenvalues --    2.83222   2.85002   2.89611   3.06799   3.10670
 Alpha virt. eigenvalues --    3.25955   3.26656   3.28561   3.28765   3.34081
 Alpha virt. eigenvalues --    3.45438   3.56333   3.69307   3.78849   3.79786
 Alpha virt. eigenvalues --    3.82575   3.82602   3.83485   3.84819   3.86861
 Alpha virt. eigenvalues --    3.92697   3.95732   3.97004   4.00345   4.09069
 Alpha virt. eigenvalues --    4.13622   4.15054   4.20780   4.30675   4.34422
 Alpha virt. eigenvalues --    4.35065   4.41339   4.43471   4.48299   4.51939
 Alpha virt. eigenvalues --    4.61522   4.65678   4.80907   5.05252   5.14826
 Alpha virt. eigenvalues --    5.28776   5.30157   5.33675   5.34989   5.64468
 Alpha virt. eigenvalues --    5.81124   6.15811   6.30291   6.42993   6.47077
 Alpha virt. eigenvalues --    6.63713   6.70874   6.79724   6.80679   7.09644
 Alpha virt. eigenvalues --    7.09678   7.10798   7.19312   7.20959   7.25924
 Alpha virt. eigenvalues --    7.31247   7.32700   7.33992   7.34297   7.39189
 Alpha virt. eigenvalues --    7.61696   7.62495   7.76393   8.01830   8.23712
 Alpha virt. eigenvalues --    8.52899   8.55483  10.90527  14.79816  14.83474
 Alpha virt. eigenvalues --   14.88400  15.06249  15.28428  29.03222  29.03866
 Alpha virt. eigenvalues --   29.08131  29.14255  29.23628  49.11480 148.31450
 Alpha virt. eigenvalues --  148.39184 148.72420 752.52656
          Condensed to atoms (all electrons):
               1          2          3          4          5
     1  O    8.104218  -0.053639   0.223121  -0.017387  -0.006526
     2  O   -0.053639   8.101837  -0.007184   0.259718  -0.000031
     3  H    0.223121  -0.007184   0.524846   0.005802   0.001221
     4  H   -0.017387   0.259718   0.005802   0.464528  -0.003652
     5  Kr  -0.006526  -0.000031   0.001221  -0.003652   0.001686
 Mulliken charges:
               1
     1  O   -0.249786
     2  O   -0.300701
     3  H    0.252194
     4  H    0.290991
     5  Kr   0.007302
 Sum of Mulliken charges =  -0.00000
 Mulliken charges with hydrogens summed into heavy atoms:
               1
     1  O    0.002408
     2  O   -0.009710
     5  Kr   0.007302
         Mulliken charges condensed to fragments:
      1     -0.007302
      2      0.007302
 Electronic spatial extent (au):  <R**2>=            324.2385
 Charge=             -0.0000 electrons
 Dipole moment (field-independent basis, Debye):
    X=             -0.0006    Y=              0.0001    Z=             -0.0000  Tot=              0.0006
 Quadrupole moment (field-independent basis, Debye-Ang):
   XX=            -10.4907   YY=             -8.3206   ZZ=            -12.9032
   XY=             -4.2444   XZ=              0.0000   YZ=              0.0000
 Traceless Quadrupole moment (field-independent basis, Debye-Ang):
   XX=              0.0808   YY=              2.2509   ZZ=             -2.3317
   XY=             -4.2444   XZ=              0.0000   YZ=              0.0000
 Octapole moment (field-independent basis, Debye-Ang**2):
  XXX=             -0.0045  YYY=             49.9229  ZZZ=             -0.0000  XYY=             16.9813
  XXY=             20.9821  XXZ=             -0.0000  XZZ=             -0.0016  YZZ=             25.8072
  YYZ=             -0.0000  XYZ=             -0.0000
 Hexadecapole moment (field-independent basis, Debye-Ang**3):
 XXXX=            -44.5659 YYYY=           -208.7729 ZZZZ=            -10.4517 XXXY=             -3.1403
 XXXZ=              0.0000 YYYX=            -52.8357 YYYZ=              0.0000 ZZZX=             -0.0000
 ZZZY=              0.0000 XXYY=            -48.6153 XXZZ=            -11.0759 YYZZ=            -55.5327
 XXYZ=              0.0000 YYXZ=              0.0000 ZZXY=              0.7140
 N-N= 3.660061905566D+01 E-N=-4.314513620067D+02  KE= 1.505164354526D+02
 Symmetry A'   KE= 1.408412714649D+02
 Symmetry A"   KE= 9.675163987746D+00
 Leave Link  601 at Wed Apr  1 13:03:01 2020, MaxMem=  2147483648 cpu:               0.6 elap:               0.0
 (Enter /usr/local/g16/g16/l122.exe)
 CPIOFr:  IOpCl= 0 IRwI=-1 IRwCP=  731 ICalc=  1 LCPTot=       59414 Len1MO=      159453 IndFrg=      378320
 Counterpoise: doing calculation for fragment   2 using the basis set of the full-system, NewBq=T
 Leave Link  122 at Wed Apr  1 13:03:01 2020, MaxMem=  2147483648 cpu:               0.0 elap:               0.0
 (Enter /usr/local/g16/g16/l301.exe)
 Basis read from rwf:  (5D, 7F)
 No pseudopotential information found on rwf file.
 There are   157 symmetry adapted cartesian basis functions of A'  symmetry.
 There are    72 symmetry adapted cartesian basis functions of A"  symmetry.
 There are   131 symmetry adapted basis functions of A'  symmetry.
 There are    66 symmetry adapted basis functions of A"  symmetry.
   197 basis functions,   415 primitive gaussians,   229 cartesian basis functions
    18 alpha electrons       18 beta electrons
       nuclear repulsion energy         0.0000000000 Hartrees.
 IExCor=    0 DFT=F Ex=HF Corr=None ExCW=0 ScaHFX=  1.000000
 ScaDFX=  1.000000  1.000000  1.000000  1.000000 ScalE2=  1.000000  1.000000
 IRadAn=      5 IRanWt=     -1 IRanGd=            0 ICorTp=0 IEmpDi=  4
 NAtoms=    5 NActive=    5 NUniq=    5 SFac= 1.00D+00 NAtFMM=   60 NAOKFM=F Big=F
 Integral buffers will be    131072 words long.
 Raffenetti 1 integral format.
 Two-electron integral symmetry is turned on.
 No density basis found on file   718.
 Leave Link  301 at Wed Apr  1 13:03:01 2020, MaxMem=  2147483648 cpu:               0.4 elap:               0.0
 (Enter /usr/local/g16/g16/l302.exe)
 NPDir=0 NMtPBC=     1 NCelOv=     1 NCel=       1 NClECP=     1 NCelD=      1
         NCelK=      1 NCelE2=     1 NClLst=     1 CellRange=     0.0.
 One-electron integrals computed using PRISM.
 One-electron integral symmetry used in STVInt
 NBasis=   197 RedAO= T EigKep=  1.91D-04  NBF=   131    66
 NBsUse=   197 1.00D-06 EigRej= -1.00D+00 NBFU=   131    66
 Leave Link  302 at Wed Apr  1 13:03:01 2020, MaxMem=  2147483648 cpu:               1.7 elap:               0.1
 (Enter /usr/local/g16/g16/l303.exe)
 DipDrv:  MaxL=1.
 Leave Link  303 at Wed Apr  1 13:03:01 2020, MaxMem=  2147483648 cpu:               0.4 elap:               0.0
 (Enter /usr/local/g16/g16/l401.exe)
 ExpMin= 2.53D-02 ExpMax= 1.17D+07 ExpMxC= 1.33D+04 IAcc=3 IRadAn=         5 AccDes= 0.00D+00
 Harris functional with IExCor=  205 and IRadAn=       5 diagonalized for initial guess.
 HarFok:  IExCor=  205 AccDes= 0.00D+00 IRadAn=         5 IDoV= 1 UseB2=F ITyADJ=14
 ICtDFT=  3500011 ScaDFX=  1.000000  1.000000  1.000000  1.000000
 FoFCou: FMM=F IPFlag=           0 FMFlag=      100000 FMFlg1=           0
         NFxFlg=           0 DoJE=T BraDBF=F KetDBF=T FulRan=T
         wScrn=  0.000000 ICntrl=       500 IOpCl=  0 I1Cent=   200000004 NGrid=           0
         NMat0=    1 NMatS0=      1 NMatT0=    0 NMatD0=    1 NMtDS0=    0 NMtDT0=    0
 Petite list used in FoFCou.
 Harris En= -2751.06003410533    
 JPrj=0 DoOrth=F DoCkMO=F.
 Initial guess orbital symmetries:
       Occupied  (A') (A') (A') (A') (A") (A') (A') (A') (A") (A')
                 (A') (A") (A') (A") (A') (A') (A') (A")
       Virtual   (A') (A') (A') (A") (A') (A') (A") (A') (A') (A")
                 (A') (A') (A') (A") (A') (A") (A') (A') (A') (A")
                 (A') (A') (A") (A') (A') (A') (A") (A') (A') (A')
                 (A") (A') (A") (A') (A") (A') (A') (A') (A') (A")
                 (A') (A") (A') (A") (A') (A") (A') (A') (A") (A')
                 (A') (A') (A") (A") (A') (A") (A') (A') (A') (A")
                 (A') (A") (A') (A') (A') (A") (A") (A') (A') (A')
                 (A') (A') (A") (A') (A") (A') (A') (A') (A') (A")
                 (A') (A') (A") (A') (A") (A') (A") (A') (A") (A')
                 (A") (A') (A') (A") (A") (A') (A") (A') (A') (A")
                 (A') (A') (A") (A") (A') (A") (A') (A') (A') (A')
                 (A") (A") (A') (A') (A') (A') (A") (A") (A') (A')
                 (A') (A') (A') (A") (A') (A') (A") (A') (A') (A")
                 (A') (A") (A') (A') (A") (A') (A') (A") (A") (A')
                 (A') (A') (A') (A') (A') (A") (A') (A") (A') (A')
                 (A") (A") (A') (A") (A") (A') (A') (A') (A') (A')
                 (A') (A") (A") (A") (A') (A') (A") (A') (A') (A")
                 (A') (A") (A') (A') (A') (A') (A') (A') (A')
 The electronic state of the initial guess is 1-A'.
 Leave Link  401 at Wed Apr  1 13:03:01 2020, MaxMem=  2147483648 cpu:               2.6 elap:               0.2
 (Enter /usr/local/g16/g16/l502.exe)
 Keep R1 ints in memory in symmetry-blocked form, NReq=286560089.
 FoFCou: FMM=F IPFlag=           0 FMFlag=           0 FMFlg1=           0
         NFxFlg=           0 DoJE=F BraDBF=F KetDBF=F FulRan=T
         wScrn=  0.000000 ICntrl=       600 IOpCl=  0 I1Cent=           0 NGrid=           0
         NMat0=    1 NMatS0=  19503 NMatT0=    0 NMatD0=    1 NMtDS0=    0 NMtDT0=    0
 Petite list used in FoFCou.
 Closed shell SCF:
 Using DIIS extrapolation, IDIIS=  1040.
 NGot=  2147483648 LenX=  2051007463 LenY=  2050954581
 Requested convergence on RMS density matrix=1.00D-08 within 128 cycles.
 Requested convergence on MAX density matrix=1.00D-06.
 Requested convergence on             energy=1.00D-06.
 No special actions if energy rises.

 Cycle   1  Pass 1  IDiag  1:
 E= -2752.00362709805    
 DIIS: error= 3.60D-02 at cycle   1 NSaved=   1.
 NSaved= 1 IEnMin= 1 EnMin= -2752.00362709805     IErMin= 1 ErrMin= 3.60D-02
 ErrMax= 3.60D-02  0.00D+00 EMaxC= 1.00D-01 BMatC= 4.28D-01 BMatP= 4.28D-01
 IDIUse=3 WtCom= 6.40D-01 WtEn= 3.60D-01
 Coeff-Com:  0.100D+01
 Coeff-En:   0.100D+01
 Coeff:      0.100D+01
 Gap=     0.630 Goal=   None    Shift=    0.000
 GapD=    0.630 DampG=2.000 DampE=0.500 DampFc=1.0000 IDamp=-1.
 RMSDP=1.77D-03 MaxDP=1.29D-01              OVMax= 2.38D-02

 Cycle   2  Pass 1  IDiag  1:
 E= -2752.04698333700     Delta-E=       -0.043356238949 Rises=F Damp=F
 DIIS: error= 8.06D-03 at cycle   2 NSaved=   2.
 NSaved= 2 IEnMin= 2 EnMin= -2752.04698333700     IErMin= 2 ErrMin= 8.06D-03
 ErrMax= 8.06D-03  0.00D+00 EMaxC= 1.00D-01 BMatC= 1.97D-02 BMatP= 4.28D-01
 IDIUse=3 WtCom= 9.19D-01 WtEn= 8.06D-02
 Coeff-Com:  0.152D+00 0.848D+00
 Coeff-En:   0.000D+00 0.100D+01
 Coeff:      0.140D+00 0.860D+00
 Gap=     0.543 Goal=   None    Shift=    0.000
 RMSDP=5.80D-04 MaxDP=3.49D-02 DE=-4.34D-02 OVMax= 1.31D-02

 Cycle   3  Pass 1  IDiag  1:
 E= -2752.05205055447     Delta-E=       -0.005067217468 Rises=F Damp=F
 DIIS: error= 1.51D-03 at cycle   3 NSaved=   3.
 NSaved= 3 IEnMin= 3 EnMin= -2752.05205055447     IErMin= 3 ErrMin= 1.51D-03
 ErrMax= 1.51D-03  0.00D+00 EMaxC= 1.00D-01 BMatC= 7.26D-04 BMatP= 1.97D-02
 IDIUse=3 WtCom= 9.85D-01 WtEn= 1.51D-02
 Coeff-Com: -0.128D-02 0.156D+00 0.845D+00
 Coeff-En:   0.000D+00 0.000D+00 0.100D+01
 Coeff:     -0.126D-02 0.154D+00 0.847D+00
 Gap=     0.554 Goal=   None    Shift=    0.000
 RMSDP=7.60D-05 MaxDP=4.43D-03 DE=-5.07D-03 OVMax= 2.91D-03

 Cycle   4  Pass 1  IDiag  1:
 E= -2752.05226579743     Delta-E=       -0.000215242967 Rises=F Damp=F
 DIIS: error= 4.13D-05 at cycle   4 NSaved=   4.
 NSaved= 4 IEnMin= 4 EnMin= -2752.05226579743     IErMin= 4 ErrMin= 4.13D-05
 ErrMax= 4.13D-05  0.00D+00 EMaxC= 1.00D-01 BMatC= 7.46D-07 BMatP= 7.26D-04
 IDIUse=1 WtCom= 1.00D+00 WtEn= 0.00D+00
 Coeff-Com: -0.364D-03-0.178D-01-0.587D-01 0.108D+01
 Coeff:     -0.364D-03-0.178D-01-0.587D-01 0.108D+01
 Gap=     0.553 Goal=   None    Shift=    0.000
 RMSDP=6.19D-06 MaxDP=2.89D-04 DE=-2.15D-04 OVMax= 2.71D-04

 Cycle   5  Pass 1  IDiag  1:
 E= -2752.05226623967     Delta-E=       -0.000000442242 Rises=F Damp=F
 DIIS: error= 3.70D-06 at cycle   5 NSaved=   5.
 NSaved= 5 IEnMin= 5 EnMin= -2752.05226623967     IErMin= 5 ErrMin= 3.70D-06
 ErrMax= 3.70D-06  0.00D+00 EMaxC= 1.00D-01 BMatC= 6.02D-09 BMatP= 7.46D-07
 IDIUse=1 WtCom= 1.00D+00 WtEn= 0.00D+00
 Coeff-Com:  0.614D-04 0.148D-04-0.517D-02-0.847D-01 0.109D+01
 Coeff:      0.614D-04 0.148D-04-0.517D-02-0.847D-01 0.109D+01
 Gap=     0.553 Goal=   None    Shift=    0.000
 RMSDP=6.75D-07 MaxDP=2.89D-05 DE=-4.42D-07 OVMax= 2.77D-05

 Cycle   6  Pass 1  IDiag  1:
 E= -2752.05226624551     Delta-E=       -0.000000005832 Rises=F Damp=F
 DIIS: error= 3.25D-07 at cycle   6 NSaved=   6.
 NSaved= 6 IEnMin= 6 EnMin= -2752.05226624551     IErMin= 6 ErrMin= 3.25D-07
 ErrMax= 3.25D-07  0.00D+00 EMaxC= 1.00D-01 BMatC= 4.09D-11 BMatP= 6.02D-09
 IDIUse=1 WtCom= 1.00D+00 WtEn= 0.00D+00
 Coeff-Com: -0.300D-05 0.100D-03 0.863D-03-0.190D-02-0.931D-01 0.109D+01
 Coeff:     -0.300D-05 0.100D-03 0.863D-03-0.190D-02-0.931D-01 0.109D+01
 Gap=     0.553 Goal=   None    Shift=    0.000
 RMSDP=6.77D-08 MaxDP=3.79D-06 DE=-5.83D-09 OVMax= 3.31D-06

 Cycle   7  Pass 1  IDiag  1:
 E= -2752.05226624553     Delta-E=       -0.000000000027 Rises=F Damp=F
 DIIS: error= 2.25D-08 at cycle   7 NSaved=   7.
 NSaved= 7 IEnMin= 7 EnMin= -2752.05226624553     IErMin= 7 ErrMin= 2.25D-08
 ErrMax= 2.25D-08  0.00D+00 EMaxC= 1.00D-01 BMatC= 1.42D-13 BMatP= 4.09D-11
 IDIUse=1 WtCom= 1.00D+00 WtEn= 0.00D+00
 Coeff-Com:  0.587D-07-0.398D-05-0.341D-04 0.235D-03 0.301D-02-0.656D-01
 Coeff-Com:  0.106D+01
 Coeff:      0.587D-07-0.398D-05-0.341D-04 0.235D-03 0.301D-02-0.656D-01
 Coeff:      0.106D+01
 Gap=     0.553 Goal=   None    Shift=    0.000
 RMSDP=6.19D-09 MaxDP=2.17D-07 DE=-2.68D-11 OVMax= 2.36D-07

 SCF Done:  E(RHF) =  -2752.05226625     A.U. after    7 cycles
            NFock=  7  Conv=0.62D-08     -V/T= 2.0000
 KE= 2.752039680780D+03 PE=-6.582554663453D+03 EE= 1.078462716428D+03
 Leave Link  502 at Wed Apr  1 13:03:04 2020, MaxMem=  2147483648 cpu:              37.0 elap:               2.6
 (Enter /usr/local/g16/g16/l801.exe)
 Windowed orbitals will be sorted by symmetry type.
 ExpMin= 2.53D-02 ExpMax= 1.17D+07 ExpMxC= 1.33D+04 IAcc=3 IRadAn=         5 AccDes= 0.00D+00
 HarFok:  IExCor=  205 AccDes= 0.00D+00 IRadAn=         5 IDoV=-2 UseB2=F ITyADJ=14
 ICtDFT= 12500011 ScaDFX=  1.000000  1.000000  1.000000  1.000000
 Largest valence mixing into a core orbital is  9.81D-05
 Largest core mixing into a valence orbital is  3.83D-05
 Range of M.O.s used for correlation:    10   197
 NBasis=   197 NAE=    18 NBE=    18 NFC=     9 NFV=     0
 NROrb=    188 NOA=     9 NOB=     9 NVA=   179 NVB=   179

 **** Warning!!: The largest alpha MO coefficient is  0.14270677D+02

 Leave Link  801 at Wed Apr  1 13:03:04 2020, MaxMem=  2147483648 cpu:               0.5 elap:               0.0
 (Enter /usr/local/g16/g16/l804.exe)
 Closed-shell transformation, MDV=  2147483648 ITran=4 ISComp=2.
 Semi-Direct transformation.
 ModeAB=           2 MOrb=             9 LenV=    2146334254
 LASXX=     14592042 LTotXX=    14592042 LenRXX=    14592042
 LTotAB=    14843691 MaxLAS=    44558820 LenRXY=    44558820
 NonZer=    44876916 LenScr=    68079616 LnRSAI=           0
 LnScr1=           0 LExtra=           0 Total=    127230478
 MaxDsk=          -1 SrtSym=           F ITran=            4
 DoSDTr:  NPSUse= 16
 JobTyp=0 Pass  1:  I=   1 to   9.
 (rs|ai) integrals will be sorted in core.
 Complete sort for first half transformation.
 First half transformation complete.
 Complete sort for second half transformation.
 Second half transformation complete.
 Spin components of T(2) and E(2):
     alpha-alpha T2 =       0.9502491841D-02 E2=     -0.3580361210D-01
     alpha-beta  T2 =       0.4817616059D-01 E2=     -0.1723135170D+00
     beta-beta   T2 =       0.9502491841D-02 E2=     -0.3580361210D-01
 ANorm=    0.1033044599D+01
 E2 =    -0.2439207412D+00 EUMP2 =    -0.27522961869867D+04
 Leave Link  804 at Wed Apr  1 13:03:12 2020, MaxMem=  2147483648 cpu:             128.2 elap:               8.0
 (Enter /usr/local/g16/g16/l913.exe)
 CIDS:  MDV=  2147483648.
 Frozen-core window:  NFC=   9 NFV=   0.
 IFCWin=0 IBDFC=1 NFBD=     0     0 NFCmp=     0     0 NFFFC=     0     0
 Using DD3R+UMP44R for 1st iteration.
 Using DD4RQ for 2nd and later iterations.
 Keep R2 and R3 ints in memory in symmetry-blocked form, NReq=289020177.
 FoFCou: FMM=F IPFlag=           0 FMFlag=           0 FMFlg1=           0
         NFxFlg=           0 DoJE=F BraDBF=F KetDBF=F FulRan=T
         wScrn=  0.000000 ICntrl=       600 IOpCl=  0 I1Cent=           0 NGrid=           0
         NMat0=    1 NMatS0=  19503 NMatT0=    0 NMatD0=    1 NMtDS0=    0 NMtDT0=    0
 Petite list used in FoFCou.
 CIDS: In Core Option IDoMem=           1.
 MP4(SDTQ)
 =========
 Produce multiple copies of IABC intergrals
 DD1Dir will call FoFMem   1 times, MxPair=        90
 NAB=    45 NAA=     0 NBB=     0.
 MP4(D)= -0.37207611D-02
 MP4(S)= -0.10893312D-02
 MP4(R+Q)=  0.42465779D-02
 IPart=  2 IA=   11   10.89% done.
 IPart= 12 IA=   20   20.16% done.
 IPart=  5 IA=   31   30.79% done.
 IPart=  9 IA=   42   40.66% done.
 IPart=  9 IA=   54   50.57% done.
 IPart=  4 IA=   67   60.28% done.
 IPart= 11 IA=   82   70.17% done.
 IPart=  6 IA=  100   80.16% done.
 IPart= 12 IA=  124   90.33% done.
 Time for triples=      654.55 seconds.
 MP4(T)=   -0.77765986D-02
 E3=       -0.98647597D-02        EUMP3=      -0.27523060517D+04
 E4(DQ)=    0.52581682D-03        UMP4(DQ)=   -0.27523055259D+04
 E4(SDQ)=  -0.56351441D-03        UMP4(SDQ)=  -0.27523066153D+04
 E4(SDTQ)= -0.83401130D-02        UMP4(SDTQ)= -0.27523143919D+04
 VARIATIONAL ENERGIES WITH THE FIRST-ORDER WAVEFUNCTION:
 E(VAR1)=  -0.27522900755D+04     E(CISD,4)=  -0.27522944750D+04
 Largest amplitude= 1.66D-02
 Discarding MO integrals.
 Leave Link  913 at Wed Apr  1 13:03:57 2020, MaxMem=  2147483648 cpu:             716.6 elap:              44.8
 (Enter /usr/local/g16/g16/l601.exe)
 Copying SCF densities to generalized density rwf, IOpCl= 0 IROHF=0.

 **********************************************************************

            Population analysis using the SCF density.

 **********************************************************************

 Orbital symmetries:
       Occupied  (A') (A') (A") (A') (A') (A') (A") (A') (A') (A")
                 (A') (A") (A') (A') (A') (A') (A') (A")
       Virtual   (A') (A') (A') (A") (A') (A') (A') (A") (A') (A')
                 (A") (A') (A') (A") (A') (A') (A") (A') (A') (A")
                 (A') (A') (A') (A") (A') (A') (A') (A") (A') (A')
                 (A") (A') (A') (A") (A') (A") (A') (A') (A') (A")
                 (A") (A') (A') (A') (A") (A') (A') (A") (A') (A")
                 (A') (A") (A') (A") (A') (A') (A") (A') (A") (A')
                 (A') (A') (A") (A') (A") (A') (A') (A') (A') (A")
                 (A') (A') (A') (A") (A") (A') (A') (A') (A') (A")
                 (A') (A") (A') (A') (A") (A') (A") (A") (A') (A')
                 (A") (A') (A") (A") (A') (A") (A') (A") (A') (A')
                 (A') (A") (A') (A") (A') (A') (A") (A') (A") (A')
                 (A') (A") (A') (A') (A') (A") (A') (A") (A') (A')
                 (A') (A') (A') (A") (A') (A") (A') (A') (A") (A')
                 (A') (A") (A") (A') (A') (A') (A') (A") (A") (A')
                 (A') (A') (A') (A') (A') (A") (A') (A") (A') (A')
                 (A") (A") (A') (A") (A") (A') (A') (A') (A') (A')
                 (A') (A") (A") (A") (A') (A') (A") (A') (A') (A")
                 (A') (A") (A') (A') (A') (A') (A') (A') (A')
 The electronic state is 1-A'.
 Alpha  occ. eigenvalues -- -520.16580 -69.90314 -63.00972 -63.00972 -63.00972
 Alpha  occ. eigenvalues --  -10.84954  -8.33154  -8.33154  -8.33153  -3.82531
 Alpha  occ. eigenvalues --   -3.82531  -3.82531  -3.82530  -3.82529  -1.15311
 Alpha  occ. eigenvalues --   -0.52431  -0.52429  -0.52429
 Alpha virt. eigenvalues --    0.02906   0.04921   0.08523   0.10120   0.10918
 Alpha virt. eigenvalues --    0.12332   0.13150   0.14597   0.16787   0.17303
 Alpha virt. eigenvalues --    0.17937   0.19809   0.21658   0.27570   0.27901
 Alpha virt. eigenvalues --    0.29009   0.29998   0.34592   0.34755   0.36873
 Alpha virt. eigenvalues --    0.37118   0.37356   0.38987   0.41027   0.42653
 Alpha virt. eigenvalues --    0.44214   0.45197   0.57192   0.57337   0.61074
 Alpha virt. eigenvalues --    0.62822   0.65253   0.68923   0.69121   0.71178
 Alpha virt. eigenvalues --    0.77135   0.77442   0.79494   0.81348   0.81891
 Alpha virt. eigenvalues --    0.83738   0.83921   0.87325   0.87678   0.88275
 Alpha virt. eigenvalues --    0.89137   0.90284   0.90659   0.96090   0.96762
 Alpha virt. eigenvalues --    1.00267   1.01961   1.03483   1.06102   1.07235
 Alpha virt. eigenvalues --    1.09554   1.14596   1.14602   1.14898   1.17311
 Alpha virt. eigenvalues --    1.18309   1.22155   1.24960   1.28199   1.29863
 Alpha virt. eigenvalues --    1.35898   1.37617   1.44746   1.48219   1.51202
 Alpha virt. eigenvalues --    1.61165   1.65609   1.73154   1.74704   1.78322
 Alpha virt. eigenvalues --    1.82849   1.87134   1.89103   1.91233   2.24873
 Alpha virt. eigenvalues --    2.33890   2.36849   2.37137   2.38561   2.38958
 Alpha virt. eigenvalues --    2.43210   2.43455   2.48937   2.50636   2.53365
 Alpha virt. eigenvalues --    2.54067   2.54753   2.56706   2.57818   2.58373
 Alpha virt. eigenvalues --    2.60870   2.61197   2.65252   2.65801   2.67431
 Alpha virt. eigenvalues --    2.70473   2.70930   2.74402   2.75813   2.75892
 Alpha virt. eigenvalues --    2.80790   2.81029   2.90375   2.90417   2.91350
 Alpha virt. eigenvalues --    2.97171   3.04322   3.10642   3.12460   3.16415
 Alpha virt. eigenvalues --    3.25806   3.26027   3.29219   3.36793   3.54022
 Alpha virt. eigenvalues --    3.59774   3.65059   3.85668   3.87471   4.03523
 Alpha virt. eigenvalues --    4.43229   4.48436   4.57457   4.63019   4.65522
 Alpha virt. eigenvalues --    4.77145   4.92831   4.92888   4.93380   5.07316
 Alpha virt. eigenvalues --    5.13707   5.15353   5.60049   5.66719   5.84834
 Alpha virt. eigenvalues --    5.87506   5.95935   6.23201   6.84919   6.96032
 Alpha virt. eigenvalues --    7.25650   7.42787   7.60155   7.65911   7.75875
 Alpha virt. eigenvalues --    7.78112   8.09799   8.09974   8.16748   8.26085
 Alpha virt. eigenvalues --    8.33347   8.37962   8.69536   8.90232   9.64695
 Alpha virt. eigenvalues --    9.70981   9.76776   9.83065   9.95649  10.06572
 Alpha virt. eigenvalues --   10.18501  10.19677  10.50027  10.93356  11.41751
 Alpha virt. eigenvalues --   11.56482  11.61503  12.03365  12.14582  13.21699
 Alpha virt. eigenvalues --   13.70094  14.53187  62.96281  64.52004
          Condensed to atoms (all electrons):
               1          2          3          4          5
     1  O    0.001118  -0.001040  -0.000459   0.000471  -0.004360
     2  O   -0.001040   0.002386   0.000332  -0.001292  -0.004271
     3  H   -0.000459   0.000332   0.000249  -0.000126   0.000644
     4  H    0.000471  -0.001292  -0.000126   0.001045  -0.007219
     5  Kr  -0.004360  -0.004271   0.000644  -0.007219  36.029844
 Mulliken charges:
               1
     1  O    0.004270
     2  O    0.003884
     3  H   -0.000639
     4  H    0.007122
     5  Kr  -0.014638
 Sum of Mulliken charges =  -0.00000
 Mulliken charges with hydrogens summed into heavy atoms:
               1
     1  O    0.003631
     2  O    0.011007
     5  Kr  -0.014638
         Mulliken charges condensed to fragments:
      1      0.014638
      2     -0.014638
 Electronic spatial extent (au):  <R**2>=            168.1086
 Charge=              0.0000 electrons
 Dipole moment (field-independent basis, Debye):
    X=             -0.0005    Y=             -0.0010    Z=              0.0000  Tot=              0.0011
 Quadrupole moment (field-independent basis, Debye-Ang):
   XX=            -17.7321   YY=            -17.7285   ZZ=            -17.7358
   XY=              0.0025   XZ=              0.0000   YZ=              0.0000
 Traceless Quadrupole moment (field-independent basis, Debye-Ang):
   XX=              0.0001   YY=              0.0036   ZZ=             -0.0037
   XY=              0.0025   XZ=              0.0000   YZ=              0.0000
 Octapole moment (field-independent basis, Debye-Ang**2):
  XXX=             -0.0031  YYY=            -53.1868  ZZZ=              0.0000  XYY=              0.0061
  XXY=            -17.7340  XXZ=              0.0000  XZZ=             -0.0012  YZZ=            -17.7364
  YYZ=              0.0000  XYZ=             -0.0000
 Hexadecapole moment (field-independent basis, Debye-Ang**3):
 XXXX=            -18.5360 YYYY=           -124.9108 ZZZZ=            -18.5483 XXXY=              0.0081
 XXXZ=              0.0000 YYYX=              0.0151 YYYZ=              0.0000 ZZZX=              0.0000
 ZZZY=              0.0000 XXYY=            -23.9115 XXZZ=             -6.1789 YYZZ=            -23.9155
 XXYZ=              0.0000 YYXZ=             -0.0000 ZZXY=              0.0035
 N-N= 0.000000000000D+00 E-N=-6.582554664978D+03  KE= 2.752039680780D+03
 Symmetry A'   KE= 2.345450897461D+03
 Symmetry A"   KE= 4.065887833193D+02
 Leave Link  601 at Wed Apr  1 13:03:57 2020, MaxMem=  2147483648 cpu:               0.6 elap:               0.0
 (Enter /usr/local/g16/g16/l122.exe)
 CPIOFr:  IOpCl= 0 IRwI=-1 IRwCP=  731 ICalc=  2 LCPTot=       59414 Len1MO=      159453 IndFrg=      537773
 Counterpoise: doing calculation for fragment   1 using the basis set of the fragment.
 Leave Link  122 at Wed Apr  1 13:03:57 2020, MaxMem=  2147483648 cpu:               0.0 elap:               0.0
 (Enter /usr/local/g16/g16/l301.exe)
 Basis read from rwf:  (5D, 7F)
 No pseudopotential information found on rwf file.
 There are   110 symmetry adapted cartesian basis functions of A'  symmetry.
 There are    50 symmetry adapted cartesian basis functions of A"  symmetry.
 There are    92 symmetry adapted basis functions of A'  symmetry.
 There are    46 symmetry adapted basis functions of A"  symmetry.
   138 basis functions,   198 primitive gaussians,   160 cartesian basis functions
     9 alpha electrons        9 beta electrons
       nuclear repulsion energy        36.6006190557 Hartrees.
 IExCor=    0 DFT=F Ex=HF Corr=None ExCW=0 ScaHFX=  1.000000
 ScaDFX=  1.000000  1.000000  1.000000  1.000000 ScalE2=  1.000000  1.000000
 IRadAn=      5 IRanWt=     -1 IRanGd=            0 ICorTp=0 IEmpDi=  4
 NAtoms=    5 NActive=    4 NUniq=    4 SFac= 1.00D+00 NAtFMM=   60 NAOKFM=F Big=F
 Integral buffers will be    131072 words long.
 Raffenetti 1 integral format.
[...]
 KE= 1.505167269600D+02 PE=-4.314507145862D+02 EE= 9.350080158669D+01
 Leave Link  502 at Wed Apr  1 14:22:31 2020, MaxMem=  2147483648 cpu:              10.6 elap:               0.7
 (Enter /usr/local/g16/g16/l801.exe)
 Windowed orbitals will be sorted by symmetry type.
 ExpMin= 2.53D-02 ExpMax= 1.53D+04 ExpMxC= 5.22D+02 IAcc=3 IRadAn=         5 AccDes= 0.00D+00
 HarFok:  IExCor=  205 AccDes= 0.00D+00 IRadAn=         5 IDoV=-2 UseB2=F ITyADJ=14
 ICtDFT= 12500011 ScaDFX=  1.000000  1.000000  1.000000  1.000000
 Largest valence mixing into a core orbital is  1.19D-04
 Largest core mixing into a valence orbital is  2.01D-05
 Range of M.O.s used for correlation:     3   138
 NBasis=   138 NAE=     9 NBE=     9 NFC=     2 NFV=     0
 NROrb=    136 NOA=     7 NOB=     7 NVA=   129 NVB=   129

 **** Warning!!: The largest alpha MO coefficient is  0.14502683D+02

 Leave Link  801 at Wed Apr  1 14:22:31 2020, MaxMem=  2147483648 cpu:               0.5 elap:               0.0
 (Enter /usr/local/g16/g16/l804.exe)
 Closed-shell transformation, MDV=  2147483648 ITran=4 ISComp=2.
 Semi-Direct transformation.
 ModeAB=           2 MOrb=             7 LenV=    2146847900
 LASXX=      4287317 LTotXX=     4287317 LenRXX=     4287317
 LTotAB=     4391322 MaxLAS=    12261760 LenRXY=    12261760
 NonZer=    12615904 LenScr=    19675136 LnRSAI=           0
 LnScr1=           0 LExtra=           0 Total=     36224213
 MaxDsk=          -1 SrtSym=           F ITran=            4
 DoSDTr:  NPSUse= 16
 JobTyp=0 Pass  1:  I=   1 to   7.
 (rs|ai) integrals will be sorted in core.
 Complete sort for first half transformation.
 First half transformation complete.
 Complete sort for second half transformation.
 Second half transformation complete.
 Spin components of T(2) and E(2):
     alpha-alpha T2 =       0.1589622430D-01 E2=     -0.6265366395D-01
     alpha-beta  T2 =       0.9283774507D-01 E2=     -0.3811638573D+00
     beta-beta   T2 =       0.1589622430D-01 E2=     -0.6265366395D-01
 ANorm=    0.1060485829D+01
 E2 =    -0.5064711853D+00 EUMP2 =    -0.15133903816909D+03
 Leave Link  804 at Wed Apr  1 14:22:33 2020, MaxMem=  2147483648 cpu:              28.1 elap:               1.8
 (Enter /usr/local/g16/g16/l913.exe)
 CIDS:  MDV=  2147483648.
 Frozen-core window:  NFC=   2 NFV=   0.
 IFCWin=0 IBDFC=1 NFBD=     0     0 NFCmp=     0     0 NFFFC=     0     0
 Using DD3R+UMP44R for 1st iteration.
 Using DD4RQ for 2nd and later iterations.
 Keep R2 and R3 ints in memory in symmetry-blocked form, NReq=69984134.
 FoFCou: FMM=F IPFlag=           0 FMFlag=           0 FMFlg1=           0
         NFxFlg=           0 DoJE=F BraDBF=F KetDBF=F FulRan=T
         wScrn=  0.000000 ICntrl=       600 IOpCl=  0 I1Cent=           0 NGrid=           0
         NMat0=    1 NMatS0=   9591 NMatT0=    0 NMatD0=    1 NMtDS0=    0 NMtDT0=    0
 Petite list used in FoFCou.
 CIDS: In Core Option IDoMem=           1.
 MP4(SDTQ)
 =========
 Produce multiple copies of IABC intergrals
 DD1Dir will call FoFMem   1 times, MxPair=        56
 NAB=    28 NAA=     0 NBB=     0.
 MP4(D)= -0.11223200D-01
 MP4(S)= -0.51177183D-02
 MP4(R+Q)=  0.10687115D-01
 IPart=  4 IA=    8   10.60% done.
 IPart= 12 IA=   15   20.60% done.
 IPart=  5 IA=   22   30.01% done.
 IPart= 10 IA=   30   40.04% done.
 IPart= 14 IA=   39   50.40% done.
 IPart= 13 IA=   49   60.76% done.
 IPart=  8 IA=   60   70.75% done.
 IPart= 11 IA=   73   80.67% done.
 IPart= 16 IA=   89   90.07% done.
 Time for triples=      109.45 seconds.
 MP4(T)=   -0.21648820D-01
 E3=       -0.23162261D-02        EUMP3=      -0.15134135440D+03
 E4(DQ)=   -0.53608499D-03        UMP4(DQ)=   -0.15134189048D+03
 E4(SDQ)=  -0.56538033D-02        UMP4(SDQ)=  -0.15134700820D+03
 E4(SDTQ)= -0.27302623D-01        UMP4(SDTQ)= -0.15136865702D+03
 VARIATIONAL ENERGIES WITH THE FIRST-ORDER WAVEFUNCTION:
 E(VAR1)=  -0.15128497117D+03     E(CISD,4)=  -0.15129457371D+03
 Largest amplitude= 3.44D-02
 Discarding MO integrals.
 Leave Link  913 at Wed Apr  1 14:22:41 2020, MaxMem=  2147483648 cpu:             127.0 elap:               7.9
 (Enter /usr/local/g16/g16/l122.exe)
 CPIOFr:  IOpCl= 0 IRwI=-1 IRwCP=  731 ICalc=  3 LCPTot=       59414 Len1MO=      159453 IndFrg=      697226
 Restoring MOs from calculation   5 to rwf and chk.
 CPIOFr:  IOpCl= 0 IRwI=-2 IRwCP=20731 ICalc=  4 LCPTot=       59414 Len1MO=      159453 IndFrg=      856679
 CPIOFr:  IOpCl= 0 IRwI= 4 IRwCP=20731 ICalc=  4 LCPTot=       59414 Len1MO=      159453 IndFrg=      856679
 Counterpoise: doing calculation for fragment   2 using the basis set of the fragment.
 Leave Link  122 at Wed Apr  1 14:22:41 2020, MaxMem=  2147483648 cpu:               0.1 elap:               0.0
 (Enter /usr/local/g16/g16/l301.exe)
 Basis read from rwf:  (5D, 7F)
 No pseudopotential information found on rwf file.
 There are    47 symmetry adapted cartesian basis functions of A'  symmetry.
 There are    22 symmetry adapted cartesian basis functions of A"  symmetry.
 There are    39 symmetry adapted basis functions of A'  symmetry.
 There are    20 symmetry adapted basis functions of A"  symmetry.
    59 basis functions,   217 primitive gaussians,    69 cartesian basis functions
    18 alpha electrons       18 beta electrons
       nuclear repulsion energy         0.0000000000 Hartrees.
 IExCor=    0 DFT=F Ex=HF Corr=None ExCW=0 ScaHFX=  1.000000
 ScaDFX=  1.000000  1.000000  1.000000  1.000000 ScalE2=  1.000000  1.000000
 IRadAn=      5 IRanWt=     -1 IRanGd=            0 ICorTp=0 IEmpDi=  4
 NAtoms=    5 NActive=    1 NUniq=    1 SFac= 1.00D+00 NAtFMM=   60 NAOKFM=F Big=F
 Integral buffers will be    131072 words long.
 Raffenetti 1 integral format.
 Two-electron integral symmetry is turned on.
 No density basis found on file   718.
 Leave Link  301 at Wed Apr  1 14:22:41 2020, MaxMem=  2147483648 cpu:               0.3 elap:               0.0
 (Enter /usr/local/g16/g16/l302.exe)
 NPDir=0 NMtPBC=     1 NCelOv=     1 NCel=       1 NClECP=     1 NCelD=      1
         NCelK=      1 NCelE2=     1 NClLst=     1 CellRange=     0.0.
 One-electron integrals computed using PRISM.
 One-electron integral symmetry used in STVInt
 NBasis=    59 RedAO= T EigKep=  1.06D-02  NBF=    39    20
 NBsUse=    59 1.00D-06 EigRej= -1.00D+00 NBFU=    39    20
 Leave Link  302 at Wed Apr  1 14:22:41 2020, MaxMem=  2147483648 cpu:               1.3 elap:               0.1
 (Enter /usr/local/g16/g16/l303.exe)
 DipDrv:  MaxL=1.
 Leave Link  303 at Wed Apr  1 14:22:41 2020, MaxMem=  2147483648 cpu:               0.3 elap:               0.0
 (Enter /usr/local/g16/g16/l401.exe)
 Initial guess from the checkpoint file:  "/mnt/driveB/scratch/matheus/Gau-124902.chk"
 B after Tr=     0.000000    0.062991   -0.000000
         Rot=    1.000000    0.000000    0.000000    0.000000 Ang=   0.00 deg.
 Guess basis will be translated and rotated to current coordinates.
 JPrj=2 DoOrth=T DoCkMO=T.
 Initial guess orbital symmetries:
       Occupied  (A') (A') (A') (A") (A') (A') (A") (A') (A') (A')
                 (A') (A") (A") (A') (A') (A") (A') (A')
       Virtual   (A') (A") (A') (A') (A') (A") (A") (A') (A') (A")
                 (A') (A') (A') (A') (A") (A") (A') (A') (A") (A")
                 (A") (A') (A') (A') (A') (A") (A') (A') (A") (A")
                 (A') (A') (A') (A") (A") (A") (A') (A') (A') (A')
                 (A')
 The electronic state of the initial guess is 1-A'.
 Generating alternative initial guess.
 ExpMin= 4.00D-02 ExpMax= 1.17D+07 ExpMxC= 1.33D+04 IAcc=3 IRadAn=         5 AccDes= 0.00D+00
 Harris functional with IExCor=  205 and IRadAn=       5 diagonalized for initial guess.
 HarFok:  IExCor=  205 AccDes= 0.00D+00 IRadAn=         5 IDoV= 1 UseB2=F ITyADJ=14
 ICtDFT=  3500011 ScaDFX=  1.000000  1.000000  1.000000  1.000000
 FoFCou: FMM=F IPFlag=           0 FMFlag=      100000 FMFlg1=           0
         NFxFlg=           0 DoJE=T BraDBF=F KetDBF=T FulRan=T
         wScrn=  0.000000 ICntrl=       500 IOpCl=  0 I1Cent=   200000004 NGrid=           0
         NMat0=    1 NMatS0=      1 NMatT0=    0 NMatD0=    1 NMtDS0=    0 NMtDT0=    0
 Petite list used in FoFCou.
 Harris En= -2751.05937170533    
 Leave Link  401 at Wed Apr  1 14:22:41 2020, MaxMem=  2147483648 cpu:               2.3 elap:               0.1
 (Enter /usr/local/g16/g16/l502.exe)
 Keep R1 ints in memory in symmetry-blocked form, NReq=14296398.
 FoFCou: FMM=F IPFlag=           0 FMFlag=           0 FMFlg1=           0
         NFxFlg=           0 DoJE=F BraDBF=F KetDBF=F FulRan=T
         wScrn=  0.000000 ICntrl=       600 IOpCl=  0 I1Cent=           0 NGrid=           0
         NMat0=    1 NMatS0=   1770 NMatT0=    0 NMatD0=    1 NMtDS0=    0 NMtDT0=    0
 Petite list used in FoFCou.
 Closed shell SCF:
 Using DIIS extrapolation, IDIIS=  1040.
 NGot=  2147483648 LenX=  2146672630 LenY=  2146667428
 Requested convergence on RMS density matrix=1.00D-08 within 128 cycles.
 Requested convergence on MAX density matrix=1.00D-06.
 Requested convergence on             energy=1.00D-06.
 No special actions if energy rises.

 Cycle   1  Pass 1  IDiag  1:
 E= -2752.05222307625    
 DIIS: error= 1.15D-10 at cycle   1 NSaved=   1.
 NSaved= 1 IEnMin= 1 EnMin= -2752.05222307625     IErMin= 1 ErrMin= 1.15D-10
 ErrMax= 1.15D-10  0.00D+00 EMaxC= 1.00D-01 BMatC= 4.58D-19 BMatP= 4.58D-19
 IDIUse=1 WtCom= 1.00D+00 WtEn= 0.00D+00
 Coeff-Com:  0.100D+01
 Coeff:      0.100D+01
 Gap=     0.629 Goal=   None    Shift=    0.000
 Skip diagonalization as Alpha Fock matrix is already diagonal.
 RMSDP=2.24D-31 MaxDP=6.31D-30              OVMax= 0.00D+00

 SCF Done:  E(RHF) =  -2752.05222308     A.U. after    1 cycles
            NFock=  1  Conv=0.22D-30     -V/T= 2.0000
 KE= 2.752048106942D+03 PE=-6.582565276261D+03 EE= 1.078464946243D+03
 Leave Link  502 at Wed Apr  1 14:22:42 2020, MaxMem=  2147483648 cpu:               9.2 elap:               0.6
 (Enter /usr/local/g16/g16/l801.exe)
 Windowed orbitals will be sorted by symmetry type.
 ExpMin= 4.00D-02 ExpMax= 1.17D+07 ExpMxC= 1.33D+04 IAcc=3 IRadAn=         5 AccDes= 0.00D+00
 HarFok:  IExCor=  205 AccDes= 0.00D+00 IRadAn=         5 IDoV=-2 UseB2=F ITyADJ=14
 ICtDFT= 12500011 ScaDFX=  1.000000  1.000000  1.000000  1.000000
 Largest valence mixing into a core orbital is  9.79D-05
 Largest core mixing into a valence orbital is  3.83D-05
 Range of M.O.s used for correlation:    10    59
 NBasis=    59 NAE=    18 NBE=    18 NFC=     9 NFV=     0
 NROrb=     50 NOA=     9 NOB=     9 NVA=    41 NVB=    41
 Leave Link  801 at Wed Apr  1 14:22:42 2020, MaxMem=  2147483648 cpu:               0.5 elap:               0.0
 (Enter /usr/local/g16/g16/l804.exe)
 Closed-shell transformation, MDV=  2147483648 ITran=4 ISComp=2.
 Semi-Direct transformation.
 ModeAB=           2 MOrb=             9 LenV=    2147139887
 LASXX=       242319 LTotXX=      242319 LenRXX=      242319
 LTotAB=      258057 MaxLAS=     1086750 LenRXY=     1086750
 NonZer=     1162350 LenScr=     2357760 LnRSAI=           0
 LnScr1=           0 LExtra=           0 Total=      3686829
 MaxDsk=          -1 SrtSym=           F ITran=            4
 DoSDTr:  NPSUse= 16
 JobTyp=0 Pass  1:  I=   1 to   9.
 (rs|ai) integrals will be sorted in core.
 Complete sort for first half transformation.
 First half transformation complete.
 Complete sort for second half transformation.
 Second half transformation complete.
 Spin components of T(2) and E(2):
     alpha-alpha T2 =       0.9484485170D-02 E2=     -0.3552398033D-01
     alpha-beta  T2 =       0.4799866948D-01 E2=     -0.1708433112D+00
     beta-beta   T2 =       0.9484485170D-02 E2=     -0.3552398033D-01
 ANorm=    0.1032941257D+01
 E2 =    -0.2418912719D+00 EUMP2 =    -0.27522941143481D+04
 Leave Link  804 at Wed Apr  1 14:22:42 2020, MaxMem=  2147483648 cpu:               5.6 elap:               0.4
 (Enter /usr/local/g16/g16/l913.exe)
 CIDS:  MDV=  2147483648.
 Frozen-core window:  NFC=   9 NFV=   0.
 IFCWin=0 IBDFC=1 NFBD=     0     0 NFCmp=     0     0 NFFFC=     0     0
 Using DD3R+UMP44R for 1st iteration.
 Using DD4RQ for 2nd and later iterations.
 Keep R2 and R3 ints in memory in symmetry-blocked form, NReq=14322557.
 FoFCou: FMM=F IPFlag=           0 FMFlag=           0 FMFlg1=           0
         NFxFlg=           0 DoJE=F BraDBF=F KetDBF=F FulRan=T
         wScrn=  0.000000 ICntrl=       600 IOpCl=  0 I1Cent=           0 NGrid=           0
         NMat0=    1 NMatS0=   1770 NMatT0=    0 NMatD0=    1 NMtDS0=    0 NMtDT0=    0
 Petite list used in FoFCou.
 CIDS: In Core Option IDoMem=           1.
 MP4(SDTQ)
 =========
 Produce multiple copies of IABC intergrals
 DD1Dir will call FoFMem   1 times, MxPair=        90
 NAB=    45 NAA=     0 NBB=     0.
 MP4(D)= -0.36913093D-02
 MP4(S)= -0.10734540D-02
 MP4(R+Q)=  0.42077927D-02
 IPart=  5 IA=    4   14.27% done.
 IPart=  8 IA=    6   27.44% done.
 IPart= 15 IA=    7   27.44% done.
 IPart=  4 IA=   11   43.29% done.
 IPart=  6 IA=   13   50.49% done.
 IPart= 12 IA=   16   60.37% done.
 IPart=  6 IA=   20   71.83% done.
 IPart=  9 IA=   24   81.34% done.
 IPart=  5 IA=   29   90.49% done.
 Time for triples=        3.26 seconds.
 MP4(T)=   -0.76986616D-02
 E3=       -0.99406389D-02        EUMP3=      -0.27523040550D+04
 E4(DQ)=    0.51648341D-03        UMP4(DQ)=   -0.27523035385D+04
 E4(SDQ)=  -0.55697064D-03        UMP4(SDQ)=  -0.27523046120D+04
 E4(SDTQ)= -0.82556322D-02        UMP4(SDTQ)= -0.27523123106D+04
 VARIATIONAL ENERGIES WITH THE FIRST-ORDER WAVEFUNCTION:
 E(VAR1)=  -0.27522882489D+04     E(CISD,4)=  -0.27522926209D+04
 Largest amplitude= 2.44D-02
 Discarding MO integrals.
 Leave Link  913 at Wed Apr  1 14:22:43 2020, MaxMem=  2147483648 cpu:              13.3 elap:               0.8
 (Enter /usr/local/g16/g16/l122.exe)
 CPIOFr:  IOpCl= 0 IRwI=-1 IRwCP=  731 ICalc=  4 LCPTot=       59414 Len1MO=      159453 IndFrg=      856679
 Restoring MOs from calculation   1 to rwf.
 CPIOFr:  IOpCl= 0 IRwI=-2 IRwCP=  731 ICalc=  0 LCPTot=       59414 Len1MO=      159453 IndFrg=      218867
 Counterpoise corrected energy =   -2903.681217520138
                   BSSE energy =       0.000223448482
              sum of fragments =   -2903.680967637357
           complexation energy =      -0.30 kcal/mole (raw)
           complexation energy =      -0.16 kcal/mole (corrected)
 Leave Link  122 at Wed Apr  1 14:22:43 2020, MaxMem=  2147483648 cpu:               0.0 elap:               0.0
 (Enter /usr/local/g16/g16/l108.exe)
 Scan completed.
 
 Summary of the potential surface scan, energies are +2752 a.u.:
   N      R1          SCF          MP2          MP3         MP4DQ       MP4SDQ       MP4SDTQ  
 ----  ---------  -----------  -----------  -----------  -----------  -----------  -----------
    1     3.0000     -0.05222     -0.29411     -0.30405     -0.30354     -0.30461     -0.31231
    2     3.1000     -0.05222     -0.29411     -0.30405     -0.30354     -0.30461     -0.31231
    3     3.2000     -0.05222     -0.29411     -0.30405     -0.30354     -0.30461     -0.31231
    4     3.3000     -0.05222     -0.29411     -0.30405     -0.30354     -0.30461     -0.31231
    5     3.4000     -0.05222     -0.29411     -0.30405     -0.30354     -0.30461     -0.31231
    6     3.5000     -0.05222     -0.29411     -0.30405     -0.30354     -0.30461     -0.31231
    7     3.6000     -0.05222     -0.29411     -0.30405     -0.30354     -0.30461     -0.31231
    8     3.7000     -0.05222     -0.29411     -0.30405     -0.30354     -0.30461     -0.31231
    9     3.8000     -0.05222     -0.29411     -0.30405     -0.30354     -0.30461     -0.31231
   10     3.9000     -0.05222     -0.29411     -0.30405     -0.30354     -0.30461     -0.31231
   11     4.0000     -0.05222     -0.29411     -0.30405     -0.30354     -0.30461     -0.31231
   12     4.1000     -0.05222     -0.29411     -0.30405     -0.30354     -0.30461     -0.31231
   13     4.2000     -0.05222     -0.29411     -0.30405     -0.30354     -0.30461     -0.31231
   14     4.3000     -0.05222     -0.29411     -0.30405     -0.30354     -0.30461     -0.31231
   15     4.4000     -0.05222     -0.29411     -0.30405     -0.30354     -0.30461     -0.31231
   16     4.5000     -0.05222     -0.29411     -0.30405     -0.30354     -0.30461     -0.31231
   17     4.6000     -0.05222     -0.29411     -0.30405     -0.30354     -0.30461     -0.31231
   18     4.7000     -0.05222     -0.29411     -0.30405     -0.30354     -0.30461     -0.31231
   19     4.8000     -0.05222     -0.29411     -0.30405     -0.30354     -0.30461     -0.31231
   20     4.9000     -0.05222     -0.29411     -0.30405     -0.30354     -0.30461     -0.31231
   21     5.0000     -0.05222     -0.29411     -0.30405     -0.30354     -0.30461     -0.31231
 ----  ---------  -----------  -----------  -----------  -----------  -----------  -----------
  
 Leave Link  108 at Wed Apr  1 14:22:43 2020, MaxMem=  2147483648 cpu:               0.2 elap:               0.0
 (Enter /usr/local/g16/g16/l9999.exe)
 1\1\GINC-ARTHUR-MS-7B09\Scan\RMP4SDTQ-FC\Aug-CC-pVTZ\H2Kr1O2\MATHEUS\0
 1-Apr-2020\1\\#p mp4/aug-cc-PVTz int=ultrafine counterpoise=2 Scan\\PT
 CC\\0,1\O,0,0.,0.,0.725\O,0,0.,0.,-0.725\H,0,0.,-0.9187205947,1.023510
 4166\H,0,0.,0.9187205947,-1.0235104166\Kr,0,0.,R1,0.\\R1=3.,s,20,0.1\\
 Version=ES64L-G16RevA.03\State=1-A'\HF=-2752.0522231,-2752.0522231,-27
 52.0522231,-2752.0522231,-2752.0522231,-2752.0522231,-2752.0522231,-27
 52.0522231,-2752.0522231,-2752.0522231,-2752.0522231,-2752.0522231,-27
 52.0522231,-2752.0522231,-2752.0522231,-2752.0522231,-2752.0522231,-27
 52.0522231,-2752.0522231,-2752.0522231,-2752.0522231\MP2=-2752.2941143
 ,-2752.2941143,-2752.2941143,-2752.2941143,-2752.2941143,-2752.2941143
 ,-2752.2941143,-2752.2941143,-2752.2941143,-2752.2941143,-2752.2941143
 ,-2752.2941143,-2752.2941143,-2752.2941143,-2752.2941143,-2752.2941143
 ,-2752.2941143,-2752.2941143,-2752.2941143,-2752.2941143,-2752.2941143
 \MP3=-2752.304055,-2752.304055,-2752.304055,-2752.304055,-2752.304055,
 -2752.304055,-2752.304055,-2752.304055,-2752.304055,-2752.304055,-2752
 .304055,-2752.304055,-2752.304055,-2752.304055,-2752.304055,-2752.3040
 55,-2752.304055,-2752.304055,-2752.304055,-2752.304055,-2752.304055\MP
 4D=-2752.3077463,-2752.3077463,-2752.3077463,-2752.3077463,-2752.30774
 63,-2752.3077463,-2752.3077463,-2752.3077463,-2752.3077463,-2752.30774
 63,-2752.3077463,-2752.3077463,-2752.3077463,-2752.3077463,-2752.30774
 63,-2752.3077463,-2752.3077463,-2752.3077463,-2752.3077463,-2752.30774
 63,-2752.3077463\MP4DQ=-2752.3035385,-2752.3035385,-2752.3035385,-2752
 .3035385,-2752.3035385,-2752.3035385,-2752.3035385,-2752.3035385,-2752
 .3035385,-2752.3035385,-2752.3035385,-2752.3035385,-2752.3035385,-2752
 .3035385,-2752.3035385,-2752.3035385,-2752.3035385,-2752.3035385,-2752
 .3035385,-2752.3035385,-2752.3035385\MP4SDQ=-2752.304612,-2752.304612,
 -2752.304612,-2752.304612,-2752.304612,-2752.304612,-2752.304612,-2752
 .304612,-2752.304612,-2752.304612,-2752.304612,-2752.304612,-2752.3046
 12,-2752.304612,-2752.304612,-2752.304612,-2752.304612,-2752.304612,-2
 752.304612,-2752.304612,-2752.304612\MP4SDTQ=-2752.3123106,-2752.31231
 06,-2752.3123106,-2752.3123106,-2752.3123106,-2752.3123106,-2752.31231
 06,-2752.3123106,-2752.3123106,-2752.3123106,-2752.3123106,-2752.31231
 06,-2752.3123106,-2752.3123106,-2752.3123106,-2752.3123106,-2752.31231
 06,-2752.3123106,-2752.3123106,-2752.3123106,-2752.3123106\RMSD=9.887e
 -10,1.149e-10,8.769e-32,2.571e-18,4.288e-18,1.897e-18,2.569e-18,2.865e
 -18,3.243e-18,2.062e-31,7.586e-19,1.414e-18,1.762e-18,2.101e-31,1.455e
 -18,4.525e-18,1.177e-31,0.000e+00,6.241e-31,6.497e-31,2.240e-31\PG=CS 
 [SG(H2Kr1O2)]\\@


 YOU ARE IN A MAZE OF TWISTY LITTLE PASSAGES.
 Job cpu time:       0 days 21 hours 48 minutes  1.1 seconds.
 Elapsed time:       0 days  1 hours 22 minutes  9.8 seconds.
 File lengths (MBytes):  RWF=   3254 Int=      0 D2E=      0 Chk=     12 Scr=      1
 Normal termination of Gaussian 16 at Wed Apr  1 14:22:43 2020.
