 Entering Gaussian System, Link 0=g16
 Input=Inputs/H2O2-Kr_16.com
 Output=Logs/H2O2-Kr_16.log
 Initial command:
 /usr/local/g16/g16/l1.exe "/mnt/driveB/scratch/matheus/Gau-93603.inp" -scrdir="/mnt/driveB/scratch/matheus/"
 Entering Link 1 = /usr/local/g16/g16/l1.exe PID=     93605.
  
 Copyright (c) 1988,1990,1992,1993,1995,1998,2003,2009,2016,
            Gaussian, Inc.  All Rights Reserved.
  
 This is part of the Gaussian(R) 16 program.  It is based on
 the Gaussian(R) 09 system (copyright 2009, Gaussian, Inc.),
 the Gaussian(R) 03 system (copyright 2003, Gaussian, Inc.),
 the Gaussian(R) 98 system (copyright 1998, Gaussian, Inc.),
 the Gaussian(R) 94 system (copyright 1995, Gaussian, Inc.),
 the Gaussian 92(TM) system (copyright 1992, Gaussian, Inc.),
 the Gaussian 90(TM) system (copyright 1990, Gaussian, Inc.),
 the Gaussian 88(TM) system (copyright 1988, Gaussian, Inc.),
 the Gaussian 86(TM) system (copyright 1986, Carnegie Mellon
 University), and the Gaussian 82(TM) system (copyright 1983,
 Carnegie Mellon University). Gaussian is a federally registered
 trademark of Gaussian, Inc.
  
 This software contains proprietary and confidential information,
 including trade secrets, belonging to Gaussian, Inc.
  
 This software is provided under written license and may be
 used, copied, transmitted, or stored only in accord with that
 written license.
  
 The following legend is applicable only to US Government
 contracts under FAR:
  
                    RESTRICTED RIGHTS LEGEND
  
 Use, reproduction and disclosure by the US Government is
 subject to restrictions as set forth in subparagraphs (a)
 and (c) of the Commercial Computer Software - Restricted
 Rights clause in FAR 52.227-19.
  
 Gaussian, Inc.
 340 Quinnipiac St., Bldg. 40, Wallingford CT 06492
  
  
 ---------------------------------------------------------------
 Warning -- This program may not be used in any manner that
 competes with the business of Gaussian, Inc. or will provide
 assistance to any competitor of Gaussian, Inc.  The licensee
 of this program is prohibited from giving any competitor of
 Gaussian, Inc. access to this program.  By using this program,
 the user acknowledges that Gaussian, Inc. is engaged in the
 business of creating and licensing software in the field of
 computational chemistry and represents and warrants to the
 licensee that it is not a competitor of Gaussian, Inc. and that
 it will not use this program in any manner prohibited above.
 ---------------------------------------------------------------
  

 Cite this work as:
 Gaussian 16, Revision A.03,
 M. J. Frisch, G. W. Trucks, H. B. Schlegel, G. E. Scuseria, 
 M. A. Robb, J. R. Cheeseman, G. Scalmani, V. Barone, 
 G. A. Petersson, H. Nakatsuji, X. Li, M. Caricato, A. V. Marenich, 
 J. Bloino, B. G. Janesko, R. Gomperts, B. Mennucci, H. P. Hratchian, 
 J. V. Ortiz, A. F. Izmaylov, J. L. Sonnenberg, D. Williams-Young, 
 F. Ding, F. Lipparini, F. Egidi, J. Goings, B. Peng, A. Petrone, 
 T. Henderson, D. Ranasinghe, V. G. Zakrzewski, J. Gao, N. Rega, 
 G. Zheng, W. Liang, M. Hada, M. Ehara, K. Toyota, R. Fukuda, 
 J. Hasegawa, M. Ishida, T. Nakajima, Y. Honda, O. Kitao, H. Nakai, 
 T. Vreven, K. Throssell, J. A. Montgomery, Jr., J. E. Peralta, 
 F. Ogliaro, M. J. Bearpark, J. J. Heyd, E. N. Brothers, K. N. Kudin, 
 V. N. Staroverov, T. A. Keith, R. Kobayashi, J. Normand, 
 K. Raghavachari, A. P. Rendell, J. C. Burant, S. S. Iyengar, 
 J. Tomasi, M. Cossi, J. M. Millam, M. Klene, C. Adamo, R. Cammi, 
 J. W. Ochterski, R. L. Martin, K. Morokuma, O. Farkas, 
 J. B. Foresman, and D. J. Fox, Gaussian, Inc., Wallingford CT, 2016.
 
 ******************************************
 Gaussian 16:  ES64L-G16RevA.03 25-Dec-2016
                 1-Apr-2020 
 ******************************************
 %mem=16GB
 %nproc=16
 Will use up to   16 processors via shared memory.
 ----------------------------------------------------
 #p mp4/aug-cc-PVTz int=ultrafine counterpoise=2 Scan
 ----------------------------------------------------
 1/38=1,60=1,62=2,172=1/1,8;
 2/12=2,17=6,18=5,29=3,40=1/2;
 1/38=1,53=2,62=2,63=1/22;
 3/5=16,6=1,7=10,11=9,25=1,30=1,75=-5/1,2,3;
 4//1;
 5/5=2,38=5/2;
 8/6=4,9=120000,10=1/1,4;
 9/5=5/13;
 6/7=2,8=2,9=2,10=2,18=1/1;
 1/53=2,62=2,63=1/22;
 3/5=7,6=11,7=10,11=9,25=1,30=1,75=-5,82=7/1,2,3;
 4//1;
 5/5=2,38=5/2;
 8/6=4,9=120000,10=1/1,4;
 9/5=5/13;
 6/7=2,8=2,9=2,10=2,18=1/1;
 1/53=2,62=2,63=1/22(-6);
 1/60=1,62=2/8(1);
 99/9=1/99;
 2/29=3/2;
 1/53=3,62=2,63=1/22;
 3/5=7,6=11,7=10,11=9,25=1,30=1,75=-5,82=7/1,2,3;
 4/5=5,16=3,69=1/1;
 5/5=2,38=5/2;
 8/6=4,9=120000,10=1/1,4;
 9/5=5/13;
 1/53=3,62=2,63=1/22(-5);
 1/60=1,62=2/8(-8);
 99/9=1/99;
 Leave Link    1 at Wed Apr  1 08:02:01 2020, MaxMem=  2147483648 cpu:               0.3 elap:               0.0
 (Enter /usr/local/g16/g16/l101.exe)
 ----
 PTCC
 ----
 Symbolic Z-matrix:
 Charge =  0 Multiplicity = 1 in supermolecule
 Charge =  0 Multiplicity = 1 in fragment      1.
 Charge =  0 Multiplicity = 1 in fragment      2.
 O(Fragment=1)         0.        0.        0.725 
 O(Fragment=1)         0.        0.       -0.725 
 H(Fragment=1)         0.31422  -0.86331   1.02351 
 H(Fragment=1)         0.        0.91872  -1.02351 
 Kr(Fragment=2)        0.       R1        0. 
       Variables:
  R1                    3.     Scan 20    0.1    
 
 ITRead=  0  0  0  0  0
 MicOpt= -1 -1 -1 -1 -1
 NAtoms=      5 NQM=        5 NQMF=       0 NMMI=      0 NMMIF=      0
                NMic=       0 NMicF=      0.
                    Isotopes and Nuclear Properties:
 (Nuclear quadrupole moments (NQMom) in fm**2, nuclear magnetic moments (NMagM)
  in nuclear magnetons)

  Atom         1           2           3           4           5
 IAtWgt=          16          16           1           1          84
 AtmWgt=  15.9949146  15.9949146   1.0078250   1.0078250  83.9115064
 NucSpn=           0           0           1           1           0
 AtZEff=  -0.0000000  -0.0000000  -0.0000000  -0.0000000  -0.0000000
 NQMom=    0.0000000   0.0000000   0.0000000   0.0000000   0.0000000
 NMagM=    0.0000000   0.0000000   2.7928460   2.7928460   0.0000000
 AtZNuc=   8.0000000   8.0000000   1.0000000   1.0000000  36.0000000
 Leave Link  101 at Wed Apr  1 08:02:01 2020, MaxMem=  2147483648 cpu:               1.4 elap:               0.1
 (Enter /usr/local/g16/g16/l108.exe)
 Scan the potential surface.
 Variable   Value     No. Steps Step-Size
 -------- ----------- --------- ---------
     1       3.000000      20      0.1000
 A total of     21 points will be computed.
 Leave Link  108 at Wed Apr  1 08:02:01 2020, MaxMem=  2147483648 cpu:               0.0 elap:               0.0
 (Enter /usr/local/g16/g16/l202.exe)
 ---------------------------------------------------------------------------------------------------
                            Z-MATRIX (ANGSTROMS AND DEGREES)
   CD    Cent   Atom    N1       Length/X        N2       Alpha/Y        N3        Beta/Z          J
 ---------------------------------------------------------------------------------------------------
      1      1  O        0   0.000000          0.000000          0.725000
      2      2  O        0   0.000000          0.000000         -0.725000
      3      3  H        0   0.314221         -0.863315          1.023510
      4      4  H        0   0.000000          0.918721         -1.023510
      5      5  Kr       0   0.000000          3.000000          0.000000
 ---------------------------------------------------------------------------------------------------
                         Z-Matrix orientation:                         
 ---------------------------------------------------------------------
 Center     Atomic      Atomic             Coordinates (Angstroms)
 Number     Number       Type             X           Y           Z
 ---------------------------------------------------------------------
      1          8           0        0.000000    0.000000    0.725000
      2          8           0        0.000000    0.000000   -0.725000
      3          1           0        0.314221   -0.863315    1.023510
      4          1           0        0.000000    0.918721   -1.023510
      5         36           0        0.000000    3.000000    0.000000
 ---------------------------------------------------------------------
                    Distance matrix (angstroms):
                    1          2          3          4          5
     1  O    0.000000
     2  O    1.450000   0.000000
     3  H    0.966000   1.975180   0.000000
     4  H    1.975180   0.966000   2.732157   0.000000
     5  Kr   3.086361   3.086361   4.008929   2.319331   0.000000
 Stoichiometry    H2KrO2
 Framework group  C1[X(H2KrO2)]
 Deg. of freedom     9
 Full point group                 C1      NOp   1
 Largest Abelian subgroup         C1      NOp   1
 Largest concise Abelian subgroup C1      NOp   1
                         Standard orientation:                         
 ---------------------------------------------------------------------
 Center     Atomic      Atomic             Coordinates (Angstroms)
 Number     Number       Type             X           Y           Z
 ---------------------------------------------------------------------
      1          8           0        2.013955   -0.686971   -0.042678
      2          8           0        1.987181    0.762152    0.000071
      3          1           0        2.885209   -0.978373    0.255914
      4          1           0        1.063137    1.043301    0.015982
      5         36           0       -0.998818   -0.018511    0.001916
 ---------------------------------------------------------------------
 Rotational constants (GHZ):          26.5935253           2.3048997           2.1226538
 Leave Link  202 at Wed Apr  1 08:02:01 2020, MaxMem=  2147483648 cpu:               0.0 elap:               0.0
 (Enter /usr/local/g16/g16/l122.exe)
 Counterpoise: doing full-system calculation.
 Leave Link  122 at Wed Apr  1 08:02:01 2020, MaxMem=  2147483648 cpu:               0.0 elap:               0.0
 (Enter /usr/local/g16/g16/l301.exe)
 Standard basis: Aug-CC-pVTZ (5D, 7F)
 Ernie: Thresh=  0.10000D-02 Tol=  0.10000D-05 Strict=F.
 Ernie:  38 primitive shells out of 205 were deleted.
 There are   229 symmetry adapted cartesian basis functions of A   symmetry.
 There are   197 symmetry adapted basis functions of A   symmetry.
   197 basis functions,   415 primitive gaussians,   229 cartesian basis functions
    27 alpha electrons       27 beta electrons
       nuclear repulsion energy       148.3266956993 Hartrees.
 IExCor=    0 DFT=F Ex=HF Corr=None ExCW=0 ScaHFX=  1.000000
 ScaDFX=  1.000000  1.000000  1.000000  1.000000 ScalE2=  1.000000  1.000000
 IRadAn=      5 IRanWt=     -1 IRanGd=            0 ICorTp=0 IEmpDi=  4
 NAtoms=    5 NActive=    5 NUniq=    5 SFac= 1.00D+00 NAtFMM=   60 NAOKFM=F Big=F
 Integral buffers will be    131072 words long.
 Raffenetti 1 integral format.
 Two-electron integral symmetry is turned on.
 Leave Link  301 at Wed Apr  1 08:02:01 2020, MaxMem=  2147483648 cpu:               0.3 elap:               0.0
 (Enter /usr/local/g16/g16/l302.exe)
 NPDir=0 NMtPBC=     1 NCelOv=     1 NCel=       1 NClECP=     1 NCelD=      1
         NCelK=      1 NCelE2=     1 NClLst=     1 CellRange=     0.0.
 One-electron integrals computed using PRISM.
 One-electron integral symmetry used in STVInt
 NBasis=   197 RedAO= T EigKep=  1.98D-04  NBF=   197
 NBsUse=   197 1.00D-06 EigRej= -1.00D+00 NBFU=   197
 Leave Link  302 at Wed Apr  1 08:02:01 2020, MaxMem=  2147483648 cpu:               1.7 elap:               0.1
 (Enter /usr/local/g16/g16/l303.exe)
 DipDrv:  MaxL=1.
 Leave Link  303 at Wed Apr  1 08:02:01 2020, MaxMem=  2147483648 cpu:               0.4 elap:               0.0
 (Enter /usr/local/g16/g16/l401.exe)
 ExpMin= 2.53D-02 ExpMax= 1.17D+07 ExpMxC= 1.33D+04 IAcc=3 IRadAn=         5 AccDes= 0.00D+00
 Harris functional with IExCor=  205 and IRadAn=       5 diagonalized for initial guess.
 HarFok:  IExCor=  205 AccDes= 0.00D+00 IRadAn=         5 IDoV= 1 UseB2=F ITyADJ=14
 ICtDFT=  3500011 ScaDFX=  1.000000  1.000000  1.000000  1.000000
 FoFCou: FMM=F IPFlag=           0 FMFlag=      100000 FMFlg1=           0
         NFxFlg=           0 DoJE=T BraDBF=F KetDBF=T FulRan=T
         wScrn=  0.000000 ICntrl=       500 IOpCl=  0 I1Cent=   200000004 NGrid=           0
         NMat0=    1 NMatS0=      1 NMatT0=    0 NMatD0=    1 NMtDS0=    0 NMtDT0=    0
 Petite list used in FoFCou.
 Harris En= -2901.99090533580    
 JPrj=0 DoOrth=F DoCkMO=F.
 Leave Link  401 at Wed Apr  1 08:02:02 2020, MaxMem=  2147483648 cpu:               3.1 elap:               0.2
 (Enter /usr/local/g16/g16/l502.exe)
 Keep R1 ints in memory in canonical form, NReq=203132832.
 FoFCou: FMM=F IPFlag=           0 FMFlag=           0 FMFlg1=           0
         NFxFlg=           0 DoJE=F BraDBF=F KetDBF=F FulRan=T
         wScrn=  0.000000 ICntrl=       600 IOpCl=  0 I1Cent=           0 NGrid=           0
         NMat0=    1 NMatS0=  19503 NMatT0=    0 NMatD0=    1 NMtDS0=    0 NMtDT0=    0
 Symmetry not used in FoFCou.
 Two-electron integral symmetry not used.
 Closed shell SCF:
 Using DIIS extrapolation, IDIIS=  1040.
 NGot=  2147483648 LenX=  1957179903 LenY=  1957127021
 Requested convergence on RMS density matrix=1.00D-08 within 128 cycles.
 Requested convergence on MAX density matrix=1.00D-06.
 Requested convergence on             energy=1.00D-06.
 No special actions if energy rises.

 Cycle   1  Pass 1  IDiag  1:
 E= -2902.76682328860    
 DIIS: error= 3.35D-02 at cycle   1 NSaved=   1.
 NSaved= 1 IEnMin= 1 EnMin= -2902.76682328860     IErMin= 1 ErrMin= 3.35D-02
 ErrMax= 3.35D-02  0.00D+00 EMaxC= 1.00D-01 BMatC= 6.56D-01 BMatP= 6.56D-01
 IDIUse=3 WtCom= 6.65D-01 WtEn= 3.35D-01
 Coeff-Com:  0.100D+01
 Coeff-En:   0.100D+01
 Coeff:      0.100D+01
 Gap=     0.679 Goal=   None    Shift=    0.000
 GapD=    0.679 DampG=2.000 DampE=0.500 DampFc=1.0000 IDamp=-1.
 RMSDP=2.01D-03 MaxDP=1.30D-01              OVMax= 6.24D-02

 Cycle   2  Pass 1  IDiag  1:
 E= -2902.86315307520     Delta-E=       -0.096329786597 Rises=F Damp=F
 DIIS: error= 7.46D-03 at cycle   2 NSaved=   2.
 NSaved= 2 IEnMin= 2 EnMin= -2902.86315307520     IErMin= 2 ErrMin= 7.46D-03
 ErrMax= 7.46D-03  0.00D+00 EMaxC= 1.00D-01 BMatC= 3.52D-02 BMatP= 6.56D-01
 IDIUse=3 WtCom= 9.25D-01 WtEn= 7.46D-02
 Coeff-Com:  0.137D+00 0.863D+00
 Coeff-En:   0.000D+00 0.100D+01
 Coeff:      0.126D+00 0.874D+00
 Gap=     0.516 Goal=   None    Shift=    0.000
 RMSDP=7.38D-04 MaxDP=3.64D-02 DE=-9.63D-02 OVMax= 2.54D-02

 Cycle   3  Pass 1  IDiag  1:
 E= -2902.87601462480     Delta-E=       -0.012861549603 Rises=F Damp=F
 DIIS: error= 2.52D-03 at cycle   3 NSaved=   3.
 NSaved= 3 IEnMin= 3 EnMin= -2902.87601462480     IErMin= 3 ErrMin= 2.52D-03
 ErrMax= 2.52D-03  0.00D+00 EMaxC= 1.00D-01 BMatC= 2.57D-03 BMatP= 3.52D-02
 IDIUse=3 WtCom= 9.75D-01 WtEn= 2.52D-02
 Coeff-Com: -0.662D-02 0.191D+00 0.816D+00
 Coeff-En:   0.000D+00 0.000D+00 0.100D+01
 Coeff:     -0.645D-02 0.186D+00 0.820D+00
 Gap=     0.490 Goal=   None    Shift=    0.000
 RMSDP=1.28D-04 MaxDP=4.91D-03 DE=-1.29D-02 OVMax= 8.37D-03

 Cycle   4  Pass 1  IDiag  1:
 E= -2902.87730233143     Delta-E=       -0.001287706626 Rises=F Damp=F
 DIIS: error= 4.11D-04 at cycle   4 NSaved=   4.
 NSaved= 4 IEnMin= 4 EnMin= -2902.87730233143     IErMin= 4 ErrMin= 4.11D-04
 ErrMax= 4.11D-04  0.00D+00 EMaxC= 1.00D-01 BMatC= 4.19D-05 BMatP= 2.57D-03
 IDIUse=3 WtCom= 9.96D-01 WtEn= 4.11D-03
 Coeff-Com: -0.390D-02 0.121D-01 0.135D+00 0.857D+00
 Coeff-En:   0.000D+00 0.000D+00 0.000D+00 0.100D+01
 Coeff:     -0.388D-02 0.121D-01 0.135D+00 0.857D+00
 Gap=     0.494 Goal=   None    Shift=    0.000
 RMSDP=2.06D-05 MaxDP=6.18D-04 DE=-1.29D-03 OVMax= 1.58D-03

 Cycle   5  Pass 1  IDiag  1:
 E= -2902.87733760048     Delta-E=       -0.000035269056 Rises=F Damp=F
 DIIS: error= 1.43D-04 at cycle   5 NSaved=   5.
 NSaved= 5 IEnMin= 5 EnMin= -2902.87733760048     IErMin= 5 ErrMin= 1.43D-04
 ErrMax= 1.43D-04  0.00D+00 EMaxC= 1.00D-01 BMatC= 3.14D-06 BMatP= 4.19D-05
 IDIUse=3 WtCom= 9.99D-01 WtEn= 1.43D-03
 Coeff-Com:  0.812D-03-0.157D-01-0.667D-01 0.778D-02 0.107D+01
 Coeff-En:   0.000D+00 0.000D+00 0.000D+00 0.000D+00 0.100D+01
 Coeff:      0.811D-03-0.157D-01-0.666D-01 0.777D-02 0.107D+01
 Gap=     0.494 Goal=   None    Shift=    0.000
 RMSDP=9.45D-06 MaxDP=3.12D-04 DE=-3.53D-05 OVMax= 8.35D-04

 Cycle   6  Pass 1  IDiag  1:
 E= -2902.87734219628     Delta-E=       -0.000004595798 Rises=F Damp=F
 DIIS: error= 3.18D-05 at cycle   6 NSaved=   6.
 NSaved= 6 IEnMin= 6 EnMin= -2902.87734219628     IErMin= 6 ErrMin= 3.18D-05
 ErrMax= 3.18D-05  0.00D+00 EMaxC= 1.00D-01 BMatC= 1.99D-07 BMatP= 3.14D-06
 IDIUse=1 WtCom= 1.00D+00 WtEn= 0.00D+00
 Coeff-Com:  0.160D-03 0.106D-03-0.566D-02-0.577D-01-0.211D-01 0.108D+01
 Coeff:      0.160D-03 0.106D-03-0.566D-02-0.577D-01-0.211D-01 0.108D+01
 Gap=     0.494 Goal=   None    Shift=    0.000
 RMSDP=2.67D-06 MaxDP=8.01D-05 DE=-4.60D-06 OVMax= 2.26D-04

 Cycle   7  Pass 1  IDiag  1:
 E= -2902.87734259588     Delta-E=       -0.000000399594 Rises=F Damp=F
 DIIS: error= 1.09D-05 at cycle   7 NSaved=   7.
 NSaved= 7 IEnMin= 7 EnMin= -2902.87734259588     IErMin= 7 ErrMin= 1.09D-05
 ErrMax= 1.09D-05  0.00D+00 EMaxC= 1.00D-01 BMatC= 2.14D-08 BMatP= 1.99D-07
 IDIUse=1 WtCom= 1.00D+00 WtEn= 0.00D+00
 Coeff-Com: -0.381D-04 0.115D-02 0.440D-02-0.550D-02-0.791D-01 0.507D-01
 Coeff-Com:  0.103D+01
 Coeff:     -0.381D-04 0.115D-02 0.440D-02-0.550D-02-0.791D-01 0.507D-01
 Coeff:      0.103D+01
 Gap=     0.494 Goal=   None    Shift=    0.000
 RMSDP=9.64D-07 MaxDP=3.53D-05 DE=-4.00D-07 OVMax= 9.50D-05

 Cycle   8  Pass 1  IDiag  1:
 E= -2902.87734264247     Delta-E=       -0.000000046594 Rises=F Damp=F
 DIIS: error= 4.70D-06 at cycle   8 NSaved=   8.
 NSaved= 8 IEnMin= 8 EnMin= -2902.87734264247     IErMin= 8 ErrMin= 4.70D-06
 ErrMax= 4.70D-06  0.00D+00 EMaxC= 1.00D-01 BMatC= 6.51D-09 BMatP= 2.14D-08
 IDIUse=1 WtCom= 1.00D+00 WtEn= 0.00D+00
 Coeff-Com: -0.298D-04 0.341D-03 0.211D-02 0.543D-02-0.235D-01-0.123D+00
 Coeff-Com:  0.353D+00 0.786D+00
 Coeff:     -0.298D-04 0.341D-03 0.211D-02 0.543D-02-0.235D-01-0.123D+00
 Coeff:      0.353D+00 0.786D+00
 Gap=     0.494 Goal=   None    Shift=    0.000
 RMSDP=3.86D-07 MaxDP=8.86D-06 DE=-4.66D-08 OVMax= 4.69D-05

 Cycle   9  Pass 1  IDiag  1:
 E= -2902.87734265229     Delta-E=       -0.000000009819 Rises=F Damp=F
 DIIS: error= 2.01D-06 at cycle   9 NSaved=   9.
 NSaved= 9 IEnMin= 9 EnMin= -2902.87734265229     IErMin= 9 ErrMin= 2.01D-06
 ErrMax= 2.01D-06  0.00D+00 EMaxC= 1.00D-01 BMatC= 7.86D-10 BMatP= 6.51D-09
 IDIUse=1 WtCom= 1.00D+00 WtEn= 0.00D+00
 Coeff-Com:  0.860D-05-0.225D-03-0.967D-03-0.178D-03 0.156D-01 0.182D-01
 Coeff-Com: -0.233D+00-0.199D+00 0.140D+01
 Coeff:      0.860D-05-0.225D-03-0.967D-03-0.178D-03 0.156D-01 0.182D-01
 Coeff:     -0.233D+00-0.199D+00 0.140D+01
 Gap=     0.494 Goal=   None    Shift=    0.000
 RMSDP=3.10D-07 MaxDP=6.87D-06 DE=-9.82D-09 OVMax= 4.59D-05

 Cycle  10  Pass 1  IDiag  1:
 E= -2902.87734265589     Delta-E=       -0.000000003601 Rises=F Damp=F
 DIIS: error= 1.02D-06 at cycle  10 NSaved=  10.
 NSaved=10 IEnMin=10 EnMin= -2902.87734265589     IErMin=10 ErrMin= 1.02D-06
 ErrMax= 1.02D-06  0.00D+00 EMaxC= 1.00D-01 BMatC= 1.60D-10 BMatP= 7.86D-10
 IDIUse=1 WtCom= 1.00D+00 WtEn= 0.00D+00
 Coeff-Com:  0.904D-06 0.861D-04 0.201D-03-0.127D-02-0.485D-02 0.138D-01
 Coeff-Com:  0.806D-01-0.434D-01-0.847D+00 0.180D+01
 Coeff:      0.904D-06 0.861D-04 0.201D-03-0.127D-02-0.485D-02 0.138D-01
 Coeff:      0.806D-01-0.434D-01-0.847D+00 0.180D+01
 Gap=     0.494 Goal=   None    Shift=    0.000
 RMSDP=2.07D-07 MaxDP=4.99D-06 DE=-3.60D-09 OVMax= 3.29D-05

 Cycle  11  Pass 1  IDiag  1:
 E= -2902.87734265682     Delta-E=       -0.000000000930 Rises=F Damp=F
 DIIS: error= 3.15D-07 at cycle  11 NSaved=  11.
 NSaved=11 IEnMin=11 EnMin= -2902.87734265682     IErMin=11 ErrMin= 3.15D-07
 ErrMax= 3.15D-07  0.00D+00 EMaxC= 1.00D-01 BMatC= 1.35D-11 BMatP= 1.60D-10
 IDIUse=1 WtCom= 1.00D+00 WtEn= 0.00D+00
 Coeff-Com: -0.176D-05-0.167D-04 0.352D-04 0.876D-03-0.643D-05-0.118D-01
 Coeff-Com: -0.113D-02 0.599D-01 0.180D+00-0.786D+00 0.156D+01
 Coeff:     -0.176D-05-0.167D-04 0.352D-04 0.876D-03-0.643D-05-0.118D-01
 Coeff:     -0.113D-02 0.599D-01 0.180D+00-0.786D+00 0.156D+01
 Gap=     0.494 Goal=   None    Shift=    0.000
 RMSDP=5.60D-08 MaxDP=1.34D-06 DE=-9.30D-10 OVMax= 8.78D-06

 Cycle  12  Pass 1  IDiag  1:
 E= -2902.87734265688     Delta-E=       -0.000000000058 Rises=F Damp=F
 DIIS: error= 7.23D-08 at cycle  12 NSaved=  12.
 NSaved=12 IEnMin=12 EnMin= -2902.87734265688     IErMin=12 ErrMin= 7.23D-08
 ErrMax= 7.23D-08  0.00D+00 EMaxC= 1.00D-01 BMatC= 8.51D-13 BMatP= 1.35D-11
 IDIUse=1 WtCom= 1.00D+00 WtEn= 0.00D+00
 Coeff-Com:  0.151D-06-0.584D-05-0.252D-04 0.317D-04 0.468D-03-0.347D-03
 Coeff-Com: -0.595D-02 0.986D-03 0.371D-01-0.442D-01-0.198D+00 0.121D+01
 Coeff:      0.151D-06-0.584D-05-0.252D-04 0.317D-04 0.468D-03-0.347D-03
 Coeff:     -0.595D-02 0.986D-03 0.371D-01-0.442D-01-0.198D+00 0.121D+01
 Gap=     0.494 Goal=   None    Shift=    0.000
 RMSDP=1.07D-08 MaxDP=2.46D-07 DE=-5.82D-11 OVMax= 1.52D-06

 Cycle  13  Pass 1  IDiag  1:
 E= -2902.87734265688     Delta-E=       -0.000000000003 Rises=F Damp=F
 DIIS: error= 2.02D-08 at cycle  13 NSaved=  13.
 NSaved=13 IEnMin=13 EnMin= -2902.87734265688     IErMin=13 ErrMin= 2.02D-08
 ErrMax= 2.02D-08  0.00D+00 EMaxC= 1.00D-01 BMatC= 1.13D-13 BMatP= 8.51D-13
 IDIUse=1 WtCom= 1.00D+00 WtEn= 0.00D+00
 Coeff-Com:  0.153D-06 0.224D-05-0.803D-06-0.881D-04-0.496D-04 0.121D-02
 Coeff-Com:  0.465D-03-0.450D-02-0.229D-01 0.797D-01-0.120D+00-0.146D+00
 Coeff-Com:  0.121D+01
 Coeff:      0.153D-06 0.224D-05-0.803D-06-0.881D-04-0.496D-04 0.121D-02
 Coeff:      0.465D-03-0.450D-02-0.229D-01 0.797D-01-0.120D+00-0.146D+00
 Coeff:      0.121D+01
 Gap=     0.494 Goal=   None    Shift=    0.000
 RMSDP=2.99D-09 MaxDP=5.82D-08 DE=-2.73D-12 OVMax= 3.06D-07

 SCF Done:  E(RHF) =  -2902.87734266     A.U. after   13 cycles
            NFock= 13  Conv=0.30D-08     -V/T= 2.0001
 KE= 2.902624720362D+03 PE=-7.237265994377D+03 EE= 1.283437235659D+03
 Leave Link  502 at Wed Apr  1 08:02:05 2020, MaxMem=  2147483648 cpu:              26.9 elap:               3.6
 (Enter /usr/local/g16/g16/l801.exe)
 Windowed orbitals will be sorted by symmetry type.
 ExpMin= 2.53D-02 ExpMax= 1.17D+07 ExpMxC= 1.33D+04 IAcc=3 IRadAn=         5 AccDes= 0.00D+00
 HarFok:  IExCor=  205 AccDes= 0.00D+00 IRadAn=         5 IDoV=-2 UseB2=F ITyADJ=14
 ICtDFT= 12500011 ScaDFX=  1.000000  1.000000  1.000000  1.000000
 DSYEVD-2 returned Info=          89 IAlg= 4 N=    59 NDim=    59 NE2=    36395833 trying  DSYEV.
 Largest valence mixing into a core orbital is  1.16D-04
 Largest core mixing into a valence orbital is  3.82D-05
 Range of M.O.s used for correlation:    12   197
 NBasis=   197 NAE=    27 NBE=    27 NFC=    11 NFV=     0
 NROrb=    186 NOA=    16 NOB=    16 NVA=   170 NVB=   170

 **** Warning!!: The largest alpha MO coefficient is  0.12544003D+02

 Leave Link  801 at Wed Apr  1 08:02:05 2020, MaxMem=  2147483648 cpu:               0.6 elap:               0.0
 (Enter /usr/local/g16/g16/l804.exe)
 Closed-shell transformation, MDV=  2147483648 ITran=4 ISComp=1.
 Unit  1 TFree=       1248993 TCopy=        808885.
 Semi-Direct transformation.
 ModeAB=           2 MOrb=            16 LenV=    2146362432
 LASXX=     48528660 LTotXX=    48528660 LenRXX=    48528660
 LTotAB=    49298776 MaxLAS=    78372960 LenRXY=    78372960
 NonZer=    97057320 LenScr=   146313216 LnRSAI=           0
 LnScr1=           0 LExtra=           0 Total=    273214836
 MaxDsk=          -1 SrtSym=           F ITran=            4
 DoSDTr:  NPSUse= 16
 JobTyp=0 Pass  1:  I=   1 to  16.
 (rs|ai) integrals will be sorted in core.
 Complete sort for first half transformation.
 First half transformation complete.
 Begin second half transformation for I=  10.
 Begin second half transformation for I=  10.
 Complete sort for second half transformation.
 Second half transformation complete.
 SymMOI:  orbitals are not symmetric.
 Spin components of T(2) and E(2):
     alpha-alpha T2 =       0.2591517633D-01 E2=     -0.9987973591D-01
     alpha-beta  T2 =       0.1417666321D+00 E2=     -0.5562712851D+00
     beta-beta   T2 =       0.2591517633D-01 E2=     -0.9987973591D-01
 ANorm=    0.1092518643D+01
 E2 =    -0.7560307569D+00 EUMP2 =    -0.29036333734138D+04
 Leave Link  804 at Wed Apr  1 08:02:16 2020, MaxMem=  2147483648 cpu:             173.7 elap:              10.9
 (Enter /usr/local/g16/g16/l913.exe)
 CIDS:  MDV=  2147483648.
 Frozen-core window:  NFC=  11 NFV=   0.
 IFCWin=0 IBDFC=1 NFBD=     0     0 NFCmp=     0     0 NFFFC=     0     0
 Using DD3R+UMP44R for 1st iteration.
 Using DD4RQ for 2nd and later iterations.
 Keep R2 and R3 ints in memory in canonical form, NReq=393334317.
 FoFCou: FMM=F IPFlag=           0 FMFlag=           0 FMFlg1=           0
         NFxFlg=           0 DoJE=F BraDBF=F KetDBF=F FulRan=T
         wScrn=  0.000000 ICntrl=       600 IOpCl=  0 I1Cent=           0 NGrid=           0
         NMat0=    1 NMatS0=  19503 NMatT0=    0 NMatD0=    1 NMtDS0=    0 NMtDT0=    0
 Symmetry not used in FoFCou.
 Two-electron integral symmetry not used.
 CIDS: In Core Option IDoMem=           1.
 MP4(SDTQ)
 =========
 Produce multiple copies of IABC intergrals
 DD1Dir will call FoFMem   1 times, MxPair=       272
 NAB=   136 NAA=     0 NBB=     0.
 MP4(D)= -0.14947712D-01
 MP4(S)= -0.64003475D-02
 MP4(R+Q)=  0.15350470D-01
 T4(AAA)= -0.10380475D-02
 T4(AAB)= -0.14133999D-01
 Time for triples=     1745.38 seconds.
 MP4(T)=   -0.30344093D-01
 E3=       -0.11327894D-01        EUMP3=      -0.29036447013D+04
 E4(DQ)=    0.40275758D-03        UMP4(DQ)=   -0.29036442986D+04
 E4(SDQ)=  -0.59975899D-02        UMP4(SDQ)=  -0.29036506989D+04
 E4(SDTQ)= -0.36341683D-01        UMP4(SDTQ)= -0.29036810430D+04
 VARIATIONAL ENERGIES WITH THE FIRST-ORDER WAVEFUNCTION:
 E(VAR1)=  -0.29035202386D+04     E(CISD,4)=  -0.29035196841D+04
 Largest amplitude= 2.87D-02
 Discarding MO integrals.
 Leave Link  913 at Wed Apr  1 08:04:13 2020, MaxMem=  2147483648 cpu:            1865.7 elap:             116.8
 (Enter /usr/local/g16/g16/l601.exe)
 Copying SCF densities to generalized density rwf, IOpCl= 0 IROHF=0.

 **********************************************************************

            Population analysis using the SCF density.

 **********************************************************************

 Orbital symmetries:
       Occupied  (A) (A) (A) (A) (A) (A) (A) (A) (A) (A) (A) (A)
                 (A) (A) (A) (A) (A) (A) (A) (A) (A) (A) (A) (A)
                 (A) (A) (A)
       Virtual   (A) (A) (A) (A) (A) (A) (A) (A) (A) (A) (A) (A)
                 (A) (A) (A) (A) (A) (A) (A) (A) (A) (A) (A) (A)
                 (A) (A) (A) (A) (A) (A) (A) (A) (A) (A) (A) (A)
                 (A) (A) (A) (A) (A) (A) (A) (A) (A) (A) (A) (A)
                 (A) (A) (A) (A) (A) (A) (A) (A) (A) (A) (A) (A)
                 (A) (A) (A) (A) (A) (A) (A) (A) (A) (A) (A) (A)
                 (A) (A) (A) (A) (A) (A) (A) (A) (A) (A) (A) (A)
                 (A) (A) (A) (A) (A) (A) (A) (A) (A) (A) (A) (A)
                 (A) (A) (A) (A) (A) (A) (A) (A) (A) (A) (A) (A)
                 (A) (A) (A) (A) (A) (A) (A) (A) (A) (A) (A) (A)
                 (A) (A) (A) (A) (A) (A) (A) (A) (A) (A) (A) (A)
                 (A) (A) (A) (A) (A) (A) (A) (A) (A) (A) (A) (A)
                 (A) (A) (A) (A) (A) (A) (A) (A) (A) (A) (A) (A)
                 (A) (A) (A) (A) (A) (A) (A) (A) (A) (A) (A) (A)
                 (A) (A)
 The electronic state is 1-A.
 Alpha  occ. eigenvalues -- -520.17290 -69.91045 -63.01703 -63.01701 -63.01697
 Alpha  occ. eigenvalues --  -20.62691 -20.62351 -10.85708  -8.33932  -8.33905
 Alpha  occ. eigenvalues --   -8.33890  -3.83312  -3.83306  -3.83286  -3.83258
 Alpha  occ. eigenvalues --   -3.83255  -1.46437  -1.21679  -1.16292  -0.71474
 Alpha  occ. eigenvalues --   -0.70174  -0.62148  -0.54340  -0.53193  -0.52802
 Alpha  occ. eigenvalues --   -0.51681  -0.45789
 Alpha virt. eigenvalues --    0.03587   0.04508   0.08886   0.10543   0.11443
 Alpha virt. eigenvalues --    0.12477   0.15288   0.16350   0.17264   0.18020
 Alpha virt. eigenvalues --    0.19618   0.21273   0.24928   0.25958   0.26687
 Alpha virt. eigenvalues --    0.28287   0.29017   0.31516   0.33579   0.35942
 Alpha virt. eigenvalues --    0.36691   0.37525   0.38985   0.41768   0.43106
 Alpha virt. eigenvalues --    0.44894   0.45813   0.52268   0.56817   0.59504
 Alpha virt. eigenvalues --    0.61513   0.64861   0.69386   0.70557   0.74215
 Alpha virt. eigenvalues --    0.76647   0.77645   0.78192   0.79619   0.81559
 Alpha virt. eigenvalues --    0.84069   0.84848   0.85384   0.86821   0.87824
 Alpha virt. eigenvalues --    0.90642   0.91004   0.93506   0.94109   0.97983
 Alpha virt. eigenvalues --    0.99070   1.01207   1.01366   1.03221   1.06861
 Alpha virt. eigenvalues --    1.09229   1.10952   1.13026   1.14464   1.17400
 Alpha virt. eigenvalues --    1.19584   1.21756   1.23601   1.25132   1.27917
 Alpha virt. eigenvalues --    1.35530   1.39867   1.45654   1.49261   1.50521
 Alpha virt. eigenvalues --    1.55044   1.61046   1.61704   1.65308   1.70403
 Alpha virt. eigenvalues --    1.72313   1.90149   1.95563   1.98782   2.08244
 Alpha virt. eigenvalues --    2.14480   2.14677   2.19298   2.28491   2.29935
 Alpha virt. eigenvalues --    2.34035   2.35329   2.37076   2.41059   2.41897
 Alpha virt. eigenvalues --    2.46053   2.46891   2.53012   2.53340   2.54343
 Alpha virt. eigenvalues --    2.55909   2.58270   2.62157   2.64680   2.67445
 Alpha virt. eigenvalues --    2.68943   2.69981   2.70997   2.73869   2.74942
 Alpha virt. eigenvalues --    2.78686   2.80781   2.82768   2.86145   2.87409
 Alpha virt. eigenvalues --    2.91210   2.94298   2.95458   3.03315   3.09105
 Alpha virt. eigenvalues --    3.13796   3.27015   3.28658   3.35376   3.75988
 Alpha virt. eigenvalues --    3.93442   4.11101   4.15791   4.28446   4.29440
 Alpha virt. eigenvalues --    4.37071   4.37407   4.39305   4.43937   4.49189
 Alpha virt. eigenvalues --    4.61626   4.70671   4.77606   4.83618   5.04830
 Alpha virt. eigenvalues --    5.17057   5.25937   5.28916   5.33252   5.36668
 Alpha virt. eigenvalues --    5.62484   5.80917   6.16165   6.32684   6.42019
 Alpha virt. eigenvalues --    6.46329   6.65984   6.69144   6.76826   6.83703
 Alpha virt. eigenvalues --    7.06595   7.11539   7.11856   7.20463   7.21556
 Alpha virt. eigenvalues --    7.24463   7.30875   7.32350   7.34234   7.37621
 Alpha virt. eigenvalues --    7.40949   7.62443   7.63102   7.76256   8.04448
 Alpha virt. eigenvalues --    8.23774   8.50289   8.54782  14.74088  15.25359
          Condensed to atoms (all electrons):
               1          2          3          4          5
     1  O    8.114786  -0.060503   0.239158  -0.015875  -0.028615
     2  O   -0.060503   8.125412  -0.005391   0.262997  -0.011107
     3  H    0.239158  -0.005391   0.501618   0.004907   0.002396
     4  H   -0.015875   0.262997   0.004907   0.461645  -0.004812
     5  Kr  -0.028615  -0.011107   0.002396  -0.004812  36.030228
 Mulliken charges:
               1
     1  O   -0.248951
     2  O   -0.311408
     3  H    0.257312
     4  H    0.291138
     5  Kr   0.011910
 Sum of Mulliken charges =  -0.00000
 Mulliken charges with hydrogens summed into heavy atoms:
               1
     1  O    0.008361
     2  O   -0.020270
     5  Kr   0.011910
         Mulliken charges condensed to fragments:
      1     -0.011910
      2      0.011910
 Electronic spatial extent (au):  <R**2>=            491.8526
 Charge=             -0.0000 electrons
 Dipole moment (field-independent basis, Debye):
    X=             -0.2318    Y=             -0.2801    Z=              0.5660  Tot=              0.6727
 Quadrupole moment (field-independent basis, Debye-Ang):
   XX=            -26.6933   YY=            -28.2856   ZZ=            -30.3406
   XY=             -3.9458   XZ=              1.7687   YZ=             -0.5962
 Traceless Quadrupole moment (field-independent basis, Debye-Ang):
   XX=              1.7465   YY=              0.1542   ZZ=             -1.9008
   XY=             -3.9458   XZ=              1.7687   YZ=             -0.5962
 Octapole moment (field-independent basis, Debye-Ang**2):
  XXX=              0.0058  YYY=             -0.6112  ZZZ=              0.2488  XYY=             -4.0195
  XXY=            -16.5652  XXZ=              5.2745  XZZ=             -7.6578  YZZ=             -0.4511
  YYZ=              0.7053  XYZ=             -1.8340
 Hexadecapole moment (field-independent basis, Debye-Ang**3):
 XXXX=           -343.0503 YYYY=            -63.1328 ZZZZ=            -28.8176 XXXY=            -51.9047
 XXXZ=             15.9881 YYYX=             -5.7456 YYYZ=             -0.7470 ZZZX=              0.7863
 ZZZY=             -0.3465 XXYY=            -74.6987 XXZZ=            -77.8669 YYZZ=            -17.0065
 XXYZ=             -5.5075 YYXZ=              2.0424 ZZXY=             -0.8596
 N-N= 1.483266956993D+02 E-N=-7.237265995189D+03  KE= 2.902624720362D+03
 Leave Link  601 at Wed Apr  1 08:04:13 2020, MaxMem=  2147483648 cpu:               0.7 elap:               0.1
 (Enter /usr/local/g16/g16/l122.exe)
 CPIOFr:  IOpCl= 0 IRwI=-1 IRwCP=  731 ICalc= -1 LCPTot=       59414 Len1MO=      159453 IndFrg=       59414
 CPIOFr:  IOpCl= 0 IRwI=-1 IRwCP=  731 ICalc=  0 LCPTot=       59414 Len1MO=      159453 IndFrg=      218867
 Counterpoise: doing calculation for fragment   1 using the basis set of the full-system, NewBq=T
 Leave Link  122 at Wed Apr  1 08:04:13 2020, MaxMem=  2147483648 cpu:               0.0 elap:               0.0
 (Enter /usr/local/g16/g16/l301.exe)
 Basis read from rwf:  (5D, 7F)
 No pseudopotential information found on rwf file.
 There are   229 symmetry adapted cartesian basis functions of A   symmetry.
 There are   197 symmetry adapted basis functions of A   symmetry.
   197 basis functions,   415 primitive gaussians,   229 cartesian basis functions
     9 alpha electrons        9 beta electrons
       nuclear repulsion energy        36.6019264512 Hartrees.
 IExCor=    0 DFT=F Ex=HF Corr=None ExCW=0 ScaHFX=  1.000000
 ScaDFX=  1.000000  1.000000  1.000000  1.000000 ScalE2=  1.000000  1.000000
 IRadAn=      5 IRanWt=     -1 IRanGd=            0 ICorTp=0 IEmpDi=  4
 NAtoms=    5 NActive=    5 NUniq=    5 SFac= 1.00D+00 NAtFMM=   60 NAOKFM=F Big=F
 Integral buffers will be    131072 words long.
 Raffenetti 1 integral format.
 Two-electron integral symmetry is turned on.
 No density basis found on file   718.
 Leave Link  301 at Wed Apr  1 08:04:14 2020, MaxMem=  2147483648 cpu:               0.4 elap:               0.0
 (Enter /usr/local/g16/g16/l302.exe)
 NPDir=0 NMtPBC=     1 NCelOv=     1 NCel=       1 NClECP=     1 NCelD=      1
         NCelK=      1 NCelE2=     1 NClLst=     1 CellRange=     0.0.
 One-electron integrals computed using PRISM.
 One-electron integral symmetry used in STVInt
 NBasis=   197 RedAO= T EigKep=  1.98D-04  NBF=   197
 NBsUse=   197 1.00D-06 EigRej= -1.00D+00 NBFU=   197
 Leave Link  302 at Wed Apr  1 08:04:14 2020, MaxMem=  2147483648 cpu:               1.6 elap:               0.1
 (Enter /usr/local/g16/g16/l303.exe)
 DipDrv:  MaxL=1.
 Leave Link  303 at Wed Apr  1 08:04:14 2020, MaxMem=  2147483648 cpu:               0.4 elap:               0.0
 (Enter /usr/local/g16/g16/l401.exe)
 ExpMin= 2.53D-02 ExpMax= 1.17D+07 ExpMxC= 1.33D+04 IAcc=3 IRadAn=         5 AccDes= 0.00D+00
 Harris functional with IExCor=  205 and IRadAn=       5 diagonalized for initial guess.
 HarFok:  IExCor=  205 AccDes= 0.00D+00 IRadAn=         5 IDoV= 1 UseB2=F ITyADJ=14
 ICtDFT=  3500011 ScaDFX=  1.000000  1.000000  1.000000  1.000000
 FoFCou: FMM=F IPFlag=           0 FMFlag=      100000 FMFlg1=           0
         NFxFlg=           0 DoJE=T BraDBF=F KetDBF=T FulRan=T
         wScrn=  0.000000 ICntrl=       500 IOpCl=  0 I1Cent=   200000004 NGrid=           0
         NMat0=    1 NMatS0=      1 NMatT0=    0 NMatD0=    1 NMtDS0=    0 NMtDT0=    0
 Petite list used in FoFCou.
 Harris En= -150.933731213756    
 JPrj=0 DoOrth=F DoCkMO=F.
 Leave Link  401 at Wed Apr  1 08:04:14 2020, MaxMem=  2147483648 cpu:               3.2 elap:               0.2
 (Enter /usr/local/g16/g16/l502.exe)
 Keep R1 ints in memory in canonical form, NReq=203132832.
 FoFCou: FMM=F IPFlag=           0 FMFlag=           0 FMFlg1=           0
         NFxFlg=           0 DoJE=F BraDBF=F KetDBF=F FulRan=T
         wScrn=  0.000000 ICntrl=       600 IOpCl=  0 I1Cent=           0 NGrid=           0
         NMat0=    1 NMatS0=  19503 NMatT0=    0 NMatD0=    1 NMtDS0=    0 NMtDT0=    0
 Symmetry not used in FoFCou.
 Two-electron integral symmetry not used.
 Closed shell SCF:
 Using DIIS extrapolation, IDIIS=  1040.
 NGot=  2147483648 LenX=  1957179903 LenY=  1957127021
 Requested convergence on RMS density matrix=1.00D-08 within 128 cycles.
 Requested convergence on MAX density matrix=1.00D-06.
 Requested convergence on             energy=1.00D-06.
 No special actions if energy rises.

 Cycle   1  Pass 1  IDiag  1:
 E= -150.772065311266    
 DIIS: error= 1.99D-02 at cycle   1 NSaved=   1.
 NSaved= 1 IEnMin= 1 EnMin= -150.772065311266     IErMin= 1 ErrMin= 1.99D-02
 ErrMax= 1.99D-02  0.00D+00 EMaxC= 1.00D-01 BMatC= 2.27D-01 BMatP= 2.27D-01
 IDIUse=3 WtCom= 8.01D-01 WtEn= 1.99D-01
 Coeff-Com:  0.100D+01
 Coeff-En:   0.100D+01
 Coeff:      0.100D+01
 Gap=     0.683 Goal=   None    Shift=    0.000
 GapD=    0.683 DampG=2.000 DampE=0.500 DampFc=1.0000 IDamp=-1.
 RMSDP=9.39D-04 MaxDP=2.93D-02              OVMax= 6.69D-02

 Cycle   2  Pass 1  IDiag  1:
 E= -150.824238402605     Delta-E=       -0.052173091339 Rises=F Damp=F
 DIIS: error= 6.54D-03 at cycle   2 NSaved=   2.
 NSaved= 2 IEnMin= 2 EnMin= -150.824238402605     IErMin= 2 ErrMin= 6.54D-03
 ErrMax= 6.54D-03  0.00D+00 EMaxC= 1.00D-01 BMatC= 1.52D-02 BMatP= 2.27D-01
 IDIUse=3 WtCom= 9.35D-01 WtEn= 6.54D-02
 Coeff-Com:  0.100D+00 0.900D+00
 Coeff-En:   0.000D+00 0.100D+01
 Coeff:      0.935D-01 0.907D+00
 Gap=     0.518 Goal=   None    Shift=    0.000
 RMSDP=4.57D-04 MaxDP=2.43D-02 DE=-5.22D-02 OVMax= 2.74D-02

 Cycle   3  Pass 1  IDiag  1:
 E= -150.831759693730     Delta-E=       -0.007521291125 Rises=F Damp=F
 DIIS: error= 2.74D-03 at cycle   3 NSaved=   3.
 NSaved= 3 IEnMin= 3 EnMin= -150.831759693730     IErMin= 3 ErrMin= 2.74D-03
 ErrMax= 2.74D-03  0.00D+00 EMaxC= 1.00D-01 BMatC= 2.13D-03 BMatP= 1.52D-02
 IDIUse=3 WtCom= 9.73D-01 WtEn= 2.74D-02
 Coeff-Com: -0.205D-01 0.251D+00 0.769D+00
 Coeff-En:   0.000D+00 0.000D+00 0.100D+01
 Coeff:     -0.200D-01 0.244D+00 0.775D+00
 Gap=     0.490 Goal=   None    Shift=    0.000
 RMSDP=1.01D-04 MaxDP=3.43D-03 DE=-7.52D-03 OVMax= 8.91D-03

 Cycle   4  Pass 1  IDiag  1:
 E= -150.833080754366     Delta-E=       -0.001321060636 Rises=F Damp=F
 DIIS: error= 2.91D-04 at cycle   4 NSaved=   4.
 NSaved= 4 IEnMin= 4 EnMin= -150.833080754366     IErMin= 4 ErrMin= 2.91D-04
 ErrMax= 2.91D-04  0.00D+00 EMaxC= 1.00D-01 BMatC= 1.44D-05 BMatP= 2.13D-03
 IDIUse=3 WtCom= 9.97D-01 WtEn= 2.91D-03
 Coeff-Com: -0.165D-02-0.114D-01 0.751D-02 0.101D+01
 Coeff-En:   0.000D+00 0.000D+00 0.000D+00 0.100D+01
 Coeff:     -0.164D-02-0.113D-01 0.749D-02 0.101D+01
 Gap=     0.492 Goal=   None    Shift=    0.000
 RMSDP=1.47D-05 MaxDP=3.83D-04 DE=-1.32D-03 OVMax= 1.34D-03

 Cycle   5  Pass 1  IDiag  1:
 E= -150.833101117295     Delta-E=       -0.000020362929 Rises=F Damp=F
 DIIS: error= 8.61D-05 at cycle   5 NSaved=   5.
 NSaved= 5 IEnMin= 5 EnMin= -150.833101117295     IErMin= 5 ErrMin= 8.61D-05
 ErrMax= 8.61D-05  0.00D+00 EMaxC= 1.00D-01 BMatC= 1.39D-06 BMatP= 1.44D-05
 IDIUse=1 WtCom= 1.00D+00 WtEn= 0.00D+00
 Coeff-Com:  0.162D-02-0.163D-01-0.571D-01-0.171D+00 0.124D+01
 Coeff:      0.162D-02-0.163D-01-0.571D-01-0.171D+00 0.124D+01
 Gap=     0.492 Goal=   None    Shift=    0.000
 RMSDP=8.07D-06 MaxDP=2.07D-04 DE=-2.04D-05 OVMax= 7.73D-04

 Cycle   6  Pass 1  IDiag  1:
 E= -150.833104413216     Delta-E=       -0.000003295921 Rises=F Damp=F
 DIIS: error= 1.75D-05 at cycle   6 NSaved=   6.
 NSaved= 6 IEnMin= 6 EnMin= -150.833104413216     IErMin= 6 ErrMin= 1.75D-05
 ErrMax= 1.75D-05  0.00D+00 EMaxC= 1.00D-01 BMatC= 6.11D-08 BMatP= 1.39D-06
 IDIUse=1 WtCom= 1.00D+00 WtEn= 0.00D+00
 Coeff-Com: -0.395D-03 0.506D-02 0.181D-01 0.203D-01-0.414D+00 0.137D+01
 Coeff:     -0.395D-03 0.506D-02 0.181D-01 0.203D-01-0.414D+00 0.137D+01
 Gap=     0.492 Goal=   None    Shift=    0.000
 RMSDP=2.07D-06 MaxDP=5.74D-05 DE=-3.30D-06 OVMax= 2.14D-04

 Cycle   7  Pass 1  IDiag  1:
 E= -150.833104594562     Delta-E=       -0.000000181346 Rises=F Damp=F
 DIIS: error= 3.84D-06 at cycle   7 NSaved=   7.
 NSaved= 7 IEnMin= 7 EnMin= -150.833104594562     IErMin= 7 ErrMin= 3.84D-06
 ErrMax= 3.84D-06  0.00D+00 EMaxC= 1.00D-01 BMatC= 3.25D-09 BMatP= 6.11D-08
 IDIUse=1 WtCom= 1.00D+00 WtEn= 0.00D+00
 Coeff-Com:  0.444D-04-0.728D-03-0.310D-02-0.147D-02 0.741D-01-0.385D+00
 Coeff-Com:  0.132D+01
 Coeff:      0.444D-04-0.728D-03-0.310D-02-0.147D-02 0.741D-01-0.385D+00
 Coeff:      0.132D+01
 Gap=     0.492 Goal=   None    Shift=    0.000
 RMSDP=5.20D-07 MaxDP=1.16D-05 DE=-1.81D-07 OVMax= 7.57D-05

 Cycle   8  Pass 1  IDiag  1:
 E= -150.833104607214     Delta-E=       -0.000000012652 Rises=F Damp=F
 DIIS: error= 2.20D-06 at cycle   8 NSaved=   8.
 NSaved= 8 IEnMin= 8 EnMin= -150.833104607214     IErMin= 8 ErrMin= 2.20D-06
 ErrMax= 2.20D-06  0.00D+00 EMaxC= 1.00D-01 BMatC= 6.94D-10 BMatP= 3.25D-09
 IDIUse=1 WtCom= 1.00D+00 WtEn= 0.00D+00
 Coeff-Com:  0.108D-04-0.847D-05 0.301D-03-0.314D-02-0.120D-02 0.117D+00
 Coeff-Com: -0.917D+00 0.180D+01
 Coeff:      0.108D-04-0.847D-05 0.301D-03-0.314D-02-0.120D-02 0.117D+00
 Coeff:     -0.917D+00 0.180D+01
 Gap=     0.492 Goal=   None    Shift=    0.000
 RMSDP=3.64D-07 MaxDP=9.41D-06 DE=-1.27D-08 OVMax= 5.91D-05

 Cycle   9  Pass 1  IDiag  1:
 E= -150.833104610984     Delta-E=       -0.000000003770 Rises=F Damp=F
 DIIS: error= 8.34D-07 at cycle   9 NSaved=   9.
 NSaved= 9 IEnMin= 9 EnMin= -150.833104610984     IErMin= 9 ErrMin= 8.34D-07
 ErrMax= 8.34D-07  0.00D+00 EMaxC= 1.00D-01 BMatC= 1.18D-10 BMatP= 6.94D-10
 IDIUse=1 WtCom= 1.00D+00 WtEn= 0.00D+00
 Coeff-Com: -0.737D-05 0.123D-03 0.548D-03 0.510D-03-0.142D-01 0.706D-01
 Coeff-Com: -0.241D+00 0.773D-01 0.111D+01
 Coeff:     -0.737D-05 0.123D-03 0.548D-03 0.510D-03-0.142D-01 0.706D-01
 Coeff:     -0.241D+00 0.773D-01 0.111D+01
 Gap=     0.492 Goal=   None    Shift=    0.000
 RMSDP=1.23D-07 MaxDP=3.11D-06 DE=-3.77D-09 OVMax= 1.99D-05

 Cycle  10  Pass 1  IDiag  1:
 E= -150.833104611461     Delta-E=       -0.000000000478 Rises=F Damp=F
 DIIS: error= 3.86D-07 at cycle  10 NSaved=  10.
 NSaved=10 IEnMin=10 EnMin= -150.833104611461     IErMin=10 ErrMin= 3.86D-07
 ErrMax= 3.86D-07  0.00D+00 EMaxC= 1.00D-01 BMatC= 3.48D-11 BMatP= 1.18D-10
 IDIUse=1 WtCom= 1.00D+00 WtEn= 0.00D+00
 Coeff-Com: -0.670D-05 0.489D-04 0.105D-03 0.159D-02-0.607D-02-0.117D-01
 Coeff-Com:  0.225D+00-0.579D+00 0.338D+00 0.103D+01
 Coeff:     -0.670D-05 0.489D-04 0.105D-03 0.159D-02-0.607D-02-0.117D-01
 Coeff:      0.225D+00-0.579D+00 0.338D+00 0.103D+01
 Gap=     0.492 Goal=   None    Shift=    0.000
 RMSDP=6.97D-08 MaxDP=1.70D-06 DE=-4.78D-10 OVMax= 1.10D-05

 Cycle  11  Pass 1  IDiag  1:
 E= -150.833104611567     Delta-E=       -0.000000000106 Rises=F Damp=F
 DIIS: error= 6.40D-08 at cycle  11 NSaved=  11.
 NSaved=11 IEnMin=11 EnMin= -150.833104611567     IErMin=11 ErrMin= 6.40D-08
 ErrMax= 6.40D-08  0.00D+00 EMaxC= 1.00D-01 BMatC= 1.30D-12 BMatP= 3.48D-11
 IDIUse=1 WtCom= 1.00D+00 WtEn= 0.00D+00
 Coeff-Com:  0.154D-05-0.198D-04-0.709D-04-0.983D-04 0.176D-02-0.448D-02
 Coeff-Com: -0.914D-02 0.712D-01-0.160D+00-0.115D+00 0.122D+01
 Coeff:      0.154D-05-0.198D-04-0.709D-04-0.983D-04 0.176D-02-0.448D-02
 Coeff:     -0.914D-02 0.712D-01-0.160D+00-0.115D+00 0.122D+01
 Gap=     0.492 Goal=   None    Shift=    0.000
 RMSDP=1.37D-08 MaxDP=3.12D-07 DE=-1.06D-10 OVMax= 1.99D-06

 Cycle  12  Pass 1  IDiag  1:
 E= -150.833104611571     Delta-E=       -0.000000000004 Rises=F Damp=F
 DIIS: error= 8.59D-09 at cycle  12 NSaved=  12.
 NSaved=12 IEnMin=12 EnMin= -150.833104611571     IErMin=12 ErrMin= 8.59D-09
 ErrMax= 8.59D-09  0.00D+00 EMaxC= 1.00D-01 BMatC= 2.08D-14 BMatP= 1.30D-12
 IDIUse=1 WtCom= 1.00D+00 WtEn= 0.00D+00
 Coeff-Com: -0.110D-06 0.232D-05 0.116D-04-0.132D-04-0.226D-03 0.123D-02
 Coeff-Com: -0.449D-02 0.265D-02 0.182D-01-0.809D-02-0.219D+00 0.121D+01
 Coeff:     -0.110D-06 0.232D-05 0.116D-04-0.132D-04-0.226D-03 0.123D-02
 Coeff:     -0.449D-02 0.265D-02 0.182D-01-0.809D-02-0.219D+00 0.121D+01
 Gap=     0.492 Goal=   None    Shift=    0.000
 RMSDP=1.58D-09 MaxDP=2.77D-08 DE=-4.38D-12 OVMax= 1.77D-07

 SCF Done:  E(RHF) =  -150.833104612     A.U. after   12 cycles
            NFock= 12  Conv=0.16D-08     -V/T= 2.0021
 KE= 1.505163239376D+02 PE=-4.314504754481D+02 EE= 9.349912044771D+01
 Leave Link  502 at Wed Apr  1 08:04:17 2020, MaxMem=  2147483648 cpu:              27.0 elap:               3.4
 (Enter /usr/local/g16/g16/l801.exe)
 Windowed orbitals will be sorted by symmetry type.
 ExpMin= 2.53D-02 ExpMax= 1.17D+07 ExpMxC= 1.33D+04 IAcc=3 IRadAn=         5 AccDes= 0.00D+00
 HarFok:  IExCor=  205 AccDes= 0.00D+00 IRadAn=         5 IDoV=-2 UseB2=F ITyADJ=14
 ICtDFT= 12500011 ScaDFX=  1.000000  1.000000  1.000000  1.000000
 Largest valence mixing into a core orbital is  1.19D-04
 Largest core mixing into a valence orbital is  2.01D-05
 Range of M.O.s used for correlation:     3   197
 NBasis=   197 NAE=     9 NBE=     9 NFC=     2 NFV=     0
 NROrb=    195 NOA=     7 NOB=     7 NVA=   188 NVB=   188

 **** Warning!!: The largest alpha MO coefficient is  0.13232103D+02

 Leave Link  801 at Wed Apr  1 08:04:17 2020, MaxMem=  2147483648 cpu:               0.6 elap:               0.0
 (Enter /usr/local/g16/g16/l804.exe)
 Closed-shell transformation, MDV=  2147483648 ITran=4 ISComp=1.
 Semi-Direct transformation.
 ModeAB=           2 MOrb=             7 LenV=    2146282449
 LASXX=     25261509 LTotXX=    25261509 LenRXX=    25261509
 LTotAB=    25646992 MaxLAS=    35947275 LenRXY=    35947275
 NonZer=    50523018 LenScr=    76544000 LnRSAI=           0
 LnScr1=           0 LExtra=           0 Total=    137752784
 MaxDsk=          -1 SrtSym=           F ITran=            4
 DoSDTr:  NPSUse= 16
 JobTyp=0 Pass  1:  I=   1 to   7.
 (rs|ai) integrals will be sorted in core.
 Complete sort for first half transformation.
 First half transformation complete.
 Complete sort for second half transformation.
 Second half transformation complete.
 SymMOI:  orbitals are not symmetric.
 Spin components of T(2) and E(2):
     alpha-alpha T2 =       0.1590876151D-01 E2=     -0.6267937478D-01
     alpha-beta  T2 =       0.9289058040D-01 E2=     -0.3813970166D+00
     beta-beta   T2 =       0.1590876151D-01 E2=     -0.6267937478D-01
 ANorm=    0.1060522561D+01
 E2 =    -0.5067557661D+00 EUMP2 =    -0.15133986037769D+03
 Leave Link  804 at Wed Apr  1 08:04:25 2020, MaxMem=  2147483648 cpu:             116.1 elap:               7.3
 (Enter /usr/local/g16/g16/l913.exe)
 CIDS:  MDV=  2147483648.
 Frozen-core window:  NFC=   2 NFV=   0.
 IFCWin=0 IBDFC=1 NFBD=     0     0 NFCmp=     0     0 NFFFC=     0     0
 Using DD3R+UMP44R for 1st iteration.
 Using DD4RQ for 2nd and later iterations.
 Keep R2 and R3 ints in memory in canonical form, NReq=393331509.
 FoFCou: FMM=F IPFlag=           0 FMFlag=           0 FMFlg1=           0
         NFxFlg=           0 DoJE=F BraDBF=F KetDBF=F FulRan=T
         wScrn=  0.000000 ICntrl=       600 IOpCl=  0 I1Cent=           0 NGrid=           0
         NMat0=    1 NMatS0=  19503 NMatT0=    0 NMatD0=    1 NMtDS0=    0 NMtDT0=    0
 Symmetry not used in FoFCou.
 Two-electron integral symmetry not used.
 CIDS: In Core Option IDoMem=           1.
 MP4(SDTQ)
 =========
 Produce multiple copies of IABC intergrals
 DD1Dir will call FoFMem   1 times, MxPair=        56
 NAB=    28 NAA=     0 NBB=     0.
 MP4(D)= -0.11233273D-01
 MP4(S)= -0.51300921D-02
 MP4(R+Q)=  0.10701382D-01
 T4(AAA)= -0.65186913D-03
 T4(AAB)= -0.10190536D-01
 Time for triples=      367.41 seconds.
 MP4(T)=   -0.21684811D-01
 E3=       -0.22874721D-02        EUMP3=      -0.15134214785D+03
 E4(DQ)=   -0.53189169D-03        UMP4(DQ)=   -0.15134267974D+03
 E4(SDQ)=  -0.56619838D-02        UMP4(SDQ)=  -0.15134780983D+03
 E4(SDTQ)= -0.27346794D-01        UMP4(SDTQ)= -0.15136949464D+03
 VARIATIONAL ENERGIES WITH THE FIRST-ORDER WAVEFUNCTION:
 E(VAR1)=  -0.15128570492D+03     E(CISD,4)=  -0.15129531466D+03
 Largest amplitude= 2.29D-02
 Discarding MO integrals.
 Leave Link  913 at Wed Apr  1 08:04:51 2020, MaxMem=  2147483648 cpu:             423.1 elap:              26.5
 (Enter /usr/local/g16/g16/l601.exe)
 Copying SCF densities to generalized density rwf, IOpCl= 0 IROHF=0.

 **********************************************************************

            Population analysis using the SCF density.

 **********************************************************************

 Orbital symmetries:
       Occupied  (A) (A) (A) (A) (A) (A) (A) (A) (A)
       Virtual   (A) (A) (A) (A) (A) (A) (A) (A) (A) (A) (A) (A)
                 (A) (A) (A) (A) (A) (A) (A) (A) (A) (A) (A) (A)
                 (A) (A) (A) (A) (A) (A) (A) (A) (A) (A) (A) (A)
                 (A) (A) (A) (A) (A) (A) (A) (A) (A) (A) (A) (A)
                 (A) (A) (A) (A) (A) (A) (A) (A) (A) (A) (A) (A)
                 (A) (A) (A) (A) (A) (A) (A) (A) (A) (A) (A) (A)
                 (A) (A) (A) (A) (A) (A) (A) (A) (A) (A) (A) (A)
                 (A) (A) (A) (A) (A) (A) (A) (A) (A) (A) (A) (A)
                 (A) (A) (A) (A) (A) (A) (A) (A) (A) (A) (A) (A)
                 (A) (A) (A) (A) (A) (A) (A) (A) (A) (A) (A) (A)
                 (A) (A) (A) (A) (A) (A) (A) (A) (A) (A) (A) (A)
                 (A) (A) (A) (A) (A) (A) (A) (A) (A) (A) (A) (A)
                 (A) (A) (A) (A) (A) (A) (A) (A) (A) (A) (A) (A)
                 (A) (A) (A) (A) (A) (A) (A) (A) (A) (A) (A) (A)
                 (A) (A) (A) (A) (A) (A) (A) (A) (A) (A) (A) (A)
                 (A) (A) (A) (A) (A) (A) (A) (A)
 The electronic state is 1-A.
 Alpha  occ. eigenvalues --  -20.62936 -20.62908  -1.46626  -1.21844  -0.71082
 Alpha  occ. eigenvalues --   -0.70269  -0.62350  -0.52705  -0.46076
 Alpha virt. eigenvalues --    0.03115   0.03914   0.07465   0.08999   0.10308
 Alpha virt. eigenvalues --    0.11507   0.13270   0.15312   0.17335   0.17553
 Alpha virt. eigenvalues --    0.19883   0.20906   0.24300   0.26562   0.27459
 Alpha virt. eigenvalues --    0.28897   0.31079   0.32302   0.32677   0.34565
 Alpha virt. eigenvalues --    0.37083   0.38491   0.39457   0.41405   0.43195
 Alpha virt. eigenvalues --    0.43813   0.45296   0.49276   0.49739   0.51434
 Alpha virt. eigenvalues --    0.56681   0.59329   0.64679   0.69872   0.72741
 Alpha virt. eigenvalues --    0.74769   0.78528   0.79172   0.80168   0.81240
 Alpha virt. eigenvalues --    0.83072   0.87240   0.90247   0.92220   0.94830
 Alpha virt. eigenvalues --    0.96109   0.97786   0.99128   1.02005   1.03247
 Alpha virt. eigenvalues --    1.05048   1.08874   1.10087   1.14073   1.14170
 Alpha virt. eigenvalues --    1.16356   1.18759   1.19905   1.25650   1.27680
 Alpha virt. eigenvalues --    1.29202   1.32428   1.33057   1.34200   1.34917
 Alpha virt. eigenvalues --    1.35894   1.37803   1.37883   1.40840   1.48669
 Alpha virt. eigenvalues --    1.51988   1.54553   1.59277   1.59963   1.61615
 Alpha virt. eigenvalues --    1.64925   1.69900   1.73071   1.78155   1.87766
 Alpha virt. eigenvalues --    1.93557   1.95622   2.00125   2.10412   2.15745
 Alpha virt. eigenvalues --    2.16403   2.21035   2.29991   2.30298   2.35127
 Alpha virt. eigenvalues --    2.40146   2.42707   2.47271   2.51017   2.58601
 Alpha virt. eigenvalues --    2.63648   2.69386   2.70889   2.73028   2.81837
 Alpha virt. eigenvalues --    2.83964   2.87264   2.92545   3.06374   3.10034
 Alpha virt. eigenvalues --    3.25916   3.26145   3.27735   3.28464   3.33496
 Alpha virt. eigenvalues --    3.45129   3.57414   3.70719   3.78978   3.79717
 Alpha virt. eigenvalues --    3.82457   3.82690   3.83587   3.84440   3.88369
 Alpha virt. eigenvalues --    3.92465   3.94031   3.97847   4.00394   4.08062
 Alpha virt. eigenvalues --    4.11633   4.16886   4.20442   4.29032   4.31243
 Alpha virt. eigenvalues --    4.37870   4.40172   4.43456   4.49525   4.51734
 Alpha virt. eigenvalues --    4.63332   4.71444   4.79196   5.04865   5.17013
 Alpha virt. eigenvalues --    5.26145   5.28679   5.33266   5.36727   5.62583
 Alpha virt. eigenvalues --    5.80695   6.15935   6.32503   6.41784   6.45906
 Alpha virt. eigenvalues --    6.65837   6.69002   6.76605   6.83487   7.06394
 Alpha virt. eigenvalues --    7.11344   7.11587   7.20244   7.21363   7.24199
 Alpha virt. eigenvalues --    7.30602   7.31729   7.34039   7.37177   7.40516
 Alpha virt. eigenvalues --    7.62305   7.62844   7.75894   8.04072   8.23507
 Alpha virt. eigenvalues --    8.50050   8.54251  10.89044  14.73822  14.83559
 Alpha virt. eigenvalues --   14.88328  15.06484  15.29068  29.03268  29.03843
 Alpha virt. eigenvalues --   29.08184  29.13988  29.23484  49.10483 148.31591
 Alpha virt. eigenvalues --  148.39159 148.72188 752.49411
          Condensed to atoms (all electrons):
               1          2          3          4          5
     1  O    8.099454  -0.057684   0.237017  -0.017363  -0.003840
     2  O   -0.057684   8.105368  -0.005873   0.257367  -0.000498
     3  H    0.237017  -0.005873   0.502019   0.005711   0.000781
     4  H   -0.017363   0.257367   0.005711   0.467959  -0.003779
     5  Kr  -0.003840  -0.000498   0.000781  -0.003779   0.001522
 Mulliken charges:
               1
     1  O   -0.257584
     2  O   -0.298680
     3  H    0.260345
     4  H    0.290105
     5  Kr   0.005814
 Sum of Mulliken charges =  -0.00000
 Mulliken charges with hydrogens summed into heavy atoms:
               1
     1  O    0.002761
     2  O   -0.008574
     5  Kr   0.005814
         Mulliken charges condensed to fragments:
      1     -0.005814
      2      0.005814
 Electronic spatial extent (au):  <R**2>=            324.0124
 Charge=             -0.0000 electrons
 Dipole moment (field-independent basis, Debye):
    X=             -0.0973    Y=             -0.0183    Z=              0.5792  Tot=              0.5876
 Quadrupole moment (field-independent basis, Debye-Ang):
   XX=             -8.8185   YY=            -10.6050   ZZ=            -12.7117
   XY=             -4.1372   XZ=              1.7557   YZ=             -0.5944
 Traceless Quadrupole moment (field-independent basis, Debye-Ang):
   XX=              1.8932   YY=              0.1068   ZZ=             -2.0000
   XY=             -4.1372   XZ=              1.7557   YZ=             -0.5944
 Octapole moment (field-independent basis, Debye-Ang**2):
  XXX=            -51.9935  YYY=             -1.2461  ZZZ=              0.3742  XYY=            -21.5686
  XXY=            -16.5550  XXZ=              5.3273  XZZ=            -25.2731  YZZ=             -0.6569
  YYZ=              0.7452  XYZ=             -1.8329
 Hexadecapole moment (field-independent basis, Debye-Ang**3):
 XXXX=           -216.6713 YYYY=            -44.7951 ZZZZ=            -10.5789 XXXY=            -51.2501
 XXXZ=             15.8626 YYYX=             -5.1689 YYYZ=             -0.7452 ZZZX=              0.6597
 ZZZY=             -0.3451 XXYY=            -50.6735 XXZZ=            -54.0410 YYZZ=            -10.9067
 XXYZ=             -5.5096 YYXZ=              1.9972 ZZXY=             -0.6253
 N-N= 3.660192645123D+01 E-N=-4.314504758239D+02  KE= 1.505163239376D+02
 Leave Link  601 at Wed Apr  1 08:04:52 2020, MaxMem=  2147483648 cpu:               0.6 elap:               0.1
 (Enter /usr/local/g16/g16/l122.exe)
 CPIOFr:  IOpCl= 0 IRwI=-1 IRwCP=  731 ICalc=  1 LCPTot=       59414 Len1MO=      159453 IndFrg=      378320
 Counterpoise: doing calculation for fragment   2 using the basis set of the full-system, NewBq=T
 Leave Link  122 at Wed Apr  1 08:04:52 2020, MaxMem=  2147483648 cpu:               0.0 elap:               0.0
 (Enter /usr/local/g16/g16/l301.exe)
 Basis read from rwf:  (5D, 7F)
 No pseudopotential information found on rwf file.
 There are   229 symmetry adapted cartesian basis functions of A   symmetry.
 There are   197 symmetry adapted basis functions of A   symmetry.
   197 basis functions,   415 primitive gaussians,   229 cartesian basis functions
    18 alpha electrons       18 beta electrons
       nuclear repulsion energy         0.0000000000 Hartrees.
 IExCor=    0 DFT=F Ex=HF Corr=None ExCW=0 ScaHFX=  1.000000
 ScaDFX=  1.000000  1.000000  1.000000  1.000000 ScalE2=  1.000000  1.000000
 IRadAn=      5 IRanWt=     -1 IRanGd=            0 ICorTp=0 IEmpDi=  4
 NAtoms=    5 NActive=    5 NUniq=    5 SFac= 1.00D+00 NAtFMM=   60 NAOKFM=F Big=F
 Integral buffers will be    131072 words long.
 Raffenetti 1 integral format.
 Two-electron integral symmetry is turned on.
 No density basis found on file   718.
 Leave Link  301 at Wed Apr  1 08:04:52 2020, MaxMem=  2147483648 cpu:               0.3 elap:               0.0
 (Enter /usr/local/g16/g16/l302.exe)
 NPDir=0 NMtPBC=     1 NCelOv=     1 NCel=       1 NClECP=     1 NCelD=      1
         NCelK=      1 NCelE2=     1 NClLst=     1 CellRange=     0.0.
 One-electron integrals computed using PRISM.
 One-electron integral symmetry used in STVInt
 NBasis=   197 RedAO= T EigKep=  1.98D-04  NBF=   197
 NBsUse=   197 1.00D-06 EigRej= -1.00D+00 NBFU=   197
 Leave Link  302 at Wed Apr  1 08:04:52 2020, MaxMem=  2147483648 cpu:               1.7 elap:               0.1
 (Enter /usr/local/g16/g16/l303.exe)
 DipDrv:  MaxL=1.
 Leave Link  303 at Wed Apr  1 08:04:52 2020, MaxMem=  2147483648 cpu:               0.4 elap:               0.0
 (Enter /usr/local/g16/g16/l401.exe)
 ExpMin= 2.53D-02 ExpMax= 1.17D+07 ExpMxC= 1.33D+04 IAcc=3 IRadAn=         5 AccDes= 0.00D+00
 Harris functional with IExCor=  205 and IRadAn=       5 diagonalized for initial guess.
 HarFok:  IExCor=  205 AccDes= 0.00D+00 IRadAn=         5 IDoV= 1 UseB2=F ITyADJ=14
 ICtDFT=  3500011 ScaDFX=  1.000000  1.000000  1.000000  1.000000
 FoFCou: FMM=F IPFlag=           0 FMFlag=      100000 FMFlg1=           0
         NFxFlg=           0 DoJE=T BraDBF=F KetDBF=T FulRan=T
         wScrn=  0.000000 ICntrl=       500 IOpCl=  0 I1Cent=   200000004 NGrid=           0
         NMat0=    1 NMatS0=      1 NMatT0=    0 NMatD0=    1 NMtDS0=    0 NMtDT0=    0
 Petite list used in FoFCou.
 Harris En= -2751.06002817032    
 JPrj=0 DoOrth=F DoCkMO=F.
 Leave Link  401 at Wed Apr  1 08:04:52 2020, MaxMem=  2147483648 cpu:               2.8 elap:               0.2
 (Enter /usr/local/g16/g16/l502.exe)
 Keep R1 ints in memory in canonical form, NReq=203132832.
 FoFCou: FMM=F IPFlag=           0 FMFlag=           0 FMFlg1=           0
         NFxFlg=           0 DoJE=F BraDBF=F KetDBF=F FulRan=T
         wScrn=  0.000000 ICntrl=       600 IOpCl=  0 I1Cent=           0 NGrid=           0
         NMat0=    1 NMatS0=  19503 NMatT0=    0 NMatD0=    1 NMtDS0=    0 NMtDT0=    0
 Symmetry not used in FoFCou.
 Two-electron integral symmetry not used.
 Closed shell SCF:
 Using DIIS extrapolation, IDIIS=  1040.
 NGot=  2147483648 LenX=  1957179903 LenY=  1957127021
 Requested convergence on RMS density matrix=1.00D-08 within 128 cycles.
 Requested convergence on MAX density matrix=1.00D-06.
 Requested convergence on             energy=1.00D-06.
 No special actions if energy rises.

 Cycle   1  Pass 1  IDiag  1:
 E= -2752.00363519531    
 DIIS: error= 3.38D-02 at cycle   1 NSaved=   1.
 NSaved= 1 IEnMin= 1 EnMin= -2752.00363519531     IErMin= 1 ErrMin= 3.38D-02
 ErrMax= 3.38D-02  0.00D+00 EMaxC= 1.00D-01 BMatC= 4.28D-01 BMatP= 4.28D-01
 IDIUse=3 WtCom= 6.62D-01 WtEn= 3.38D-01
 Coeff-Com:  0.100D+01
 Coeff-En:   0.100D+01
 Coeff:      0.100D+01
 Gap=     0.630 Goal=   None    Shift=    0.000
 GapD=    0.630 DampG=2.000 DampE=0.500 DampFc=1.0000 IDamp=-1.
 RMSDP=1.75D-03 MaxDP=1.29D-01              OVMax= 2.38D-02

 Cycle   2  Pass 1  IDiag  1:
 E= -2752.04698425396     Delta-E=       -0.043349058645 Rises=F Damp=F
 DIIS: error= 7.13D-03 at cycle   2 NSaved=   2.
 NSaved= 2 IEnMin= 2 EnMin= -2752.04698425396     IErMin= 2 ErrMin= 7.13D-03
 ErrMax= 7.13D-03  0.00D+00 EMaxC= 1.00D-01 BMatC= 1.97D-02 BMatP= 4.28D-01
 IDIUse=3 WtCom= 9.29D-01 WtEn= 7.13D-02
 Coeff-Com:  0.152D+00 0.848D+00
 Coeff-En:   0.000D+00 0.100D+01
 Coeff:      0.141D+00 0.859D+00
 Gap=     0.543 Goal=   None    Shift=    0.000
 RMSDP=5.72D-04 MaxDP=3.48D-02 DE=-4.33D-02 OVMax= 1.31D-02

 Cycle   3  Pass 1  IDiag  1:
 E= -2752.05205480393     Delta-E=       -0.005070549973 Rises=F Damp=F
 DIIS: error= 1.45D-03 at cycle   3 NSaved=   3.
 NSaved= 3 IEnMin= 3 EnMin= -2752.05205480393     IErMin= 3 ErrMin= 1.45D-03
 ErrMax= 1.45D-03  0.00D+00 EMaxC= 1.00D-01 BMatC= 7.10D-04 BMatP= 1.97D-02
 IDIUse=3 WtCom= 9.85D-01 WtEn= 1.45D-02
 Coeff-Com: -0.128D-02 0.155D+00 0.846D+00
 Coeff-En:   0.000D+00 0.000D+00 0.100D+01
 Coeff:     -0.126D-02 0.153D+00 0.849D+00
 Gap=     0.554 Goal=   None    Shift=    0.000
 RMSDP=7.46D-05 MaxDP=4.36D-03 DE=-5.07D-03 OVMax= 2.88D-03

 Cycle   4  Pass 1  IDiag  1:
 E= -2752.05226571763     Delta-E=       -0.000210913702 Rises=F Damp=F
 DIIS: error= 3.28D-05 at cycle   4 NSaved=   4.
 NSaved= 4 IEnMin= 4 EnMin= -2752.05226571763     IErMin= 4 ErrMin= 3.28D-05
 ErrMax= 3.28D-05  0.00D+00 EMaxC= 1.00D-01 BMatC= 7.36D-07 BMatP= 7.10D-04
 IDIUse=1 WtCom= 1.00D+00 WtEn= 0.00D+00
 Coeff-Com: -0.365D-03-0.177D-01-0.590D-01 0.108D+01
 Coeff:     -0.365D-03-0.177D-01-0.590D-01 0.108D+01
 Gap=     0.553 Goal=   None    Shift=    0.000
 RMSDP=6.13D-06 MaxDP=2.88D-04 DE=-2.11D-04 OVMax= 2.71D-04

 Cycle   5  Pass 1  IDiag  1:
 E= -2752.05226615669     Delta-E=       -0.000000439057 Rises=F Damp=F
 DIIS: error= 3.63D-06 at cycle   5 NSaved=   5.
 NSaved= 5 IEnMin= 5 EnMin= -2752.05226615669     IErMin= 5 ErrMin= 3.63D-06
 ErrMax= 3.63D-06  0.00D+00 EMaxC= 1.00D-01 BMatC= 6.02D-09 BMatP= 7.36D-07
 IDIUse=1 WtCom= 1.00D+00 WtEn= 0.00D+00
 Coeff-Com:  0.615D-04 0.221D-04-0.517D-02-0.847D-01 0.109D+01
 Coeff:      0.615D-04 0.221D-04-0.517D-02-0.847D-01 0.109D+01
 Gap=     0.553 Goal=   None    Shift=    0.000
 RMSDP=6.66D-07 MaxDP=2.88D-05 DE=-4.39D-07 OVMax= 2.77D-05

 Cycle   6  Pass 1  IDiag  1:
 E= -2752.05226616253     Delta-E=       -0.000000005836 Rises=F Damp=F
 DIIS: error= 3.28D-07 at cycle   6 NSaved=   6.
 NSaved= 6 IEnMin= 6 EnMin= -2752.05226616253     IErMin= 6 ErrMin= 3.28D-07
 ErrMax= 3.28D-07  0.00D+00 EMaxC= 1.00D-01 BMatC= 4.08D-11 BMatP= 6.02D-09
 IDIUse=1 WtCom= 1.00D+00 WtEn= 0.00D+00
 Coeff-Com: -0.301D-05 0.984D-04 0.865D-03-0.188D-02-0.932D-01 0.109D+01
 Coeff:     -0.301D-05 0.984D-04 0.865D-03-0.188D-02-0.932D-01 0.109D+01
 Gap=     0.553 Goal=   None    Shift=    0.000
 RMSDP=6.71D-08 MaxDP=3.79D-06 DE=-5.84D-09 OVMax= 3.31D-06

 Cycle   7  Pass 1  IDiag  1:
 E= -2752.05226616256     Delta-E=       -0.000000000034 Rises=F Damp=F
 DIIS: error= 1.61D-08 at cycle   7 NSaved=   7.
 NSaved= 7 IEnMin= 7 EnMin= -2752.05226616256     IErMin= 7 ErrMin= 1.61D-08
 ErrMax= 1.61D-08  0.00D+00 EMaxC= 1.00D-01 BMatC= 1.41D-13 BMatP= 4.08D-11
 IDIUse=1 WtCom= 1.00D+00 WtEn= 0.00D+00
 Coeff-Com:  0.639D-07-0.405D-05-0.355D-04 0.236D-03 0.316D-02-0.671D-01
 Coeff-Com:  0.106D+01
 Coeff:      0.639D-07-0.405D-05-0.355D-04 0.236D-03 0.316D-02-0.671D-01
 Coeff:      0.106D+01
 Gap=     0.553 Goal=   None    Shift=    0.000
 RMSDP=6.03D-09 MaxDP=2.09D-07 DE=-3.37D-11 OVMax= 2.35D-07

 SCF Done:  E(RHF) =  -2752.05226616     A.U. after    7 cycles
            NFock=  7  Conv=0.60D-08     -V/T= 2.0000
 KE= 2.752039710797D+03 PE=-6.582554710335D+03 EE= 1.078462733376D+03
 Leave Link  502 at Wed Apr  1 08:04:54 2020, MaxMem=  2147483648 cpu:              24.3 elap:               2.6
 (Enter /usr/local/g16/g16/l801.exe)
 Windowed orbitals will be sorted by symmetry type.
 ExpMin= 2.53D-02 ExpMax= 1.17D+07 ExpMxC= 1.33D+04 IAcc=3 IRadAn=         5 AccDes= 0.00D+00
 HarFok:  IExCor=  205 AccDes= 0.00D+00 IRadAn=         5 IDoV=-2 UseB2=F ITyADJ=14
 ICtDFT= 12500011 ScaDFX=  1.000000  1.000000  1.000000  1.000000
 Largest valence mixing into a core orbital is  9.81D-05
 Largest core mixing into a valence orbital is  3.83D-05
 Range of M.O.s used for correlation:    10   197
 NBasis=   197 NAE=    18 NBE=    18 NFC=     9 NFV=     0
 NROrb=    188 NOA=     9 NOB=     9 NVA=   179 NVB=   179

 **** Warning!!: The largest alpha MO coefficient is  0.13121089D+02

 Leave Link  801 at Wed Apr  1 08:04:55 2020, MaxMem=  2147483648 cpu:               0.6 elap:               0.0
 (Enter /usr/local/g16/g16/l804.exe)
 Closed-shell transformation, MDV=  2147483648 ITran=4 ISComp=1.
 Semi-Direct transformation.
 ModeAB=           2 MOrb=             9 LenV=    2146336940
 LASXX=     28892340 LTotXX=    28892340 LenRXX=    28892340
 LTotAB=    29348001 MaxLAS=    44558820 LenRXY=    44558820
 NonZer=    57784680 LenScr=    87449600 LnRSAI=           0
 LnScr1=           0 LExtra=           0 Total=    160900760
 MaxDsk=          -1 SrtSym=           F ITran=            4
 DoSDTr:  NPSUse= 16
 JobTyp=0 Pass  1:  I=   1 to   9.
 (rs|ai) integrals will be sorted in core.
 Complete sort for first half transformation.
 First half transformation complete.
 Complete sort for second half transformation.
 Second half transformation complete.
 SymMOI:  orbitals are not symmetric.
 Spin components of T(2) and E(2):
     alpha-alpha T2 =       0.9502503967D-02 E2=     -0.3580261095D-01
     alpha-beta  T2 =       0.4817626093D-01 E2=     -0.1723098257D+00
     beta-beta   T2 =       0.9502503967D-02 E2=     -0.3580261095D-01
 ANorm=    0.1033044660D+01
 E2 =    -0.2439150476D+00 EUMP2 =    -0.27522961812102D+04
 Leave Link  804 at Wed Apr  1 08:05:02 2020, MaxMem=  2147483648 cpu:             125.5 elap:               7.8
 (Enter /usr/local/g16/g16/l913.exe)
 CIDS:  MDV=  2147483648.
 Frozen-core window:  NFC=   9 NFV=   0.
 IFCWin=0 IBDFC=1 NFBD=     0     0 NFCmp=     0     0 NFFFC=     0     0
 Using DD3R+UMP44R for 1st iteration.
 Using DD4RQ for 2nd and later iterations.
 Keep R2 and R3 ints in memory in canonical form, NReq=393332099.
 FoFCou: FMM=F IPFlag=           0 FMFlag=           0 FMFlg1=           0
         NFxFlg=           0 DoJE=F BraDBF=F KetDBF=F FulRan=T
         wScrn=  0.000000 ICntrl=       600 IOpCl=  0 I1Cent=           0 NGrid=           0
         NMat0=    1 NMatS0=  19503 NMatT0=    0 NMatD0=    1 NMtDS0=    0 NMtDT0=    0
 Symmetry not used in FoFCou.
 Two-electron integral symmetry not used.
 CIDS: In Core Option IDoMem=           1.
 MP4(SDTQ)
 =========
 Produce multiple copies of IABC intergrals
 DD1Dir will call FoFMem   1 times, MxPair=        90
 NAB=    45 NAA=     0 NBB=     0.
 MP4(D)= -0.37206848D-02
 MP4(S)= -0.10892655D-02
 MP4(R+Q)=  0.42466126D-02
 T4(AAA)= -0.32561262D-03
 T4(AAB)= -0.35627266D-02
 Time for triples=      472.02 seconds.
 MP4(T)=   -0.77766785D-02
 E3=       -0.98646203D-02        EUMP3=      -0.27523060458D+04
 E4(DQ)=    0.52592782D-03        UMP4(DQ)=   -0.27523055199D+04
 E4(SDQ)=  -0.56333768D-03        UMP4(SDQ)=  -0.27523066092D+04
 E4(SDTQ)= -0.83400162D-02        UMP4(SDTQ)= -0.27523143858D+04
 VARIATIONAL ENERGIES WITH THE FIRST-ORDER WAVEFUNCTION:
 E(VAR1)=  -0.27522900699D+04     E(CISD,4)=  -0.27522944693D+04
 Largest amplitude= 1.57D-02
 Discarding MO integrals.
 Leave Link  913 at Wed Apr  1 08:05:36 2020, MaxMem=  2147483648 cpu:             536.4 elap:              33.6
 (Enter /usr/local/g16/g16/l601.exe)
 Copying SCF densities to generalized density rwf, IOpCl= 0 IROHF=0.

 **********************************************************************

            Population analysis using the SCF density.

 **********************************************************************

 Orbital symmetries:
       Occupied  (A) (A) (A) (A) (A) (A) (A) (A) (A) (A) (A) (A)
                 (A) (A) (A) (A) (A) (A)
       Virtual   (A) (A) (A) (A) (A) (A) (A) (A) (A) (A) (A) (A)
                 (A) (A) (A) (A) (A) (A) (A) (A) (A) (A) (A) (A)
                 (A) (A) (A) (A) (A) (A) (A) (A) (A) (A) (A) (A)
                 (A) (A) (A) (A) (A) (A) (A) (A) (A) (A) (A) (A)
                 (A) (A) (A) (A) (A) (A) (A) (A) (A) (A) (A) (A)
                 (A) (A) (A) (A) (A) (A) (A) (A) (A) (A) (A) (A)
                 (A) (A) (A) (A) (A) (A) (A) (A) (A) (A) (A) (A)
                 (A) (A) (A) (A) (A) (A) (A) (A) (A) (A) (A) (A)
                 (A) (A) (A) (A) (A) (A) (A) (A) (A) (A) (A) (A)
                 (A) (A) (A) (A) (A) (A) (A) (A) (A) (A) (A) (A)
                 (A) (A) (A) (A) (A) (A) (A) (A) (A) (A) (A) (A)
                 (A) (A) (A) (A) (A) (A) (A) (A) (A) (A) (A) (A)
                 (A) (A) (A) (A) (A) (A) (A) (A) (A) (A) (A) (A)
                 (A) (A) (A) (A) (A) (A) (A) (A) (A) (A) (A) (A)
                 (A) (A) (A) (A) (A) (A) (A) (A) (A) (A) (A)
 The electronic state is 1-A.
 Alpha  occ. eigenvalues -- -520.16580 -69.90314 -63.00972 -63.00972 -63.00971
 Alpha  occ. eigenvalues --  -10.84954  -8.33154  -8.33154  -8.33153  -3.82531
 Alpha  occ. eigenvalues --   -3.82531  -3.82531  -3.82530  -3.82529  -1.15311
 Alpha  occ. eigenvalues --   -0.52431  -0.52429  -0.52429
 Alpha virt. eigenvalues --    0.02918   0.04921   0.08542   0.09986   0.11049
 Alpha virt. eigenvalues --    0.12331   0.13182   0.14514   0.16793   0.17317
 Alpha virt. eigenvalues --    0.17872   0.19870   0.21709   0.27197   0.28149
 Alpha virt. eigenvalues --    0.29095   0.29897   0.34277   0.34686   0.36569
 Alpha virt. eigenvalues --    0.37471   0.37817   0.38580   0.40983   0.42605
 Alpha virt. eigenvalues --    0.43881   0.45216   0.57185   0.57804   0.60061
 Alpha virt. eigenvalues --    0.61652   0.66627   0.68127   0.70788   0.71749
 Alpha virt. eigenvalues --    0.76923   0.78068   0.79396   0.80774   0.82084
 Alpha virt. eigenvalues --    0.83853   0.84054   0.86620   0.87822   0.88148
 Alpha virt. eigenvalues --    0.89347   0.90463   0.91277   0.95825   0.96958
 Alpha virt. eigenvalues --    1.00105   1.01526   1.03690   1.05256   1.08114
 Alpha virt. eigenvalues --    1.09649   1.12839   1.14585   1.15948   1.16391
 Alpha virt. eigenvalues --    1.18621   1.22319   1.24662   1.28119   1.29321
 Alpha virt. eigenvalues --    1.36294   1.37774   1.44715   1.49272   1.51183
 Alpha virt. eigenvalues --    1.61060   1.65115   1.68290   1.76120   1.77764
 Alpha virt. eigenvalues --    1.83169   1.87680   1.88138   1.91288   2.26040
 Alpha virt. eigenvalues --    2.33552   2.34810   2.36529   2.38639   2.40679
 Alpha virt. eigenvalues --    2.43326   2.43968   2.48421   2.50629   2.53954
 Alpha virt. eigenvalues --    2.54398   2.54869   2.56264   2.57803   2.58243
 Alpha virt. eigenvalues --    2.59863   2.61983   2.65033   2.66809   2.68692
 Alpha virt. eigenvalues --    2.70510   2.71113   2.71983   2.76589   2.77525
 Alpha virt. eigenvalues --    2.81321   2.82791   2.88522   2.91830   2.93027
 Alpha virt. eigenvalues --    2.96475   3.02672   3.10071   3.13044   3.15669
 Alpha virt. eigenvalues --    3.23780   3.28562   3.31086   3.38235   3.53787
 Alpha virt. eigenvalues --    3.60328   3.65451   3.84651   3.87435   4.03484
 Alpha virt. eigenvalues --    4.45840   4.49981   4.54752   4.61745   4.65107
 Alpha virt. eigenvalues --    4.74984   4.89586   4.91168   4.95469   5.09845
 Alpha virt. eigenvalues --    5.13280   5.15894   5.59651   5.67357   5.89631
 Alpha virt. eigenvalues --    5.91431   5.95836   6.18853   6.84561   6.90129
 Alpha virt. eigenvalues --    7.27817   7.41269   7.61750   7.64969   7.72764
 Alpha virt. eigenvalues --    7.81054   8.07163   8.10170   8.17634   8.24391
 Alpha virt. eigenvalues --    8.35451   8.38512   8.67888   8.89943   9.63137
 Alpha virt. eigenvalues --    9.70428   9.77656   9.85707   9.96675  10.05309
 Alpha virt. eigenvalues --   10.17094  10.22669  10.49195  10.93303  11.45029
 Alpha virt. eigenvalues --   11.56682  11.62086  12.03317  12.11149  13.22437
 Alpha virt. eigenvalues --   13.67307  14.53179  62.87862  64.53282
          Condensed to atoms (all electrons):
               1          2          3          4          5
     1  O    0.001080  -0.000978  -0.000445   0.000468  -0.005189
     2  O   -0.000978   0.002304   0.000286  -0.001256  -0.003695
     3  H   -0.000445   0.000286   0.000239  -0.000123   0.001258
     4  H    0.000468  -0.001256  -0.000123   0.001020  -0.007489
     5  Kr  -0.005189  -0.003695   0.001258  -0.007489  36.029679
 Mulliken charges:
               1
     1  O    0.005063
     2  O    0.003339
     3  H   -0.001216
     4  H    0.007379
     5  Kr  -0.014564
 Sum of Mulliken charges =  -0.00000
 Mulliken charges with hydrogens summed into heavy atoms:
               1
     1  O    0.003846
     2  O    0.010718
     5  Kr  -0.014564
         Mulliken charges condensed to fragments:
      1      0.014564
      2     -0.014564
 Electronic spatial extent (au):  <R**2>=            167.8493
 Charge=             -0.0000 electrons
 Dipole moment (field-independent basis, Debye):
    X=              0.0010    Y=              0.0005    Z=              0.0000  Tot=              0.0011
 Quadrupole moment (field-independent basis, Debye-Ang):
   XX=            -17.7284   YY=            -17.7321   ZZ=            -17.7360
   XY=              0.0024   XZ=             -0.0000   YZ=              0.0001
 Traceless Quadrupole moment (field-independent basis, Debye-Ang):
   XX=              0.0038   YY=              0.0001   ZZ=             -0.0038
   XY=              0.0024   XZ=             -0.0000   YZ=              0.0001
 Octapole moment (field-independent basis, Debye-Ang**2):
  XXX=             53.1232  YYY=              0.9877  ZZZ=             -0.1018  XYY=             17.7128
  XXY=              0.3222  XXZ=             -0.0341  XZZ=             17.7155  YZZ=              0.3295
  YYZ=             -0.0337  XYZ=             -0.0002
 Hexadecapole moment (field-independent basis, Debye-Ang**3):
 XXXX=           -124.6567 YYYY=            -18.5720 ZZZZ=            -18.5497 XXXY=             -0.9688
 XXXZ=              0.1018 YYYX=             -0.9758 YYYZ=              0.0017 ZZZX=              0.1018
 ZZZY=              0.0024 XXYY=            -23.8754 XXZZ=            -23.8738 YYZZ=             -6.1853
 XXYZ=              0.0008 YYXZ=              0.0340 ZZXY=             -0.3246
 N-N= 0.000000000000D+00 E-N=-6.582554711868D+03  KE= 2.752039710797D+03
 Leave Link  601 at Wed Apr  1 08:05:36 2020, MaxMem=  2147483648 cpu:               0.5 elap:               0.0
 (Enter /usr/local/g16/g16/l122.exe)
 CPIOFr:  IOpCl= 0 IRwI=-1 IRwCP=  731 ICalc=  2 LCPTot=       59414 Len1MO=      159453 IndFrg=      537773
 Counterpoise: doing calculation for fragment   1 using the basis set of the fragment.
 Leave Link  122 at Wed Apr  1 08:05:36 2020, MaxMem=  2147483648 cpu:               0.0 elap:               0.0
 (Enter /usr/local/g16/g16/l301.exe)
 Basis read from rwf:  (5D, 7F)
 No pseudopotential information found on rwf file.
 There are   160 symmetry adapted cartesian basis functions of A   symmetry.
 There are   138 symmetry adapted basis functions of A   symmetry.
   138 basis functions,   198 primitive gaussians,   160 cartesian basis functions
     9 alpha electrons        9 beta electrons
       nuclear repulsion energy        36.6019264512 Hartrees.
 IExCor=    0 DFT=F Ex=HF Corr=None ExCW=0 ScaHFX=  1.000000
 ScaDFX=  1.000000  1.000000  1.000000  1.000000 ScalE2=  1.000000  1.000000
 IRadAn=      5 IRanWt=     -1 IRanGd=            0 ICorTp=0 IEmpDi=  4
 NAtoms=    5 NActive=    4 NUniq=    4 SFac= 1.00D+00 NAtFMM=   60 NAOKFM=F Big=F
 Integral buffers will be    131072 words long.
 Raffenetti 1 integral format.
 Two-electron integral symmetry is turned on.
 No density basis found on file   718.
 Leave Link  301 at Wed Apr  1 08:05:36 2020, MaxMem=  2147483648 cpu:               0.4 elap:               0.0
 (Enter /usr/local/g16/g16/l302.exe)
 NPDir=0 NMtPBC=     1 NCelOv=     1 NCel=       1 NClECP=     1 NCelD=      1
         NCelK=      1 NCelE2=     1 NClLst=     1 CellRange=     0.0.
 One-electron integrals computed using PRISM.
 One-electron integral symmetry used in STVInt
 NBasis=   138 RedAO= T EigKep=  2.58D-04  NBF=   138
 NBsUse=   138 1.00D-06 EigRej= -1.00D+00 NBFU=   138
 Leave Link  302 at Wed Apr  1 08:05:36 2020, MaxMem=  2147483648 cpu:               1.3 elap:               0.1
 (Enter /usr/local/g16/g16/l303.exe)
 DipDrv:  MaxL=1.
 Leave Link  303 at Wed Apr  1 08:05:36 2020, MaxMem=  2147483648 cpu:               0.3 elap:               0.0
 (Enter /usr/local/g16/g16/l401.exe)
 ExpMin= 2.53D-02 ExpMax= 1.53D+04 ExpMxC= 5.22D+02 IAcc=3 IRadAn=         5 AccDes= 0.00D+00
 Harris functional with IExCor=  205 and IRadAn=       5 diagonalized for initial guess.
 HarFok:  IExCor=  205 AccDes= 0.00D+00 IRadAn=         5 IDoV= 1 UseB2=F ITyADJ=14
 ICtDFT=  3500011 ScaDFX=  1.000000  1.000000  1.000000  1.000000
 FoFCou: FMM=F IPFlag=           0 FMFlag=      100000 FMFlg1=           0
         NFxFlg=           0 DoJE=T BraDBF=F KetDBF=T FulRan=T
         wScrn=  0.000000 ICntrl=       500 IOpCl=  0 I1Cent=   200000004 NGrid=           0
         NMat0=    1 NMatS0=      1 NMatT0=    0 NMatD0=    1 NMtDS0=    0 NMtDT0=    0
 Petite list used in FoFCou.
 Harris En= -150.933656492420    
 JPrj=0 DoOrth=F DoCkMO=F.
 Leave Link  401 at Wed Apr  1 08:05:37 2020, MaxMem=  2147483648 cpu:               2.3 elap:               0.1
 (Enter /usr/local/g16/g16/l502.exe)
 Keep R1 ints in memory in canonical form, NReq=53860811.
 FoFCou: FMM=F IPFlag=           0 FMFlag=           0 FMFlg1=           0
         NFxFlg=           0 DoJE=F BraDBF=F KetDBF=F FulRan=T
         wScrn=  0.000000 ICntrl=       600 IOpCl=  0 I1Cent=           0 NGrid=           0
         NMat0=    1 NMatS0=   9591 NMatT0=    0 NMatD0=    1 NMtDS0=    0 NMtDT0=    0
 Symmetry not used in FoFCou.
 Two-electron integral symmetry not used.
 Closed shell SCF:
 Using DIIS extrapolation, IDIIS=  1040.
 NGot=  2147483648 LenX=  2101430001 LenY=  2101403960
 Requested convergence on RMS density matrix=1.00D-08 within 128 cycles.
 Requested convergence on MAX density matrix=1.00D-06.
 Requested convergence on             energy=1.00D-06.
 No special actions if energy rises.

 Cycle   1  Pass 1  IDiag  1:
 E= -150.772017472419    
 DIIS: error= 2.98D-02 at cycle   1 NSaved=   1.
 NSaved= 1 IEnMin= 1 EnMin= -150.772017472419     IErMin= 1 ErrMin= 2.98D-02
 ErrMax= 2.98D-02  0.00D+00 EMaxC= 1.00D-01 BMatC= 2.27D-01 BMatP= 2.27D-01
 IDIUse=3 WtCom= 7.02D-01 WtEn= 2.98D-01
 Coeff-Com:  0.100D+01
 Coeff-En:   0.100D+01
 Coeff:      0.100D+01
 Gap=     0.683 Goal=   None    Shift=    0.000
 GapD=    0.683 DampG=2.000 DampE=0.500 DampFc=1.0000 IDamp=-1.
 RMSDP=1.33D-03 MaxDP=2.91D-02              OVMax= 6.68D-02

 Cycle   2  Pass 1  IDiag  1:
 E= -150.824177676762     Delta-E=       -0.052160204343 Rises=F Damp=F
 DIIS: error= 1.03D-02 at cycle   2 NSaved=   2.
 NSaved= 2 IEnMin= 2 EnMin= -150.824177676762     IErMin= 2 ErrMin= 1.03D-02
 ErrMax= 1.03D-02  0.00D+00 EMaxC= 1.00D-01 BMatC= 1.52D-02 BMatP= 2.27D-01
 IDIUse=3 WtCom= 8.97D-01 WtEn= 1.03D-01
 Coeff-Com:  0.100D+00 0.900D+00
 Coeff-En:   0.000D+00 0.100D+01
 Coeff:      0.898D-01 0.910D+00
 Gap=     0.522 Goal=   None    Shift=    0.000
 RMSDP=6.60D-04 MaxDP=2.41D-02 DE=-5.22D-02 OVMax= 2.75D-02

 Cycle   3  Pass 1  IDiag  1:
 E= -150.831663654133     Delta-E=       -0.007485977370 Rises=F Damp=F
 DIIS: error= 4.77D-03 at cycle   3 NSaved=   3.
 NSaved= 3 IEnMin= 3 EnMin= -150.831663654133     IErMin= 3 ErrMin= 4.77D-03
[...]
 Symmetry not used in FoFCou.
 Two-electron integral symmetry not used.
 Closed shell SCF:
 Using DIIS extrapolation, IDIIS=  1040.
 NGot=  2147483648 LenX=  2101430001 LenY=  2101403960
 Requested convergence on RMS density matrix=1.00D-08 within 128 cycles.
 Requested convergence on MAX density matrix=1.00D-06.
 Requested convergence on             energy=1.00D-06.
 No special actions if energy rises.

 Cycle   1  Pass 1  IDiag  1:
 E= -150.833042011603    
 DIIS: error= 1.53D-10 at cycle   1 NSaved=   1.
 NSaved= 1 IEnMin= 1 EnMin= -150.833042011603     IErMin= 1 ErrMin= 1.53D-10
 ErrMax= 1.53D-10  0.00D+00 EMaxC= 1.00D-01 BMatC= 3.76D-18 BMatP= 3.76D-18
 IDIUse=1 WtCom= 1.00D+00 WtEn= 0.00D+00
 Coeff-Com:  0.100D+01
 Coeff:      0.100D+01
 Gap=     0.884 Goal=   None    Shift=    0.000
 RMSDP=1.10D-11 MaxDP=3.12D-10              OVMax= 6.70D-10

 SCF Done:  E(RHF) =  -150.833042012     A.U. after    1 cycles
            NFock=  1  Conv=0.11D-10     -V/T= 2.0021
 KE= 1.505166865495D+02 PE=-4.314499240622D+02 EE= 9.349826904982D+01
 Leave Link  502 at Wed Apr  1 09:21:14 2020, MaxMem=  2147483648 cpu:               7.3 elap:               0.5
 (Enter /usr/local/g16/g16/l801.exe)
 Windowed orbitals will be sorted by symmetry type.
 ExpMin= 2.53D-02 ExpMax= 1.53D+04 ExpMxC= 5.22D+02 IAcc=3 IRadAn=         5 AccDes= 0.00D+00
 HarFok:  IExCor=  205 AccDes= 0.00D+00 IRadAn=         5 IDoV=-2 UseB2=F ITyADJ=14
 ICtDFT= 12500011 ScaDFX=  1.000000  1.000000  1.000000  1.000000
 Largest valence mixing into a core orbital is  1.19D-04
 Largest core mixing into a valence orbital is  2.01D-05
 Range of M.O.s used for correlation:     3   138
 NBasis=   138 NAE=     9 NBE=     9 NFC=     2 NFV=     0
 NROrb=    136 NOA=     7 NOB=     7 NVA=   129 NVB=   129

 **** Warning!!: The largest alpha MO coefficient is  0.14338105D+02

 Leave Link  801 at Wed Apr  1 09:21:14 2020, MaxMem=  2147483648 cpu:               0.5 elap:               0.0
 (Enter /usr/local/g16/g16/l804.exe)
 Closed-shell transformation, MDV=  2147483648 ITran=4 ISComp=1.
 Semi-Direct transformation.
 ModeAB=           2 MOrb=             7 LenV=    2146849461
 LASXX=      8463147 LTotXX=     8463147 LenRXX=     8463147
 LTotAB=     8647912 MaxLAS=    12261760 LenRXY=    12261760
 NonZer=    16926294 LenScr=    26146816 LnRSAI=           0
 LnScr1=           0 LExtra=           0 Total=     46871723
 MaxDsk=          -1 SrtSym=           F ITran=            4
 DoSDTr:  NPSUse= 16
 JobTyp=0 Pass  1:  I=   1 to   7.
 (rs|ai) integrals will be sorted in core.
 Complete sort for first half transformation.
 First half transformation complete.
 Complete sort for second half transformation.
 Second half transformation complete.
 SymMOI:  orbitals are not symmetric.
 Spin components of T(2) and E(2):
     alpha-alpha T2 =       0.1590792162D-01 E2=     -0.6267264149D-01
     alpha-beta  T2 =       0.9288268282D-01 E2=     -0.3812495043D+00
     beta-beta   T2 =       0.1590792162D-01 E2=     -0.6267264149D-01
 ANorm=    0.1060518046D+01
 E2 =    -0.5065947872D+00 EUMP2 =    -0.15133963679884D+03
 Leave Link  804 at Wed Apr  1 09:21:16 2020, MaxMem=  2147483648 cpu:              27.8 elap:               1.7
 (Enter /usr/local/g16/g16/l913.exe)
 CIDS:  MDV=  2147483648.
 Frozen-core window:  NFC=   2 NFV=   0.
 IFCWin=0 IBDFC=1 NFBD=     0     0 NFCmp=     0     0 NFFFC=     0     0
 Using DD3R+UMP44R for 1st iteration.
 Using DD4RQ for 2nd and later iterations.
 Keep R2 and R3 ints in memory in canonical form, NReq=99863705.
 FoFCou: FMM=F IPFlag=           0 FMFlag=           0 FMFlg1=           0
         NFxFlg=           0 DoJE=F BraDBF=F KetDBF=F FulRan=T
         wScrn=  0.000000 ICntrl=       600 IOpCl=  0 I1Cent=           0 NGrid=           0
         NMat0=    1 NMatS0=   9591 NMatT0=    0 NMatD0=    1 NMtDS0=    0 NMtDT0=    0
 Symmetry not used in FoFCou.
 Two-electron integral symmetry not used.
 CIDS: In Core Option IDoMem=           1.
 MP4(SDTQ)
 =========
 Produce multiple copies of IABC intergrals
 DD1Dir will call FoFMem   1 times, MxPair=        56
 NAB=    28 NAA=     0 NBB=     0.
 MP4(D)= -0.11231163D-01
 MP4(S)= -0.51287438D-02
 MP4(R+Q)=  0.10693871D-01
 T4(AAA)= -0.65135041D-03
 T4(AAB)= -0.10182512D-01
 Time for triples=       94.05 seconds.
 MP4(T)=   -0.21667725D-01
 E3=       -0.22892646D-02        EUMP3=      -0.15134192606D+03
 E4(DQ)=   -0.53729250D-03        UMP4(DQ)=   -0.15134246336D+03
 E4(SDQ)=  -0.56660363D-02        UMP4(SDQ)=  -0.15134759210D+03
 E4(SDTQ)= -0.27333761D-01        UMP4(SDTQ)= -0.15136925982D+03
 VARIATIONAL ENERGIES WITH THE FIRST-ORDER WAVEFUNCTION:
 E(VAR1)=  -0.15128550464D+03     E(CISD,4)=  -0.15129511435D+03
 Largest amplitude= 3.16D-02
 Discarding MO integrals.
 Leave Link  913 at Wed Apr  1 09:21:23 2020, MaxMem=  2147483648 cpu:             117.0 elap:               7.3
 (Enter /usr/local/g16/g16/l122.exe)
 CPIOFr:  IOpCl= 0 IRwI=-1 IRwCP=  731 ICalc=  3 LCPTot=       59414 Len1MO=      159453 IndFrg=      697226
 Restoring MOs from calculation   5 to rwf and chk.
 CPIOFr:  IOpCl= 0 IRwI=-2 IRwCP=20731 ICalc=  4 LCPTot=       59414 Len1MO=      159453 IndFrg=      856679
 CPIOFr:  IOpCl= 0 IRwI= 4 IRwCP=20731 ICalc=  4 LCPTot=       59414 Len1MO=      159453 IndFrg=      856679
 Counterpoise: doing calculation for fragment   2 using the basis set of the fragment.
 Leave Link  122 at Wed Apr  1 09:21:23 2020, MaxMem=  2147483648 cpu:               0.0 elap:               0.0
 (Enter /usr/local/g16/g16/l301.exe)
 Basis read from rwf:  (5D, 7F)
 No pseudopotential information found on rwf file.
 There are    69 symmetry adapted cartesian basis functions of A   symmetry.
 There are    59 symmetry adapted basis functions of A   symmetry.
    59 basis functions,   217 primitive gaussians,    69 cartesian basis functions
    18 alpha electrons       18 beta electrons
       nuclear repulsion energy         0.0000000000 Hartrees.
 IExCor=    0 DFT=F Ex=HF Corr=None ExCW=0 ScaHFX=  1.000000
 ScaDFX=  1.000000  1.000000  1.000000  1.000000 ScalE2=  1.000000  1.000000
 IRadAn=      5 IRanWt=     -1 IRanGd=            0 ICorTp=0 IEmpDi=  4
 NAtoms=    5 NActive=    1 NUniq=    1 SFac= 1.00D+00 NAtFMM=   60 NAOKFM=F Big=F
 Integral buffers will be    131072 words long.
 Raffenetti 1 integral format.
 Two-electron integral symmetry is turned on.
 No density basis found on file   718.
 Leave Link  301 at Wed Apr  1 09:21:23 2020, MaxMem=  2147483648 cpu:               0.4 elap:               0.0
 (Enter /usr/local/g16/g16/l302.exe)
 NPDir=0 NMtPBC=     1 NCelOv=     1 NCel=       1 NClECP=     1 NCelD=      1
         NCelK=      1 NCelE2=     1 NClLst=     1 CellRange=     0.0.
 One-electron integrals computed using PRISM.
 One-electron integral symmetry used in STVInt
 NBasis=    59 RedAO= T EigKep=  1.06D-02  NBF=    59
 NBsUse=    59 1.00D-06 EigRej= -1.00D+00 NBFU=    59
 Leave Link  302 at Wed Apr  1 09:21:23 2020, MaxMem=  2147483648 cpu:               1.3 elap:               0.1
 (Enter /usr/local/g16/g16/l303.exe)
 DipDrv:  MaxL=1.
 Leave Link  303 at Wed Apr  1 09:21:23 2020, MaxMem=  2147483648 cpu:               0.3 elap:               0.0
 (Enter /usr/local/g16/g16/l401.exe)
 Initial guess from the checkpoint file:  "/mnt/driveB/scratch/matheus/Gau-93605.chk"
 B after Tr=    -0.062995    0.000431   -0.000044
         Rot=    1.000000    0.000000    0.000000    0.000000 Ang=   0.00 deg.
 Guess basis will be translated and rotated to current coordinates.
 JPrj=2 DoOrth=T DoCkMO=T.
 Generating alternative initial guess.
 ExpMin= 4.00D-02 ExpMax= 1.17D+07 ExpMxC= 1.33D+04 IAcc=3 IRadAn=         5 AccDes= 0.00D+00
 Harris functional with IExCor=  205 and IRadAn=       5 diagonalized for initial guess.
 HarFok:  IExCor=  205 AccDes= 0.00D+00 IRadAn=         5 IDoV= 1 UseB2=F ITyADJ=14
 ICtDFT=  3500011 ScaDFX=  1.000000  1.000000  1.000000  1.000000
 FoFCou: FMM=F IPFlag=           0 FMFlag=      100000 FMFlg1=           0
         NFxFlg=           0 DoJE=T BraDBF=F KetDBF=T FulRan=T
         wScrn=  0.000000 ICntrl=       500 IOpCl=  0 I1Cent=   200000004 NGrid=           0
         NMat0=    1 NMatS0=      1 NMatT0=    0 NMatD0=    1 NMtDS0=    0 NMtDT0=    0
 Petite list used in FoFCou.
 Harris En= -2751.05937170533    
 Leave Link  401 at Wed Apr  1 09:21:23 2020, MaxMem=  2147483648 cpu:               2.2 elap:               0.1
 (Enter /usr/local/g16/g16/l502.exe)
 Keep R1 ints in memory in canonical form, NReq=14291944.
 FoFCou: FMM=F IPFlag=           0 FMFlag=           0 FMFlg1=           0
         NFxFlg=           0 DoJE=F BraDBF=F KetDBF=F FulRan=T
         wScrn=  0.000000 ICntrl=       600 IOpCl=  0 I1Cent=           0 NGrid=           0
         NMat0=    1 NMatS0=   1770 NMatT0=    0 NMatD0=    1 NMtDS0=    0 NMtDT0=    0
 Symmetry not used in FoFCou.
 Two-electron integral symmetry not used.
 Closed shell SCF:
 Using DIIS extrapolation, IDIIS=  1040.
 NGot=  2147483648 LenX=  2145904888 LenY=  2145899686
 Requested convergence on RMS density matrix=1.00D-08 within 128 cycles.
 Requested convergence on MAX density matrix=1.00D-06.
 Requested convergence on             energy=1.00D-06.
 No special actions if energy rises.

 Cycle   1  Pass 1  IDiag  1:
 E= -2752.05222307625    
 DIIS: error= 1.57D-13 at cycle   1 NSaved=   1.
 NSaved= 1 IEnMin= 1 EnMin= -2752.05222307625     IErMin= 1 ErrMin= 1.57D-13
 ErrMax= 1.57D-13  0.00D+00 EMaxC= 1.00D-01 BMatC= 9.89D-25 BMatP= 9.89D-25
 IDIUse=1 WtCom= 1.00D+00 WtEn= 0.00D+00
 Coeff-Com:  0.100D+01
 Coeff:      0.100D+01
 Gap=     0.719 Goal=   None    Shift=    0.000
 RMSDP=7.59D-15 MaxDP=1.34D-13              OVMax= 8.61D-14

 SCF Done:  E(RHF) =  -2752.05222308     A.U. after    1 cycles
            NFock=  1  Conv=0.76D-14     -V/T= 2.0000
 KE= 2.752048106937D+03 PE=-6.582565276257D+03 EE= 1.078464946243D+03
 Leave Link  502 at Wed Apr  1 09:21:24 2020, MaxMem=  2147483648 cpu:               8.8 elap:               0.6
 (Enter /usr/local/g16/g16/l801.exe)
 Windowed orbitals will be sorted by symmetry type.
 ExpMin= 4.00D-02 ExpMax= 1.17D+07 ExpMxC= 1.33D+04 IAcc=3 IRadAn=         5 AccDes= 0.00D+00
 HarFok:  IExCor=  205 AccDes= 0.00D+00 IRadAn=         5 IDoV=-2 UseB2=F ITyADJ=14
 ICtDFT= 12500011 ScaDFX=  1.000000  1.000000  1.000000  1.000000
 Largest valence mixing into a core orbital is  9.79D-05
 Largest core mixing into a valence orbital is  3.83D-05
 Range of M.O.s used for correlation:    10    59
 NBasis=    59 NAE=    18 NBE=    18 NFC=     9 NFV=     0
 NROrb=     50 NOA=     9 NOB=     9 NVA=    41 NVB=    41
 Leave Link  801 at Wed Apr  1 09:21:24 2020, MaxMem=  2147483648 cpu:               0.4 elap:               0.0
 (Enter /usr/local/g16/g16/l804.exe)
 Closed-shell transformation, MDV=  2147483648 ITran=4 ISComp=1.
 Semi-Direct transformation.
 ModeAB=           2 MOrb=             9 LenV=    2147140326
 LASXX=       482211 LTotXX=      482211 LenRXX=      482211
 LTotAB=      511245 MaxLAS=     1086750 LenRXY=     1086750
 NonZer=     1162350 LenScr=     2357760 LnRSAI=           0
 LnScr1=           0 LExtra=           0 Total=      3926721
 MaxDsk=          -1 SrtSym=           F ITran=            4
 DoSDTr:  NPSUse= 16
 JobTyp=0 Pass  1:  I=   1 to   9.
 (rs|ai) integrals will be sorted in core.
 Complete sort for first half transformation.
 First half transformation complete.
 Complete sort for second half transformation.
 Second half transformation complete.
 SymMOI:  orbitals are not symmetric.
 Spin components of T(2) and E(2):
     alpha-alpha T2 =       0.9484485167D-02 E2=     -0.3552398032D-01
     alpha-beta  T2 =       0.4799866946D-01 E2=     -0.1708433112D+00
     beta-beta   T2 =       0.9484485167D-02 E2=     -0.3552398032D-01
 ANorm=    0.1032941257D+01
 E2 =    -0.2418912719D+00 EUMP2 =    -0.27522941143481D+04
 Leave Link  804 at Wed Apr  1 09:21:24 2020, MaxMem=  2147483648 cpu:               5.1 elap:               0.3
 (Enter /usr/local/g16/g16/l913.exe)
 CIDS:  MDV=  2147483648.
 Frozen-core window:  NFC=   9 NFV=   0.
 IFCWin=0 IBDFC=1 NFBD=     0     0 NFCmp=     0     0 NFFFC=     0     0
 Using DD3R+UMP44R for 1st iteration.
 Using DD4RQ for 2nd and later iterations.
 Keep R2 and R3 ints in memory in canonical form, NReq=15862484.
 FoFCou: FMM=F IPFlag=           0 FMFlag=           0 FMFlg1=           0
         NFxFlg=           0 DoJE=F BraDBF=F KetDBF=F FulRan=T
         wScrn=  0.000000 ICntrl=       600 IOpCl=  0 I1Cent=           0 NGrid=           0
         NMat0=    1 NMatS0=   1770 NMatT0=    0 NMatD0=    1 NMtDS0=    0 NMtDT0=    0
 Symmetry not used in FoFCou.
 Two-electron integral symmetry not used.
 CIDS: In Core Option IDoMem=           1.
 MP4(SDTQ)
 =========
 Produce multiple copies of IABC intergrals
 DD1Dir will call FoFMem   1 times, MxPair=        90
 NAB=    45 NAA=     0 NBB=     0.
 MP4(D)= -0.36913093D-02
 MP4(S)= -0.10734540D-02
 MP4(R+Q)=  0.42077927D-02
 T4(AAA)= -0.32336090D-03
 T4(AAB)= -0.35259699D-02
 Time for triples=        3.40 seconds.
 MP4(T)=   -0.76986616D-02
 E3=       -0.99406389D-02        EUMP3=      -0.27523040550D+04
 E4(DQ)=    0.51648341D-03        UMP4(DQ)=   -0.27523035385D+04
 E4(SDQ)=  -0.55697064D-03        UMP4(SDQ)=  -0.27523046120D+04
 E4(SDTQ)= -0.82556322D-02        UMP4(SDTQ)= -0.27523123106D+04
 VARIATIONAL ENERGIES WITH THE FIRST-ORDER WAVEFUNCTION:
 E(VAR1)=  -0.27522882489D+04     E(CISD,4)=  -0.27522926209D+04
 Largest amplitude= 1.91D-02
 Discarding MO integrals.
 Leave Link  913 at Wed Apr  1 09:21:25 2020, MaxMem=  2147483648 cpu:              13.5 elap:               0.8
 (Enter /usr/local/g16/g16/l122.exe)
 CPIOFr:  IOpCl= 0 IRwI=-1 IRwCP=  731 ICalc=  4 LCPTot=       59414 Len1MO=      159453 IndFrg=      856679
 Restoring MOs from calculation   1 to rwf.
 CPIOFr:  IOpCl= 0 IRwI=-2 IRwCP=  731 ICalc=  0 LCPTot=       59414 Len1MO=      159453 IndFrg=      218867
 Counterpoise corrected energy =   -2903.681820859208
                   BSSE energy =       0.000221649842
              sum of fragments =   -2903.681570443751
           complexation energy =      -0.30 kcal/mole (raw)
           complexation energy =      -0.16 kcal/mole (corrected)
 Leave Link  122 at Wed Apr  1 09:21:25 2020, MaxMem=  2147483648 cpu:               0.1 elap:               0.0
 (Enter /usr/local/g16/g16/l108.exe)
 Scan completed.
 
 Summary of the potential surface scan, energies are +2752 a.u.:
   N      R1          SCF          MP2          MP3         MP4DQ       MP4SDQ       MP4SDTQ  
 ----  ---------  -----------  -----------  -----------  -----------  -----------  -----------
    1     3.0000     -0.05222     -0.29411     -0.30405     -0.30354     -0.30461     -0.31231
    2     3.1000     -0.05222     -0.29411     -0.30405     -0.30354     -0.30461     -0.31231
    3     3.2000     -0.05222     -0.29411     -0.30405     -0.30354     -0.30461     -0.31231
    4     3.3000     -0.05222     -0.29411     -0.30405     -0.30354     -0.30461     -0.31231
    5     3.4000     -0.05222     -0.29411     -0.30405     -0.30354     -0.30461     -0.31231
    6     3.5000     -0.05222     -0.29411     -0.30405     -0.30354     -0.30461     -0.31231
    7     3.6000     -0.05222     -0.29411     -0.30405     -0.30354     -0.30461     -0.31231
    8     3.7000     -0.05222     -0.29411     -0.30405     -0.30354     -0.30461     -0.31231
    9     3.8000     -0.05222     -0.29411     -0.30405     -0.30354     -0.30461     -0.31231
   10     3.9000     -0.05222     -0.29411     -0.30405     -0.30354     -0.30461     -0.31231
   11     4.0000     -0.05222     -0.29411     -0.30405     -0.30354     -0.30461     -0.31231
   12     4.1000     -0.05222     -0.29411     -0.30405     -0.30354     -0.30461     -0.31231
   13     4.2000     -0.05222     -0.29411     -0.30405     -0.30354     -0.30461     -0.31231
   14     4.3000     -0.05222     -0.29411     -0.30405     -0.30354     -0.30461     -0.31231
   15     4.4000     -0.05222     -0.29411     -0.30405     -0.30354     -0.30461     -0.31231
   16     4.5000     -0.05222     -0.29411     -0.30405     -0.30354     -0.30461     -0.31231
   17     4.6000     -0.05222     -0.29411     -0.30405     -0.30354     -0.30461     -0.31231
   18     4.7000     -0.05222     -0.29411     -0.30405     -0.30354     -0.30461     -0.31231
   19     4.8000     -0.05222     -0.29411     -0.30405     -0.30354     -0.30461     -0.31231
   20     4.9000     -0.05222     -0.29411     -0.30405     -0.30354     -0.30461     -0.31231
   21     5.0000     -0.05222     -0.29411     -0.30405     -0.30354     -0.30461     -0.31231
 ----  ---------  -----------  -----------  -----------  -----------  -----------  -----------
  
 Leave Link  108 at Wed Apr  1 09:21:25 2020, MaxMem=  2147483648 cpu:               0.1 elap:               0.0
 (Enter /usr/local/g16/g16/l9999.exe)
 1\1\GINC-ARTHUR-MS-7B09\Scan\RMP4SDTQ-FC\Aug-CC-pVTZ\H2Kr1O2\MATHEUS\0
 1-Apr-2020\1\\#p mp4/aug-cc-PVTz int=ultrafine counterpoise=2 Scan\\PT
 CC\\0,1\O,0,0.,0.,0.725\O,0,0.,0.,-0.725\H,0,0.3142209495,-0.863314963
 4,1.0235104166\H,0,0.,0.9187205947,-1.0235104166\Kr,0,0.,R1,0.\\R1=3.,
 s,20,0.1\\Version=ES64L-G16RevA.03\HF=-2752.0522231,-2752.0522231,-275
 2.0522231,-2752.0522231,-2752.0522231,-2752.0522231,-2752.0522231,-275
 2.0522231,-2752.0522231,-2752.0522231,-2752.0522231,-2752.0522231,-275
 2.0522231,-2752.0522231,-2752.0522231,-2752.0522231,-2752.0522231,-275
 2.0522231,-2752.0522231,-2752.0522231,-2752.0522231\MP2=-2752.2941143,
 -2752.2941143,-2752.2941143,-2752.2941143,-2752.2941143,-2752.2941143,
 -2752.2941143,-2752.2941143,-2752.2941143,-2752.2941143,-2752.2941143,
 -2752.2941143,-2752.2941143,-2752.2941143,-2752.2941143,-2752.2941143,
 -2752.2941143,-2752.2941143,-2752.2941143,-2752.2941143,-2752.2941143\
 MP3=-2752.304055,-2752.304055,-2752.304055,-2752.304055,-2752.304055,-
 2752.304055,-2752.304055,-2752.304055,-2752.304055,-2752.304055,-2752.
 304055,-2752.304055,-2752.304055,-2752.304055,-2752.304055,-2752.30405
 5,-2752.304055,-2752.304055,-2752.304055,-2752.304055,-2752.304055\MP4
 D=-2752.3077463,-2752.3077463,-2752.3077463,-2752.3077463,-2752.307746
 3,-2752.3077463,-2752.3077463,-2752.3077463,-2752.3077463,-2752.307746
 3,-2752.3077463,-2752.3077463,-2752.3077463,-2752.3077463,-2752.307746
 3,-2752.3077463,-2752.3077463,-2752.3077463,-2752.3077463,-2752.307746
 3,-2752.3077463\MP4DQ=-2752.3035385,-2752.3035385,-2752.3035385,-2752.
 3035385,-2752.3035385,-2752.3035385,-2752.3035385,-2752.3035385,-2752.
 3035385,-2752.3035385,-2752.3035385,-2752.3035385,-2752.3035385,-2752.
 3035385,-2752.3035385,-2752.3035385,-2752.3035385,-2752.3035385,-2752.
 3035385,-2752.3035385,-2752.3035385\MP4SDQ=-2752.304612,-2752.304612,-
 2752.304612,-2752.304612,-2752.304612,-2752.304612,-2752.304612,-2752.
 304612,-2752.304612,-2752.304612,-2752.304612,-2752.304612,-2752.30461
 2,-2752.304612,-2752.304612,-2752.304612,-2752.304612,-2752.304612,-27
 52.304612,-2752.304612,-2752.304612\MP4SDTQ=-2752.3123106,-2752.312310
 6,-2752.3123106,-2752.3123106,-2752.3123106,-2752.3123106,-2752.312310
 6,-2752.3123106,-2752.3123106,-2752.3123106,-2752.3123106,-2752.312310
 6,-2752.3123106,-2752.3123106,-2752.3123106,-2752.3123106,-2752.312310
 6,-2752.3123106,-2752.3123106,-2752.3123106,-2752.3123106\RMSD=9.887e-
 10,1.149e-10,2.884e-11,7.211e-12,1.871e-12,4.672e-13,1.339e-13,3.213e-
 14,1.634e-14,7.589e-15,7.735e-15,1.848e-14,1.610e-14,5.972e-15,6.999e-
 15,8.138e-15,1.024e-14,1.023e-14,1.038e-14,9.806e-15,7.590e-15\PG=C01 
 [X(H2Kr1O2)]\\@


 IF YOU GET CONFUSED, LOGIC OUT YOUR DILEMMA

           --  PICKER X-RAY CORP.    DIGITAL PRINTER MANUAL CA. 1964
 Job cpu time:       0 days 20 hours 41 minutes  4.5 seconds.
 Elapsed time:       0 days  1 hours 18 minutes 46.7 seconds.
 File lengths (MBytes):  RWF=   4073 Int=      0 D2E=      0 Chk=     12 Scr=      1
 Normal termination of Gaussian 16 at Wed Apr  1 09:21:26 2020.
