 Entering Gaussian System, Link 0=g09
 Input=/home/matheus/.tcc/Inputs-wb97xd/H2O2-Kr_26.com
 Output=/home/matheus/.tcc/Logs-wb97xd/H2O2-Kr_26.log
 Initial command:
 /home/matheus/.gaussian/g09/l1.exe /home/matheus/.gaussian/g09/scratch/Gau-22200.inp -scrdir=/home/matheus/.gaussian/g09/scratch/
 Entering Link 1 = /home/matheus/.gaussian/g09/l1.exe PID=     22203.
  
 Copyright (c) 1988,1990,1992,1993,1995,1998,2003,2009,2011,
            Gaussian, Inc.  All Rights Reserved.
  
 This is part of the Gaussian(R) 09 program.  It is based on
 the Gaussian(R) 03 system (copyright 2003, Gaussian, Inc.),
 the Gaussian(R) 98 system (copyright 1998, Gaussian, Inc.),
 the Gaussian(R) 94 system (copyright 1995, Gaussian, Inc.),
 the Gaussian 92(TM) system (copyright 1992, Gaussian, Inc.),
 the Gaussian 90(TM) system (copyright 1990, Gaussian, Inc.),
 the Gaussian 88(TM) system (copyright 1988, Gaussian, Inc.),
 the Gaussian 86(TM) system (copyright 1986, Carnegie Mellon
 University), and the Gaussian 82(TM) system (copyright 1983,
 Carnegie Mellon University). Gaussian is a federally registered
 trademark of Gaussian, Inc.
  
 This software contains proprietary and confidential information,
 including trade secrets, belonging to Gaussian, Inc.
  
 This software is provided under written license and may be
 used, copied, transmitted, or stored only in accord with that
 written license.
  
 The following legend is applicable only to US Government
 contracts under FAR:
  
                    RESTRICTED RIGHTS LEGEND
  
 Use, reproduction and disclosure by the US Government is
 subject to restrictions as set forth in subparagraphs (a)
 and (c) of the Commercial Computer Software - Restricted
 Rights clause in FAR 52.227-19.
  
 Gaussian, Inc.
 340 Quinnipiac St., Bldg. 40, Wallingford CT 06492
  
  
 ---------------------------------------------------------------
 Warning -- This program may not be used in any manner that
 competes with the business of Gaussian, Inc. or will provide
 assistance to any competitor of Gaussian, Inc.  The licensee
 of this program is prohibited from giving any competitor of
 Gaussian, Inc. access to this program.  By using this program,
 the user acknowledges that Gaussian, Inc. is engaged in the
 business of creating and licensing software in the field of
 computational chemistry and represents and warrants to the
 licensee that it is not a competitor of Gaussian, Inc. and that
 it will not use this program in any manner prohibited above.
 ---------------------------------------------------------------
  

 Cite this work as:
 Gaussian 09, Revision C.01,
 M. J. Frisch, G. W. Trucks, H. B. Schlegel, G. E. Scuseria, 
 M. A. Robb, J. R. Cheeseman, G. Scalmani, V. Barone, B. Mennucci, 
 G. A. Petersson, H. Nakatsuji, M. Caricato, X. Li, H. P. Hratchian, 
 A. F. Izmaylov, J. Bloino, G. Zheng, J. L. Sonnenberg, M. Hada, 
 M. Ehara, K. Toyota, R. Fukuda, J. Hasegawa, M. Ishida, T. Nakajima, 
 Y. Honda, O. Kitao, H. Nakai, T. Vreven, J. A. Montgomery, Jr., 
 J. E. Peralta, F. Ogliaro, M. Bearpark, J. J. Heyd, E. Brothers, 
 K. N. Kudin, V. N. Staroverov, T. Keith, R. Kobayashi, J. Normand, 
 K. Raghavachari, A. Rendell, J. C. Burant, S. S. Iyengar, J. Tomasi, 
 M. Cossi, N. Rega, J. M. Millam, M. Klene, J. E. Knox, J. B. Cross, 
 V. Bakken, C. Adamo, J. Jaramillo, R. Gomperts, R. E. Stratmann, 
 O. Yazyev, A. J. Austin, R. Cammi, C. Pomelli, J. W. Ochterski, 
 R. L. Martin, K. Morokuma, V. G. Zakrzewski, G. A. Voth, 
 P. Salvador, J. J. Dannenberg, S. Dapprich, A. D. Daniels, 
 O. Farkas, J. B. Foresman, J. V. Ortiz, J. Cioslowski, 
 and D. J. Fox, Gaussian, Inc., Wallingford CT, 2010.
 
 ******************************************
 Gaussian 09:  EM64L-G09RevC.01 23-Sep-2011
                16-Apr-2020 
 ******************************************
 %mem=8GB
 %nproc=8
 Will use up to    8 processors via shared memory.
 ----------------------------------------------------------------------
 #p wb97xd/aug-cc-PVTz iop(3/107=0250000000) iop(3/108=0250000000) int=
 ultrafine Scan
 ----------------------------------------------------------------------
 1/38=1,60=1/1,8;
 2/12=2,17=6,18=5,29=3,40=1/2;
 3/5=16,6=1,7=10,11=2,16=1,25=1,30=1,74=-58,75=-5,107=250000000,108=250000000/1,2,3;
 4//1;
 5/5=2,38=5/2;
 6/7=2,8=2,9=2,10=2,18=1,28=1/1;
 1/60=1/8(1);
 99/9=1/99;
 2/29=3/2;
 3/5=16,6=1,7=10,11=2,16=1,25=1,30=1,74=-58,75=-5,107=250000000,108=250000000/1,2,3;
 4/5=5,16=3/1;
 5/5=2,38=5/2;
 1/60=1/8(-4);
 99/9=1/99;
 Leave Link    1 at Thu Apr 16 12:54:29 2020, MaxMem= 1073741824 cpu:       0.1
 (Enter /home/matheus/.gaussian/g09/l101.exe)
 ---
 TCC
 ---
 Charge =  0 Multiplicity = 1
 Symbolic Z-Matrix:
 O                     0.        0.        0.725 
 O                     0.        0.       -0.725 
 H                    -0.90476  -0.15953   1.02351 
 H                     0.        0.91872  -1.02351 
 Kr                    0.       R1        0. 
       Variables:
  R1                    3.     Scan 20    0.1    
 
 NAtoms=      5 NQM=        0 NQMF=       0 NMMI=      5 NMMIF=      0
                NMic=       0 NMicF=      0.
                    Isotopes and Nuclear Properties:
 (Nuclear quadrupole moments (NQMom) in fm**2, nuclear magnetic moments (NMagM)
  in nuclear magnetons)

  Atom         1           2           3           4           5
 IAtWgt=          16          16           1           1          84
 AtmWgt=  15.9949146  15.9949146   1.0078250   1.0078250  83.9115064
 NucSpn=           0           0           1           1           0
 AtZEff=   0.0000000   0.0000000   0.0000000   0.0000000   0.0000000
 NQMom=    0.0000000   0.0000000   0.0000000   0.0000000   0.0000000
 NMagM=    0.0000000   0.0000000   2.7928460   2.7928460   0.0000000
 Leave Link  101 at Thu Apr 16 12:54:29 2020, MaxMem= 1073741824 cpu:       0.3
 (Enter /home/matheus/.gaussian/g09/l108.exe)
 Scan the potential surface.
 Variable   Value     No. Steps Step-Size
 -------- ----------- --------- ---------
     1       3.000000      20      0.1000
 A total of     21 points will be computed.
 Leave Link  108 at Thu Apr 16 12:54:29 2020, MaxMem= 1073741824 cpu:       0.0
 (Enter /home/matheus/.gaussian/g09/l202.exe)
 ---------------------------------------------------------------------------------------------------
                            Z-MATRIX (ANGSTROMS AND DEGREES)
   CD    Cent   Atom    N1       Length/X        N2       Alpha/Y        N3        Beta/Z          J
 ---------------------------------------------------------------------------------------------------
      1      1  O        0   0.000000          0.000000          0.725000
      2      2  O        0   0.000000          0.000000         -0.725000
      3      3  H        0  -0.904763         -0.159534          1.023510
      4      4  H        0   0.000000          0.918721         -1.023510
      5      5  Kr       0   0.000000          3.000000          0.000000
 ---------------------------------------------------------------------------------------------------
                         Z-Matrix orientation:                         
 ---------------------------------------------------------------------
 Center     Atomic      Atomic             Coordinates (Angstroms)
 Number     Number       Type             X           Y           Z
 ---------------------------------------------------------------------
      1          8           0        0.000000    0.000000    0.725000
      2          8           0        0.000000    0.000000   -0.725000
      3          1           0       -0.904763   -0.159534    1.023510
      4          1           0        0.000000    0.918721   -1.023510
      5         36           0        0.000000    3.000000    0.000000
 ---------------------------------------------------------------------
                    Distance matrix (angstroms):
                    1          2          3          4          5
     1  O    0.000000
     2  O    1.450000   0.000000
     3  H    0.966000   1.975180   0.000000
     4  H    1.975180   0.966000   2.484255   0.000000
     5  Kr   3.086361   3.086361   3.442212   2.319331   0.000000
 Stoichiometry    H2KrO2
 Framework group  C1[X(H2KrO2)]
 Deg. of freedom     9
 Full point group                 C1      NOp   1
 Largest Abelian subgroup         C1      NOp   1
 Largest concise Abelian subgroup C1      NOp   1
                         Standard orientation:                         
 ---------------------------------------------------------------------
 Center     Atomic      Atomic             Coordinates (Angstroms)
 Number     Number       Type             X           Y           Z
 ---------------------------------------------------------------------
      1          8           0       -2.021768   -0.693300   -0.118861
      2          8           0       -2.004728    0.750466    0.014370
      3          1           0       -2.201795   -1.071309    0.751687
      4          1           0       -1.082725    1.035355    0.058021
      5         36           0        0.986014   -0.011705    0.000728
 ---------------------------------------------------------------------
 Rotational constants (GHZ):     25.6313314      2.3378634      2.1561704
 Leave Link  202 at Thu Apr 16 12:54:29 2020, MaxMem= 1073741824 cpu:       0.0
 (Enter /home/matheus/.gaussian/g09/l301.exe)
 Standard basis: Aug-CC-pVTZ (5D, 7F)
 Ernie: Thresh=  0.10000D-02 Tol=  0.10000D-05 Strict=F.
 Ernie:  38 primitive shells out of 205 were deleted.
 There are   197 symmetry adapted basis functions of A   symmetry.
 Integral buffers will be    131072 words long.
 Raffenetti 2 integral format.
 Two-electron integral symmetry is turned on.
   197 basis functions,   415 primitive gaussians,   229 cartesian basis functions
    27 alpha electrons       27 beta electrons
       nuclear repulsion energy       149.1283769891 Hartrees.
 IExCor= 4639 DFT=T Ex+Corr=wB97XD ExCW=0 ScaHFX=  1.000000
 ScaDFX=  1.000000  1.000000  1.000000  1.000000 ScalE2=  1.000000  1.000000
 IRadAn=      5 IRanWt=     -1 IRanGd=            0 ICorTp=0
  HFx wShort=  0.000000 wLong=  0.250000 cFull=  0.222036 cShort=  0.000000 cLong=  0.777964
  DFx wShort=  0.000000 wLong=  0.250000 cFull=  0.000000 cShort=  0.000000 cLong=  1.000000
 NAtoms=    5 NActive=    5 NUniq=    5 SFac= 1.00D+00 NAtFMM=   60 NAOKFM=F Big=F
 R6Disp: Dispersion energy =        -0.0009223841 Hartrees.
 Nuclear repulsion after empirical dispersion term =      149.1274546049 Hartrees.
 Leave Link  301 at Thu Apr 16 12:54:29 2020, MaxMem= 1073741824 cpu:       0.2
 (Enter /home/matheus/.gaussian/g09/l302.exe)
 NPDir=0 NMtPBC=     1 NCelOv=     1 NCel=       1 NClECP=     1 NCelD=      1
         NCelK=      1 NCelE2=     1 NClLst=     1 CellRange=     0.0.
 One-electron integrals computed using PRISM.
 NBasis=   197 RedAO= T  NBF=   197
 NBsUse=   197 1.00D-06 NBFU=   197
 Precomputing XC quadrature grid using
 IXCGrd= 2 IRadAn=           5 IRanWt=          -1 IRanGd=           0 AccXCQ= 0.00D+00.
 NRdTot=     427 NPtTot=      123512 NUsed=      126579 NTot=      126611
 NSgBfM=   229   229   229   229   229 NAtAll=     5     5.
 Leave Link  302 at Thu Apr 16 12:54:29 2020, MaxMem= 1073741824 cpu:       0.9
 (Enter /home/matheus/.gaussian/g09/l303.exe)
 DipDrv:  MaxL=1.
 Leave Link  303 at Thu Apr 16 12:54:29 2020, MaxMem= 1073741824 cpu:       0.2
 (Enter /home/matheus/.gaussian/g09/l401.exe)
 Harris functional with IExCor= 4639 diagonalized for initial guess.
 ExpMin= 2.53D-02 ExpMax= 1.17D+07 ExpMxC= 1.33D+04 IAcc=3 IRadAn=         5 AccDes= 0.00D+00
 HarFok:  IExCor= 4639 AccDes= 0.00D+00 IRadAn=         5 IDoV= 1
 ScaDFX=  1.000000  1.000000  1.000000  1.000000
 FoFCou: FMM=F IPFlag=           0 FMFlag=      100000 FMFlg1=           0
         NFxFlg=           0 DoJE=T BraDBF=F KetDBF=T FulRan=T
         Omega=  0.000000  0.000000  1.000000  0.000000  0.000000 ICntrl=     500 IOpCl=  0
         NMat0=    1 NMatS0=    1 NMatT0=    0 NMatD0=    1 NMtDS0=    0 NMtDT0=    0
         I1Cent=           4 NGrid=           0.
 Petite list used in FoFCou.
 Harris En= -2875.39794380182    
 Initial guess orbital symmetries:
       Occupied  (A) (A) (A) (A) (A) (A) (A) (A) (A) (A) (A) (A)
                 (A) (A) (A) (A) (A) (A) (A) (A) (A) (A) (A) (A)
                 (A) (A) (A)
       Virtual   (A) (A) (A) (A) (A) (A) (A) (A) (A) (A) (A) (A)
                 (A) (A) (A) (A) (A) (A) (A) (A) (A) (A) (A) (A)
                 (A) (A) (A) (A) (A) (A) (A) (A) (A) (A) (A) (A)
                 (A) (A) (A) (A) (A) (A) (A) (A) (A) (A) (A) (A)
                 (A) (A) (A) (A) (A) (A) (A) (A) (A) (A) (A) (A)
                 (A) (A) (A) (A) (A) (A) (A) (A) (A) (A) (A) (A)
                 (A) (A) (A) (A) (A) (A) (A) (A) (A) (A) (A) (A)
                 (A) (A) (A) (A) (A) (A) (A) (A) (A) (A) (A) (A)
                 (A) (A) (A) (A) (A) (A) (A) (A) (A) (A) (A) (A)
                 (A) (A) (A) (A) (A) (A) (A) (A) (A) (A) (A) (A)
                 (A) (A) (A) (A) (A) (A) (A) (A) (A) (A) (A) (A)
                 (A) (A) (A) (A) (A) (A) (A) (A) (A) (A) (A) (A)
                 (A) (A) (A) (A) (A) (A) (A) (A) (A) (A) (A) (A)
                 (A) (A) (A) (A) (A) (A) (A) (A) (A) (A) (A) (A)
                 (A) (A)
 The electronic state of the initial guess is 1-A.
 Leave Link  401 at Thu Apr 16 12:54:29 2020, MaxMem= 1073741824 cpu:       3.9
 (Enter /home/matheus/.gaussian/g09/l502.exe)
 Closed shell SCF:
 Requested convergence on RMS density matrix=1.00D-08 within 128 cycles.
 Requested convergence on MAX density matrix=1.00D-06.
 Requested convergence on             energy=1.00D-06.
 No special actions if energy rises.
 Using DIIS extrapolation, IDIIS=  1040.
 Integral symmetry usage will be decided dynamically.
       126521 words used for storage of precomputed grid.
 IEnd=      305468 IEndB=      305468 NGot=  1073741824 MDV=  1073505667
 LenX=  1073505667 LenY=  1073452785
 Fock matrices will be formed incrementally for  20 cycles.

 Cycle   1  Pass 1  IDiag  1:
 FoFJK:  IHMeth= 1 ICntrl=     0 DoSepK=T KAlg= 1 I1Cent= 0 FoldK=F
 FoFCou: FMM=F IPFlag=           0 FMFlag=      100000 FMFlg1=           0
         NFxFlg=           0 DoJE=T BraDBF=F KetDBF=F FulRan=T
         Omega=  0.000000  0.000000  1.000000  0.000000  0.000000 ICntrl=     500 IOpCl=  0
         NMat0=    1 NMatS0=    1 NMatT0=    0 NMatD0=    1 NMtDS0=    0 NMtDT0=    0
         I1Cent=           0 NGrid=           0.
 Symmetry not used in FoFCou.
 E= -2904.90311295237    
 DIIS: error= 6.04D-02 at cycle   1 NSaved=   1.
 NSaved= 1 IEnMin= 1 EnMin= -2904.90311295237     IErMin= 1 ErrMin= 6.04D-02
 ErrMax= 6.04D-02 EMaxC= 1.00D-01 BMatC= 2.22D+00 BMatP= 2.22D+00
 IDIUse=3 WtCom= 3.96D-01 WtEn= 6.04D-01
 Coeff-Com:  0.100D+01
 Coeff-En:   0.100D+01
 Coeff:      0.100D+01
 Gap=     0.562 Goal=   None    Shift=    0.000
 GapD=    0.562 DampG=2.000 DampE=0.500 DampFc=1.0000 IDamp=-1.
 RMSDP=6.12D-03 MaxDP=3.66D-01              OVMax= 1.82D-01

 Cycle   2  Pass 1  IDiag  1:
 RMSU=  4.30D-03    CP:  1.03D+00
 FoFJK:  IHMeth= 1 ICntrl=     0 DoSepK=T KAlg= 1 I1Cent= 0 FoldK=F
 E= -2905.22329643688     Delta-E=       -0.320183484508 Rises=F Damp=F
 DIIS: error= 2.89D-02 at cycle   2 NSaved=   2.
 NSaved= 2 IEnMin= 2 EnMin= -2905.22329643688     IErMin= 2 ErrMin= 2.89D-02
 ErrMax= 2.89D-02 EMaxC= 1.00D-01 BMatC= 5.66D-01 BMatP= 2.22D+00
 IDIUse=3 WtCom= 7.11D-01 WtEn= 2.89D-01
 Coeff-Com:  0.328D+00 0.672D+00
 Coeff-En:   0.198D+00 0.802D+00
 Coeff:      0.291D+00 0.709D+00
 Gap=     0.509 Goal=   None    Shift=    0.000
 RMSDP=2.67D-03 MaxDP=1.56D-01 DE=-3.20D-01 OVMax= 7.37D-02

 Cycle   3  Pass 1  IDiag  1:
 RMSU=  5.61D-04    CP:  1.02D+00  5.83D-01
 FoFJK:  IHMeth= 1 ICntrl=     0 DoSepK=T KAlg= 1 I1Cent= 0 FoldK=F
 E= -2905.41844510206     Delta-E=       -0.195148665184 Rises=F Damp=F
 DIIS: error= 6.46D-03 at cycle   3 NSaved=   3.
 NSaved= 3 IEnMin= 3 EnMin= -2905.41844510206     IErMin= 3 ErrMin= 6.46D-03
 ErrMax= 6.46D-03 EMaxC= 1.00D-01 BMatC= 1.75D-02 BMatP= 5.66D-01
 IDIUse=3 WtCom= 9.35D-01 WtEn= 6.46D-02
 Coeff-Com:  0.349D-01 0.186D+00 0.779D+00
 Coeff-En:   0.000D+00 0.000D+00 0.100D+01
 Coeff:      0.326D-01 0.174D+00 0.793D+00
 Gap=     0.457 Goal=   None    Shift=    0.000
 RMSDP=4.70D-04 MaxDP=1.89D-02 DE=-1.95D-01 OVMax= 2.58D-02

 Cycle   4  Pass 1  IDiag  1:
 RMSU=  2.30D-04    CP:  1.02D+00  6.38D-01  9.05D-01
 FoFJK:  IHMeth= 1 ICntrl=     0 DoSepK=T KAlg= 1 I1Cent= 0 FoldK=F
 E= -2905.42647567799     Delta-E=       -0.008030575926 Rises=F Damp=F
 DIIS: error= 2.44D-03 at cycle   4 NSaved=   4.
 NSaved= 4 IEnMin= 4 EnMin= -2905.42647567799     IErMin= 4 ErrMin= 2.44D-03
 ErrMax= 2.44D-03 EMaxC= 1.00D-01 BMatC= 1.80D-03 BMatP= 1.75D-02
 IDIUse=3 WtCom= 9.76D-01 WtEn= 2.44D-02
 Coeff-Com: -0.236D-02 0.463D-01 0.370D+00 0.586D+00
 Coeff-En:   0.000D+00 0.000D+00 0.000D+00 0.100D+01
 Coeff:     -0.230D-02 0.452D-01 0.361D+00 0.596D+00
 Gap=     0.442 Goal=   None    Shift=    0.000
 RMSDP=1.20D-04 MaxDP=6.86D-03 DE=-8.03D-03 OVMax= 6.84D-03

 Cycle   5  Pass 1  IDiag  1:
 RMSU=  4.03D-05    CP:  1.02D+00  6.36D-01  9.53D-01  7.04D-01
 FoFJK:  IHMeth= 1 ICntrl=     0 DoSepK=T KAlg= 1 I1Cent= 0 FoldK=F
 E= -2905.42756141439     Delta-E=       -0.001085736410 Rises=F Damp=F
 DIIS: error= 2.32D-04 at cycle   5 NSaved=   5.
 NSaved= 5 IEnMin= 5 EnMin= -2905.42756141439     IErMin= 5 ErrMin= 2.32D-04
 ErrMax= 2.32D-04 EMaxC= 1.00D-01 BMatC= 2.30D-05 BMatP= 1.80D-03
 IDIUse=3 WtCom= 9.98D-01 WtEn= 2.32D-03
 Coeff-Com: -0.142D-02 0.950D-02 0.959D-01 0.175D+00 0.721D+00
 Coeff-En:   0.000D+00 0.000D+00 0.000D+00 0.000D+00 0.100D+01
 Coeff:     -0.142D-02 0.947D-02 0.957D-01 0.174D+00 0.722D+00
 Gap=     0.441 Goal=   None    Shift=    0.000
 RMSDP=2.23D-05 MaxDP=9.92D-04 DE=-1.09D-03 OVMax= 1.42D-03

 Cycle   6  Pass 1  IDiag  1:
 RMSU=  1.41D-05    CP:  1.02D+00  6.36D-01  9.61D-01  7.21D-01  1.09D+00
 FoFJK:  IHMeth= 1 ICntrl=     0 DoSepK=T KAlg= 1 I1Cent= 0 FoldK=F
 E= -2905.42757325411     Delta-E=       -0.000011839719 Rises=F Damp=F
 DIIS: error= 1.55D-04 at cycle   6 NSaved=   6.
 NSaved= 6 IEnMin= 6 EnMin= -2905.42757325411     IErMin= 6 ErrMin= 1.55D-04
 ErrMax= 1.55D-04 EMaxC= 1.00D-01 BMatC= 1.02D-05 BMatP= 2.30D-05
 IDIUse=3 WtCom= 9.98D-01 WtEn= 1.55D-03
 Coeff-Com: -0.262D-03-0.603D-02-0.342D-01-0.462D-01 0.409D+00 0.678D+00
 Coeff-En:   0.000D+00 0.000D+00 0.000D+00 0.000D+00 0.197D+00 0.803D+00
 Coeff:     -0.262D-03-0.602D-02-0.342D-01-0.461D-01 0.409D+00 0.678D+00
 Gap=     0.441 Goal=   None    Shift=    0.000
 RMSDP=1.23D-05 MaxDP=4.62D-04 DE=-1.18D-05 OVMax= 6.90D-04

 Cycle   7  Pass 1  IDiag  1:
 RMSU=  3.67D-06    CP:  1.02D+00  6.36D-01  9.68D-01  7.29D-01  1.24D+00
                    CP:  8.20D-01
 FoFJK:  IHMeth= 1 ICntrl=     0 DoSepK=T KAlg= 1 I1Cent= 0 FoldK=F
 E= -2905.42758073035     Delta-E=       -0.000007476239 Rises=F Damp=F
 DIIS: error= 1.38D-05 at cycle   7 NSaved=   7.
 NSaved= 7 IEnMin= 7 EnMin= -2905.42758073035     IErMin= 7 ErrMin= 1.38D-05
 ErrMax= 1.38D-05 EMaxC= 1.00D-01 BMatC= 8.18D-08 BMatP= 1.02D-05
 IDIUse=1 WtCom= 1.00D+00 WtEn= 0.00D+00
 Coeff-Com:  0.278D-04-0.111D-02-0.816D-02-0.122D-01-0.336D-03 0.694D-01
 Coeff-Com:  0.952D+00
 Coeff:      0.278D-04-0.111D-02-0.816D-02-0.122D-01-0.336D-03 0.694D-01
 Coeff:      0.952D+00
 Gap=     0.441 Goal=   None    Shift=    0.000
 RMSDP=2.47D-06 MaxDP=8.03D-05 DE=-7.48D-06 OVMax= 2.07D-04

 Cycle   8  Pass 1  IDiag  1:
 RMSU=  8.37D-07    CP:  1.02D+00  6.36D-01  9.69D-01  7.31D-01  1.26D+00
                    CP:  8.72D-01  1.19D+00
 FoFJK:  IHMeth= 1 ICntrl=     0 DoSepK=T KAlg= 1 I1Cent= 0 FoldK=F
 E= -2905.42758089256     Delta-E=       -0.000000162204 Rises=F Damp=F
 DIIS: error= 3.86D-06 at cycle   8 NSaved=   8.
 NSaved= 8 IEnMin= 8 EnMin= -2905.42758089256     IErMin= 8 ErrMin= 3.86D-06
 ErrMax= 3.86D-06 EMaxC= 1.00D-01 BMatC= 4.91D-09 BMatP= 8.18D-08
 IDIUse=1 WtCom= 1.00D+00 WtEn= 0.00D+00
 Coeff-Com:  0.152D-04 0.255D-03 0.137D-02 0.158D-02-0.233D-01-0.328D-01
 Coeff-Com:  0.265D-01 0.103D+01
 Coeff:      0.152D-04 0.255D-03 0.137D-02 0.158D-02-0.233D-01-0.328D-01
 Coeff:      0.265D-01 0.103D+01
 Gap=     0.441 Goal=   None    Shift=    0.000
 RMSDP=7.24D-07 MaxDP=1.75D-05 DE=-1.62D-07 OVMax= 7.92D-05

 Cycle   9  Pass 1  IDiag  1:
 RMSU=  2.42D-07    CP:  1.02D+00  6.36D-01  9.69D-01  7.31D-01  1.27D+00
                    CP:  8.81D-01  1.27D+00  1.30D+00
 FoFJK:  IHMeth= 1 ICntrl=     0 DoSepK=T KAlg= 1 I1Cent= 0 FoldK=F
 E= -2905.42758090721     Delta-E=       -0.000000014653 Rises=F Damp=F
 DIIS: error= 1.44D-06 at cycle   9 NSaved=   9.
 NSaved= 9 IEnMin= 9 EnMin= -2905.42758090721     IErMin= 9 ErrMin= 1.44D-06
 ErrMax= 1.44D-06 EMaxC= 1.00D-01 BMatC= 4.46D-10 BMatP= 4.91D-09
 IDIUse=1 WtCom= 1.00D+00 WtEn= 0.00D+00
 Coeff-Com: -0.218D-05 0.682D-04 0.513D-03 0.595D-03 0.566D-03-0.229D-02
 Coeff-Com: -0.568D-01-0.886D-01 0.115D+01
 Coeff:     -0.218D-05 0.682D-04 0.513D-03 0.595D-03 0.566D-03-0.229D-02
 Coeff:     -0.568D-01-0.886D-01 0.115D+01
 Gap=     0.441 Goal=   None    Shift=    0.000
 RMSDP=2.66D-07 MaxDP=7.19D-06 DE=-1.47D-08 OVMax= 3.51D-05

 Cycle  10  Pass 1  IDiag  1:
 RMSU=  8.56D-08    CP:  1.02D+00  6.36D-01  9.69D-01  7.31D-01  1.27D+00
                    CP:  8.83D-01  1.28D+00  1.42D+00  1.45D+00
 FoFJK:  IHMeth= 1 ICntrl=     0 DoSepK=T KAlg= 1 I1Cent= 0 FoldK=F
 E= -2905.42758090900     Delta-E=       -0.000000001790 Rises=F Damp=F
 DIIS: error= 4.13D-07 at cycle  10 NSaved=  10.
 NSaved=10 IEnMin=10 EnMin= -2905.42758090900     IErMin=10 ErrMin= 4.13D-07
 ErrMax= 4.13D-07 EMaxC= 1.00D-01 BMatC= 5.58D-11 BMatP= 4.46D-10
 IDIUse=1 WtCom= 1.00D+00 WtEn= 0.00D+00
 Coeff-Com: -0.742D-06-0.170D-04-0.989D-04-0.105D-03 0.198D-02 0.298D-02
 Coeff-Com:  0.646D-03-0.120D+00 0.103D+00 0.101D+01
 Coeff:     -0.742D-06-0.170D-04-0.989D-04-0.105D-03 0.198D-02 0.298D-02
 Coeff:      0.646D-03-0.120D+00 0.103D+00 0.101D+01
 Gap=     0.441 Goal=   None    Shift=    0.000
 RMSDP=8.68D-08 MaxDP=2.00D-06 DE=-1.79D-09 OVMax= 1.23D-05

 Cycle  11  Pass 1  IDiag  1:
 RMSU=  2.18D-08    CP:  1.02D+00  6.36D-01  9.69D-01  7.31D-01  1.27D+00
                    CP:  8.82D-01  1.28D+00  1.44D+00  1.64D+00  1.32D+00
 FoFJK:  IHMeth= 1 ICntrl=     0 DoSepK=T KAlg= 1 I1Cent= 0 FoldK=F
 E= -2905.42758090917     Delta-E=       -0.000000000174 Rises=F Damp=F
 DIIS: error= 1.48D-07 at cycle  11 NSaved=  11.
 NSaved=11 IEnMin=11 EnMin= -2905.42758090917     IErMin=11 ErrMin= 1.48D-07
 ErrMax= 1.48D-07 EMaxC= 1.00D-01 BMatC= 6.21D-12 BMatP= 5.58D-11
 IDIUse=1 WtCom= 1.00D+00 WtEn= 0.00D+00
 Coeff-Com:  0.482D-06-0.681D-05-0.579D-04-0.494D-04-0.278D-03 0.263D-04
 Coeff-Com:  0.852D-02 0.982D-02-0.129D+00-0.938D-01 0.120D+01
 Coeff:      0.482D-06-0.681D-05-0.579D-04-0.494D-04-0.278D-03 0.263D-04
 Coeff:      0.852D-02 0.982D-02-0.129D+00-0.938D-01 0.120D+01
 Gap=     0.441 Goal=   None    Shift=    0.000
 RMSDP=3.63D-08 MaxDP=7.55D-07 DE=-1.74D-10 OVMax= 5.37D-06

 Cycle  12  Pass 1  IDiag  1:
 RMSU=  7.25D-09    CP:  1.02D+00  6.36D-01  9.69D-01  7.31D-01  1.27D+00
                    CP:  8.82D-01  1.28D+00  1.45D+00  1.70D+00  1.51D+00
                    CP:  1.40D+00
 FoFJK:  IHMeth= 1 ICntrl=     0 DoSepK=T KAlg= 1 I1Cent= 0 FoldK=F
 E= -2905.42758090920     Delta-E=       -0.000000000026 Rises=F Damp=F
 DIIS: error= 3.53D-08 at cycle  12 NSaved=  12.
 NSaved=12 IEnMin=12 EnMin= -2905.42758090920     IErMin=12 ErrMin= 3.53D-08
 ErrMax= 3.53D-08 EMaxC= 1.00D-01 BMatC= 3.17D-13 BMatP= 6.21D-12
 IDIUse=1 WtCom= 1.00D+00 WtEn= 0.00D+00
 Coeff-Com: -0.421D-07 0.896D-06 0.774D-05-0.335D-06-0.116D-03-0.178D-03
 Coeff-Com: -0.288D-03 0.611D-02 0.734D-02-0.572D-01-0.134D+00 0.118D+01
 Coeff:     -0.421D-07 0.896D-06 0.774D-05-0.335D-06-0.116D-03-0.178D-03
 Coeff:     -0.288D-03 0.611D-02 0.734D-02-0.572D-01-0.134D+00 0.118D+01
 Gap=     0.441 Goal=   None    Shift=    0.000
 RMSDP=8.89D-09 MaxDP=2.24D-07 DE=-2.64D-11 OVMax= 1.11D-06

 SCF Done:  E(RwB97XD) =  -2905.42758091     A.U. after   12 cycles
             Convg  =    0.8891D-08             -V/T =  2.0015
 KE= 2.900939518815D+03 PE=-7.236438783176D+03 EE= 1.280944228847D+03
 Leave Link  502 at Thu Apr 16 12:55:06 2020, MaxMem= 1073741824 cpu:     294.1
 (Enter /home/matheus/.gaussian/g09/l601.exe)
 Copying SCF densities to generalized density rwf, IOpCl= 0 IROHF=0.

 **********************************************************************

            Population analysis using the SCF density.

 **********************************************************************

 Orbital symmetries:
       Occupied  (A) (A) (A) (A) (A) (A) (A) (A) (A) (A) (A) (A)
                 (A) (A) (A) (A) (A) (A) (A) (A) (A) (A) (A) (A)
                 (A) (A) (A)
       Virtual   (A) (A) (A) (A) (A) (A) (A) (A) (A) (A) (A) (A)
                 (A) (A) (A) (A) (A) (A) (A) (A) (A) (A) (A) (A)
                 (A) (A) (A) (A) (A) (A) (A) (A) (A) (A) (A) (A)
                 (A) (A) (A) (A) (A) (A) (A) (A) (A) (A) (A) (A)
                 (A) (A) (A) (A) (A) (A) (A) (A) (A) (A) (A) (A)
                 (A) (A) (A) (A) (A) (A) (A) (A) (A) (A) (A) (A)
                 (A) (A) (A) (A) (A) (A) (A) (A) (A) (A) (A) (A)
                 (A) (A) (A) (A) (A) (A) (A) (A) (A) (A) (A) (A)
                 (A) (A) (A) (A) (A) (A) (A) (A) (A) (A) (A) (A)
                 (A) (A) (A) (A) (A) (A) (A) (A) (A) (A) (A) (A)
                 (A) (A) (A) (A) (A) (A) (A) (A) (A) (A) (A) (A)
                 (A) (A) (A) (A) (A) (A) (A) (A) (A) (A) (A) (A)
                 (A) (A) (A) (A) (A) (A) (A) (A) (A) (A) (A) (A)
                 (A) (A) (A) (A) (A) (A) (A) (A) (A) (A) (A) (A)
                 (A) (A)
 The electronic state is 1-A.
 Alpha  occ. eigenvalues -- -513.09366 -67.36194 -60.91074 -60.91062 -60.91053
 Alpha  occ. eigenvalues --  -19.34069 -19.33697  -9.81523  -7.50858  -7.50817
 Alpha  occ. eigenvalues --   -7.50790  -3.37540  -3.37532  -3.37511  -3.37478
 Alpha  occ. eigenvalues --   -3.37475  -1.24567  -1.03334  -1.02190  -0.66782
 Alpha  occ. eigenvalues --   -0.59639  -0.53622  -0.49915  -0.49552  -0.48713
 Alpha  occ. eigenvalues --   -0.41754  -0.40593
 Alpha virt. eigenvalues --    0.03482   0.04354   0.08304   0.09705   0.10439
 Alpha virt. eigenvalues --    0.11848   0.13454   0.14005   0.17162   0.17958
 Alpha virt. eigenvalues --    0.18296   0.19014   0.20422   0.22210   0.23325
 Alpha virt. eigenvalues --    0.24431   0.25581   0.27905   0.30832   0.32663
 Alpha virt. eigenvalues --    0.34066   0.35201   0.36163   0.38223   0.39068
 Alpha virt. eigenvalues --    0.40420   0.42469   0.47285   0.51720   0.54538
 Alpha virt. eigenvalues --    0.55177   0.59004   0.60579   0.64295   0.67788
 Alpha virt. eigenvalues --    0.69704   0.70655   0.72213   0.74771   0.74874
 Alpha virt. eigenvalues --    0.75747   0.76347   0.77428   0.78994   0.81860
 Alpha virt. eigenvalues --    0.84032   0.85786   0.87678   0.88546   0.89493
 Alpha virt. eigenvalues --    0.91185   0.92399   0.93538   0.95223   0.98332
 Alpha virt. eigenvalues --    1.00012   1.01863   1.04240   1.04358   1.06856
 Alpha virt. eigenvalues --    1.08685   1.14968   1.16779   1.19297   1.21536
 Alpha virt. eigenvalues --    1.24212   1.27906   1.33491   1.36117   1.39387
 Alpha virt. eigenvalues --    1.43518   1.48475   1.49739   1.52055   1.58083
 Alpha virt. eigenvalues --    1.67019   1.70476   1.81348   1.89300   1.93655
 Alpha virt. eigenvalues --    1.97125   2.01538   2.05662   2.10788   2.14205
 Alpha virt. eigenvalues --    2.15913   2.16242   2.17588   2.21394   2.25169
 Alpha virt. eigenvalues --    2.26664   2.28068   2.30160   2.30642   2.32414
 Alpha virt. eigenvalues --    2.37421   2.38781   2.42484   2.44428   2.46019
 Alpha virt. eigenvalues --    2.47578   2.47896   2.51744   2.54654   2.55813
 Alpha virt. eigenvalues --    2.58190   2.60748   2.63058   2.68596   2.68924
 Alpha virt. eigenvalues --    2.72117   2.74483   2.76850   2.84342   2.86182
 Alpha virt. eigenvalues --    2.92342   3.03979   3.10257   3.12987   3.59839
 Alpha virt. eigenvalues --    3.64263   3.88600   3.92176   4.00709   4.09788
 Alpha virt. eigenvalues --    4.13129   4.18723   4.21688   4.24476   4.26066
 Alpha virt. eigenvalues --    4.33471   4.48802   4.51724   4.55283   4.67265
 Alpha virt. eigenvalues --    4.88569   4.95371   4.99043   5.14450   5.15228
 Alpha virt. eigenvalues --    5.20672   5.43797   5.84021   6.04750   6.12502
 Alpha virt. eigenvalues --    6.16818   6.29152   6.31150   6.45409   6.50650
 Alpha virt. eigenvalues --    6.57094   6.77950   6.79632   6.80409   6.83497
 Alpha virt. eigenvalues --    6.87213   6.88687   6.90092   6.97851   7.00643
 Alpha virt. eigenvalues --    7.07229   7.14363   7.23862   7.44800   7.64221
 Alpha virt. eigenvalues --    7.80572   8.09416   8.12520  14.03151  14.67970
          Condensed to atoms (all electrons):
              1          2          3          4          5
     1  O    8.176009  -0.166178   0.220880   0.002600  -0.019341
     2  O   -0.166178   8.244592   0.010183   0.193337  -0.018059
     3  H    0.220880   0.010183   0.545796   0.001657  -0.000374
     4  H    0.002600   0.193337   0.001657   0.559705  -0.004066
     5  Kr  -0.019341  -0.018059  -0.000374  -0.004066  36.032620
 Mulliken atomic charges:
              1
     1  O   -0.213971
     2  O   -0.263875
     3  H    0.221858
     4  H    0.246767
     5  Kr   0.009220
 Sum of Mulliken atomic charges =   0.00000
 Mulliken charges with hydrogens summed into heavy atoms:
              1
     1  O    0.007887
     2  O   -0.017108
     5  Kr   0.009220
 Sum of Mulliken charges with hydrogens summed into heavy atoms =   0.00000
 Electronic spatial extent (au):  <R**2>=            485.5488
 Charge=              0.0000 electrons
 Dipole moment (field-independent basis, Debye):
    X=              1.4559    Y=             -0.4079    Z=              1.4703  Tot=              2.1090
 Quadrupole moment (field-independent basis, Debye-Ang):
   XX=            -33.4941   YY=            -27.9138   ZZ=            -29.0693
   XY=              2.6315   XZ=             -3.4875   YZ=             -1.7900
 Traceless Quadrupole moment (field-independent basis, Debye-Ang):
   XX=             -3.3351   YY=              2.2453   ZZ=              1.0897
   XY=              2.6315   XZ=             -3.4875   YZ=             -1.7900
 Octapole moment (field-independent basis, Debye-Ang**2):
  XXX=             29.9771  YYY=             -1.1046  ZZZ=              1.1623  XYY=              4.7029
  XXY=             -8.7553  XXZ=              7.6430  XZZ=              5.2405  YZZ=             -1.8443
  YYZ=              2.2193  XYZ=              4.1405
 Hexadecapole moment (field-independent basis, Debye-Ang**3):
 XXXX=           -440.8327 YYYY=            -63.0484 ZZZZ=            -29.8181 XXXY=             20.4869
 XXXZ=            -18.2405 YYYX=              4.7131 YYYZ=             -2.5842 ZZZX=             -3.1455
 ZZZY=             -1.8898 XXYY=            -79.0518 XXZZ=            -71.3761 YYZZ=            -15.9626
 XXYZ=             -9.6263 YYXZ=             -4.9442 ZZXY=              3.7545
 N-N= 1.491274546049D+02 E-N=-7.236438781304D+03  KE= 2.900939518815D+03
 No NMR shielding tensors so no spin-rotation constants.
 Leave Link  601 at Thu Apr 16 12:55:06 2020, MaxMem= 1073741824 cpu:       0.8
 (Enter /home/matheus/.gaussian/g09/l108.exe)
 Variable Step   Value    
 -------- ---- -----------
     1       1    5.858151
 Leave Link  108 at Thu Apr 16 12:55:06 2020, MaxMem= 1073741824 cpu:       0.0
 (Enter /home/matheus/.gaussian/g09/l202.exe)
 ---------------------------------------------------------------------------------------------------
                            Z-MATRIX (ANGSTROMS AND DEGREES)
   CD    Cent   Atom    N1       Length/X        N2       Alpha/Y        N3        Beta/Z          J
 ---------------------------------------------------------------------------------------------------
      1      1  O        0   0.000000          0.000000          0.725000
      2      2  O        0   0.000000          0.000000         -0.725000
      3      3  H        0  -0.904763         -0.159534          1.023510
      4      4  H        0   0.000000          0.918721         -1.023510
      5      5  Kr       0   0.000000          3.100000          0.000000
 ---------------------------------------------------------------------------------------------------
                         Z-Matrix orientation:                         
 ---------------------------------------------------------------------
 Center     Atomic      Atomic             Coordinates (Angstroms)
 Number     Number       Type             X           Y           Z
 ---------------------------------------------------------------------
      1          8           0        0.000000    0.000000    0.725000
      2          8           0        0.000000    0.000000   -0.725000
      3          1           0       -0.904763   -0.159534    1.023510
      4          1           0        0.000000    0.918721   -1.023510
      5         36           0        0.000000    3.100000    0.000000
 ---------------------------------------------------------------------
                    Distance matrix (angstroms):
                    1          2          3          4          5
     1  O    0.000000
     2  O    1.450000   0.000000
     3  H    0.966000   1.975180   0.000000
     4  H    1.975180   0.966000   2.484255   0.000000
     5  Kr   3.183650   3.183650   3.534223   2.409472   0.000000
 Stoichiometry    H2KrO2
 Framework group  C1[X(H2KrO2)]
 Deg. of freedom     9
 Full point group                 C1      NOp   1
 RotChk:  IX=0 Diff= 1.52D-03
 Largest Abelian subgroup         C1      NOp   1
 Largest concise Abelian subgroup C1      NOp   1
                         Standard orientation:                         
 ---------------------------------------------------------------------
 Center     Atomic      Atomic             Coordinates (Angstroms)
 Number     Number       Type             X           Y           Z
 ---------------------------------------------------------------------
      1          8           0       -2.087872   -0.694257   -0.118839
      2          8           0       -2.072039    0.749513    0.014492
      3          1           0       -2.267040   -1.072492    0.751789
      4          1           0       -1.150265    1.035221    0.057612
      5         36           0        1.019350   -0.011244    0.000705
 ---------------------------------------------------------------------
 Rotational constants (GHZ):     25.6306134      2.1894635      2.0293115
 Leave Link  202 at Thu Apr 16 12:55:06 2020, MaxMem= 1073741824 cpu:       0.0
 (Enter /home/matheus/.gaussian/g09/l301.exe)
 Standard basis: Aug-CC-pVTZ (5D, 7F)
 Ernie: Thresh=  0.10000D-02 Tol=  0.10000D-05 Strict=F.
 Ernie:  38 primitive shells out of 205 were deleted.
 There are   197 symmetry adapted basis functions of A   symmetry.
 Integral buffers will be    131072 words long.
 Raffenetti 2 integral format.
 Two-electron integral symmetry is turned on.
   197 basis functions,   415 primitive gaussians,   229 cartesian basis functions
    27 alpha electrons       27 beta electrons
       nuclear repulsion energy       145.6590542339 Hartrees.
 IExCor= 4639 DFT=T Ex+Corr=wB97XD ExCW=0 ScaHFX=  1.000000
 ScaDFX=  1.000000  1.000000  1.000000  1.000000 ScalE2=  1.000000  1.000000
 IRadAn=      5 IRanWt=     -1 IRanGd=            0 ICorTp=0
  HFx wShort=  0.000000 wLong=  0.250000 cFull=  0.222036 cShort=  0.000000 cLong=  0.777964
  DFx wShort=  0.000000 wLong=  0.250000 cFull=  0.000000 cShort=  0.000000 cLong=  1.000000
 NAtoms=    5 NActive=    5 NUniq=    5 SFac= 1.00D+00 NAtFMM=   60 NAOKFM=F Big=F
 R6Disp: Dispersion energy =        -0.0009722977 Hartrees.
 Nuclear repulsion after empirical dispersion term =      145.6580819362 Hartrees.
 Leave Link  301 at Thu Apr 16 12:55:06 2020, MaxMem= 1073741824 cpu:       0.2
 (Enter /home/matheus/.gaussian/g09/l302.exe)
 NPDir=0 NMtPBC=     1 NCelOv=     1 NCel=       1 NClECP=     1 NCelD=      1
         NCelK=      1 NCelE2=     1 NClLst=     1 CellRange=     0.0.
 One-electron integrals computed using PRISM.
 NBasis=   197 RedAO= T  NBF=   197
 NBsUse=   197 1.00D-06 NBFU=   197
 Precomputing XC quadrature grid using
 IXCGrd= 2 IRadAn=           5 IRanWt=          -1 IRanGd=           0 AccXCQ= 0.00D+00.
 NRdTot=     427 NPtTot=      123512 NUsed=      126579 NTot=      126611
 NSgBfM=   229   229   229   229   229 NAtAll=     5     5.
 Leave Link  302 at Thu Apr 16 12:55:07 2020, MaxMem= 1073741824 cpu:       1.0
 (Enter /home/matheus/.gaussian/g09/l303.exe)
 DipDrv:  MaxL=1.
 Leave Link  303 at Thu Apr 16 12:55:07 2020, MaxMem= 1073741824 cpu:       0.2
 (Enter /home/matheus/.gaussian/g09/l401.exe)
 Initial guess read from the read-write file.
 B after Tr=     0.000000    0.000000    0.000000
         Rot=    1.000000    0.000000    0.000000    0.000000 Ang=   0.00 deg.
 Guess basis will be translated and rotated to current coordinates.
 Initial guess orbital symmetries:
       Occupied  (A) (A) (A) (A) (A) (A) (A) (A) (A) (A) (A) (A)
                 (A) (A) (A) (A) (A) (A) (A) (A) (A) (A) (A) (A)
                 (A) (A) (A)
       Virtual   (A) (A) (A) (A) (A) (A) (A) (A) (A) (A) (A) (A)
                 (A) (A) (A) (A) (A) (A) (A) (A) (A) (A) (A) (A)
                 (A) (A) (A) (A) (A) (A) (A) (A) (A) (A) (A) (A)
                 (A) (A) (A) (A) (A) (A) (A) (A) (A) (A) (A) (A)
                 (A) (A) (A) (A) (A) (A) (A) (A) (A) (A) (A) (A)
                 (A) (A) (A) (A) (A) (A) (A) (A) (A) (A) (A) (A)
                 (A) (A) (A) (A) (A) (A) (A) (A) (A) (A) (A) (A)
                 (A) (A) (A) (A) (A) (A) (A) (A) (A) (A) (A) (A)
                 (A) (A) (A) (A) (A) (A) (A) (A) (A) (A) (A) (A)
                 (A) (A) (A) (A) (A) (A) (A) (A) (A) (A) (A) (A)
                 (A) (A) (A) (A) (A) (A) (A) (A) (A) (A) (A) (A)
                 (A) (A) (A) (A) (A) (A) (A) (A) (A) (A) (A) (A)
                 (A) (A) (A) (A) (A) (A) (A) (A) (A) (A) (A) (A)
                 (A) (A) (A) (A) (A) (A) (A) (A) (A) (A) (A) (A)
                 (A) (A)
 The electronic state of the initial guess is 1-A.
 Generating alternative initial guess.
 Harris functional with IExCor= 4639 diagonalized for initial guess.
 ExpMin= 2.53D-02 ExpMax= 1.17D+07 ExpMxC= 1.33D+04 IAcc=3 IRadAn=         5 AccDes= 0.00D+00
 HarFok:  IExCor= 4639 AccDes= 0.00D+00 IRadAn=         5 IDoV= 1
 ScaDFX=  1.000000  1.000000  1.000000  1.000000
 FoFCou: FMM=F IPFlag=           0 FMFlag=      100000 FMFlg1=           0
         NFxFlg=           0 DoJE=T BraDBF=F KetDBF=T FulRan=T
         Omega=  0.000000  0.000000  1.000000  0.000000  0.000000 ICntrl=     500 IOpCl=  0
         NMat0=    1 NMatS0=    1 NMatT0=    0 NMatD0=    1 NMtDS0=    0 NMtDT0=    0
         I1Cent=           4 NGrid=           0.
 Petite list used in FoFCou.
 Harris En= -2875.40122795268    
 Leave Link  401 at Thu Apr 16 12:55:07 2020, MaxMem= 1073741824 cpu:       4.4
 (Enter /home/matheus/.gaussian/g09/l502.exe)
 Closed shell SCF:
 Requested convergence on RMS density matrix=1.00D-08 within 128 cycles.
 Requested convergence on MAX density matrix=1.00D-06.
 Requested convergence on             energy=1.00D-06.
 No special actions if energy rises.
 Using DIIS extrapolation, IDIIS=  1040.
 Integral symmetry usage will be decided dynamically.
       126521 words used for storage of precomputed grid.
 IEnd=      305468 IEndB=      305468 NGot=  1073741824 MDV=  1073505667
 LenX=  1073505667 LenY=  1073452785
 Fock matrices will be formed incrementally for  20 cycles.

 Cycle   1  Pass 1  IDiag  1:
 FoFJK:  IHMeth= 1 ICntrl=     0 DoSepK=T KAlg= 1 I1Cent= 0 FoldK=F
 FoFCou: FMM=F IPFlag=           0 FMFlag=      100000 FMFlg1=           0
         NFxFlg=           0 DoJE=T BraDBF=F KetDBF=F FulRan=T
         Omega=  0.000000  0.000000  1.000000  0.000000  0.000000 ICntrl=     500 IOpCl=  0
         NMat0=    1 NMatS0=    1 NMatT0=    0 NMatD0=    1 NMtDS0=    0 NMtDT0=    0
         I1Cent=           0 NGrid=           0.
 Symmetry not used in FoFCou.
 E= -2905.42925874457    
 DIIS: error= 1.20D-03 at cycle   1 NSaved=   1.
 NSaved= 1 IEnMin= 1 EnMin= -2905.42925874457     IErMin= 1 ErrMin= 1.20D-03
 ErrMax= 1.20D-03 EMaxC= 1.00D-01 BMatC= 5.24D-04 BMatP= 5.24D-04
 IDIUse=3 WtCom= 9.88D-01 WtEn= 1.20D-02
 Coeff-Com:  0.100D+01
 Coeff-En:   0.100D+01
 Coeff:      0.100D+01
 Gap=     0.443 Goal=   None    Shift=    0.000
 GapD=    0.443 DampG=2.000 DampE=1.000 DampFc=2.0000 IDamp=-1.
 RMSDP=7.33D-05 MaxDP=2.32D-03              OVMax= 3.15D-03

 Cycle   2  Pass 1  IDiag  1:
 RMSU=  5.18D-05    CP:  1.00D+00
 FoFJK:  IHMeth= 1 ICntrl=     0 DoSepK=T KAlg= 1 I1Cent= 0 FoldK=F
 E= -2905.42935923697     Delta-E=       -0.000100492402 Rises=F Damp=F
 DIIS: error= 9.33D-05 at cycle   2 NSaved=   2.
 NSaved= 2 IEnMin= 2 EnMin= -2905.42935923697     IErMin= 2 ErrMin= 9.33D-05
 ErrMax= 9.33D-05 EMaxC= 1.00D-01 BMatC= 5.26D-06 BMatP= 5.24D-04
 IDIUse=1 WtCom= 1.00D+00 WtEn= 0.00D+00
 Coeff-Com:  0.792D-04 0.100D+01
 Coeff:      0.792D-04 0.100D+01
 Gap=     0.441 Goal=   None    Shift=    0.000
 RMSDP=1.66D-05 MaxDP=7.23D-04 DE=-1.00D-04 OVMax= 8.11D-04

 Cycle   3  Pass 1  IDiag  1:
 RMSU=  9.80D-06    CP:  1.00D+00  1.13D+00
 FoFJK:  IHMeth= 1 ICntrl=     0 DoSepK=T KAlg= 1 I1Cent= 0 FoldK=F
 E= -2905.42936196585     Delta-E=       -0.000002728879 Rises=F Damp=F
 DIIS: error= 9.17D-05 at cycle   3 NSaved=   3.
 NSaved= 3 IEnMin= 3 EnMin= -2905.42936196585     IErMin= 3 ErrMin= 9.17D-05
 ErrMax= 9.17D-05 EMaxC= 1.00D-01 BMatC= 4.46D-06 BMatP= 5.26D-06
 IDIUse=1 WtCom= 1.00D+00 WtEn= 0.00D+00
 Coeff-Com: -0.830D-02 0.481D+00 0.527D+00
 Coeff:     -0.830D-02 0.481D+00 0.527D+00
 Gap=     0.441 Goal=   None    Shift=    0.000
 RMSDP=5.99D-06 MaxDP=3.27D-04 DE=-2.73D-06 OVMax= 4.51D-04

 Cycle   4  Pass 1  IDiag  1:
 RMSU=  3.02D-06    CP:  1.00D+00  1.14D+00  7.15D-01
 FoFJK:  IHMeth= 1 ICntrl=     0 DoSepK=T KAlg= 1 I1Cent= 0 FoldK=F
 E= -2905.42936468721     Delta-E=       -0.000002721360 Rises=F Damp=F
 DIIS: error= 2.40D-05 at cycle   4 NSaved=   4.
 NSaved= 4 IEnMin= 4 EnMin= -2905.42936468721     IErMin= 4 ErrMin= 2.40D-05
 ErrMax= 2.40D-05 EMaxC= 1.00D-01 BMatC= 2.19D-07 BMatP= 4.46D-06
 IDIUse=1 WtCom= 1.00D+00 WtEn= 0.00D+00
 Coeff-Com: -0.272D-02 0.664D-01 0.184D+00 0.753D+00
 Coeff:     -0.272D-02 0.664D-01 0.184D+00 0.753D+00
 Gap=     0.441 Goal=   None    Shift=    0.000
 RMSDP=2.00D-06 MaxDP=6.22D-05 DE=-2.72D-06 OVMax= 1.13D-04

 Cycle   5  Pass 1  IDiag  1:
 RMSU=  1.12D-06    CP:  1.00D+00  1.15D+00  7.86D-01  1.02D+00
 FoFJK:  IHMeth= 1 ICntrl=     0 DoSepK=T KAlg= 1 I1Cent= 0 FoldK=F
 E= -2905.42936484395     Delta-E=       -0.000000156738 Rises=F Damp=F
 DIIS: error= 1.06D-05 at cycle   5 NSaved=   5.
 NSaved= 5 IEnMin= 5 EnMin= -2905.42936484395     IErMin= 5 ErrMin= 1.06D-05
 ErrMax= 1.06D-05 EMaxC= 1.00D-01 BMatC= 4.22D-08 BMatP= 2.19D-07
 IDIUse=1 WtCom= 1.00D+00 WtEn= 0.00D+00
 Coeff-Com:  0.175D-03-0.544D-01-0.919D-02 0.336D+00 0.727D+00
 Coeff:      0.175D-03-0.544D-01-0.919D-02 0.336D+00 0.727D+00
 Gap=     0.441 Goal=   None    Shift=    0.000
 RMSDP=9.65D-07 MaxDP=4.00D-05 DE=-1.57D-07 OVMax= 4.76D-05

 Cycle   6  Pass 1  IDiag  1:
 RMSU=  3.56D-07    CP:  1.00D+00  1.16D+00  8.21D-01  1.16D+00  9.01D-01
 FoFJK:  IHMeth= 1 ICntrl=     0 DoSepK=T KAlg= 1 I1Cent= 0 FoldK=F
 E= -2905.42936487764     Delta-E=       -0.000000033695 Rises=F Damp=F
 DIIS: error= 2.19D-06 at cycle   6 NSaved=   6.
 NSaved= 6 IEnMin= 6 EnMin= -2905.42936487764     IErMin= 6 ErrMin= 2.19D-06
 ErrMax= 2.19D-06 EMaxC= 1.00D-01 BMatC= 1.44D-09 BMatP= 4.22D-08
 IDIUse=1 WtCom= 1.00D+00 WtEn= 0.00D+00
 Coeff-Com:  0.188D-03-0.210D-01-0.124D-01 0.662D-01 0.227D+00 0.740D+00
 Coeff:      0.188D-03-0.210D-01-0.124D-01 0.662D-01 0.227D+00 0.740D+00
 Gap=     0.441 Goal=   None    Shift=    0.000
 RMSDP=1.94D-07 MaxDP=6.41D-06 DE=-3.37D-08 OVMax= 1.11D-05

 Cycle   7  Pass 1  IDiag  1:
 RMSU=  8.83D-08    CP:  1.00D+00  1.16D+00  8.26D-01  1.18D+00  9.58D-01
                    CP:  1.04D+00
 FoFJK:  IHMeth= 1 ICntrl=     0 DoSepK=T KAlg= 1 I1Cent= 0 FoldK=F
 E= -2905.42936487913     Delta-E=       -0.000000001492 Rises=F Damp=F
 DIIS: error= 3.78D-07 at cycle   7 NSaved=   7.
 NSaved= 7 IEnMin= 7 EnMin= -2905.42936487913     IErMin= 7 ErrMin= 3.78D-07
 ErrMax= 3.78D-07 EMaxC= 1.00D-01 BMatC= 6.73D-11 BMatP= 1.44D-09
 IDIUse=1 WtCom= 1.00D+00 WtEn= 0.00D+00
 Coeff-Com: -0.124D-04 0.536D-02 0.116D-02-0.341D-01-0.722D-01 0.149D-01
 Coeff-Com:  0.108D+01
 Coeff:     -0.124D-04 0.536D-02 0.116D-02-0.341D-01-0.722D-01 0.149D-01
 Coeff:      0.108D+01
 Gap=     0.441 Goal=   None    Shift=    0.000
 RMSDP=9.36D-08 MaxDP=3.72D-06 DE=-1.49D-09 OVMax= 6.11D-06

 Cycle   8  Pass 1  IDiag  1:
 RMSU=  2.78D-08    CP:  1.00D+00  1.16D+00  8.28D-01  1.18D+00  9.75D-01
                    CP:  1.17D+00  1.20D+00
 FoFJK:  IHMeth= 1 ICntrl=     0 DoSepK=T KAlg= 1 I1Cent= 0 FoldK=F
 E= -2905.42936487929     Delta-E=       -0.000000000156 Rises=F Damp=F
 DIIS: error= 7.13D-08 at cycle   8 NSaved=   8.
 NSaved= 8 IEnMin= 8 EnMin= -2905.42936487929     IErMin= 8 ErrMin= 7.13D-08
 ErrMax= 7.13D-08 EMaxC= 1.00D-01 BMatC= 3.51D-12 BMatP= 6.73D-11
 IDIUse=1 WtCom= 1.00D+00 WtEn= 0.00D+00
 Coeff-Com: -0.123D-04 0.213D-02 0.798D-03-0.105D-01-0.245D-01-0.270D-01
 Coeff-Com:  0.196D+00 0.863D+00
 Coeff:     -0.123D-04 0.213D-02 0.798D-03-0.105D-01-0.245D-01-0.270D-01
 Coeff:      0.196D+00 0.863D+00
 Gap=     0.441 Goal=   None    Shift=    0.000
 RMSDP=1.38D-08 MaxDP=3.75D-07 DE=-1.56D-10 OVMax= 1.01D-06

 Cycle   9  Pass 1  IDiag  1:
 RMSU=  5.93D-09    CP:  1.00D+00  1.16D+00  8.28D-01  1.18D+00  9.74D-01
                    CP:  1.18D+00  1.25D+00  1.20D+00
 FoFJK:  IHMeth= 1 ICntrl=     0 DoSepK=T KAlg= 1 I1Cent= 0 FoldK=F
 E= -2905.42936487932     Delta-E=       -0.000000000025 Rises=F Damp=F
 DIIS: error= 2.01D-08 at cycle   9 NSaved=   9.
 NSaved= 9 IEnMin= 9 EnMin= -2905.42936487932     IErMin= 9 ErrMin= 2.01D-08
 ErrMax= 2.01D-08 EMaxC= 1.00D-01 BMatC= 2.33D-13 BMatP= 3.51D-12
 IDIUse=1 WtCom= 1.00D+00 WtEn= 0.00D+00
 Coeff-Com:  0.802D-06-0.366D-03-0.968D-04 0.227D-02 0.533D-02-0.616D-03
 Coeff-Com: -0.820D-01 0.164D-01 0.106D+01
 Coeff:      0.802D-06-0.366D-03-0.968D-04 0.227D-02 0.533D-02-0.616D-03
 Coeff:     -0.820D-01 0.164D-01 0.106D+01
 Gap=     0.441 Goal=   None    Shift=    0.000
 RMSDP=6.56D-09 MaxDP=2.05D-07 DE=-2.50D-11 OVMax= 5.31D-07

 SCF Done:  E(RwB97XD) =  -2905.42936488     A.U. after    9 cycles
             Convg  =    0.6558D-08             -V/T =  2.0016
 KE= 2.900926353114D+03 PE=-7.229499027294D+03 EE= 1.277485227364D+03
 Leave Link  502 at Thu Apr 16 12:55:34 2020, MaxMem= 1073741824 cpu:     217.9
 (Enter /home/matheus/.gaussian/g09/l108.exe)
 Variable Step   Value    
 -------- ---- -----------
     1       2    6.047124
 Leave Link  108 at Thu Apr 16 12:55:34 2020, MaxMem= 1073741824 cpu:       0.0
 (Enter /home/matheus/.gaussian/g09/l202.exe)
 ---------------------------------------------------------------------------------------------------
                            Z-MATRIX (ANGSTROMS AND DEGREES)
   CD    Cent   Atom    N1       Length/X        N2       Alpha/Y        N3        Beta/Z          J
 ---------------------------------------------------------------------------------------------------
      1      1  O        0   0.000000          0.000000          0.725000
      2      2  O        0   0.000000          0.000000         -0.725000
      3      3  H        0  -0.904763         -0.159534          1.023510
      4      4  H        0   0.000000          0.918721         -1.023510
      5      5  Kr       0   0.000000          3.200000          0.000000
 ---------------------------------------------------------------------------------------------------
                         Z-Matrix orientation:                         
 ---------------------------------------------------------------------
 Center     Atomic      Atomic             Coordinates (Angstroms)
 Number     Number       Type             X           Y           Z
 ---------------------------------------------------------------------
      1          8           0        0.000000    0.000000    0.725000
      2          8           0        0.000000    0.000000   -0.725000
      3          1           0       -0.904763   -0.159534    1.023510
      4          1           0        0.000000    0.918721   -1.023510
      5         36           0        0.000000    3.200000    0.000000
 ---------------------------------------------------------------------
                    Distance matrix (angstroms):
                    1          2          3          4          5
     1  O    0.000000
     2  O    1.450000   0.000000
     3  H    0.966000   1.975180   0.000000
     4  H    1.975180   0.966000   2.484255   0.000000
     5  Kr   3.281101   3.281101   3.626657   2.500362   0.000000
 Stoichiometry    H2KrO2
 Framework group  C1[X(H2KrO2)]
 Deg. of freedom     9
 Full point group                 C1      NOp   1
 RotChk:  IX=0 Diff= 1.39D-03
 Largest Abelian subgroup         C1      NOp   1
 Largest concise Abelian subgroup C1      NOp   1
                         Standard orientation:                         
 ---------------------------------------------------------------------
 Center     Atomic      Atomic             Coordinates (Angstroms)
 Number     Number       Type             X           Y           Z
 ---------------------------------------------------------------------
      1          8           0       -2.154035   -0.695137   -0.118818
      2          8           0       -2.139283    0.748636    0.014606
      3          1           0       -2.332412   -1.073576    0.751884
      4          1           0       -1.217713    1.035079    0.057230
      5         36           0        1.052685   -0.010819    0.000683
 ---------------------------------------------------------------------
 Rotational constants (GHZ):     25.6299646      2.0547275      1.9130396
 Leave Link  202 at Thu Apr 16 12:55:35 2020, MaxMem= 1073741824 cpu:       0.0
 (Enter /home/matheus/.gaussian/g09/l301.exe)
 Standard basis: Aug-CC-pVTZ (5D, 7F)
 Ernie: Thresh=  0.10000D-02 Tol=  0.10000D-05 Strict=F.
 Ernie:  38 primitive shells out of 205 were deleted.
 There are   197 symmetry adapted basis functions of A   symmetry.
 Integral buffers will be    131072 words long.
 Raffenetti 2 integral format.
 Two-electron integral symmetry is turned on.
   197 basis functions,   415 primitive gaussians,   229 cartesian basis functions
    27 alpha electrons       27 beta electrons
       nuclear repulsion energy       142.3906715005 Hartrees.
 IExCor= 4639 DFT=T Ex+Corr=wB97XD ExCW=0 ScaHFX=  1.000000
 ScaDFX=  1.000000  1.000000  1.000000  1.000000 ScalE2=  1.000000  1.000000
 IRadAn=      5 IRanWt=     -1 IRanGd=            0 ICorTp=0
  HFx wShort=  0.000000 wLong=  0.250000 cFull=  0.222036 cShort=  0.000000 cLong=  0.777964
  DFx wShort=  0.000000 wLong=  0.250000 cFull=  0.000000 cShort=  0.000000 cLong=  1.000000
 NAtoms=    5 NActive=    5 NUniq=    5 SFac= 1.00D+00 NAtFMM=   60 NAOKFM=F Big=F
 R6Disp: Dispersion energy =        -0.0010178138 Hartrees.
 Nuclear repulsion after empirical dispersion term =      142.3896536867 Hartrees.
 Leave Link  301 at Thu Apr 16 12:55:35 2020, MaxMem= 1073741824 cpu:       0.2
 (Enter /home/matheus/.gaussian/g09/l302.exe)
 NPDir=0 NMtPBC=     1 NCelOv=     1 NCel=       1 NClECP=     1 NCelD=      1
         NCelK=      1 NCelE2=     1 NClLst=     1 CellRange=     0.0.
 One-electron integrals computed using PRISM.
 NBasis=   197 RedAO= T  NBF=   197
 NBsUse=   197 1.00D-06 NBFU=   197
 Precomputing XC quadrature grid using
 IXCGrd= 2 IRadAn=           5 IRanWt=          -1 IRanGd=           0 AccXCQ= 0.00D+00.
 NRdTot=     427 NPtTot=      123512 NUsed=      126579 NTot=      126611
 NSgBfM=   229   229   229   229   229 NAtAll=     5     5.
 Leave Link  302 at Thu Apr 16 12:55:35 2020, MaxMem= 1073741824 cpu:       1.3
 (Enter /home/matheus/.gaussian/g09/l303.exe)
 DipDrv:  MaxL=1.
 Leave Link  303 at Thu Apr 16 12:55:35 2020, MaxMem= 1073741824 cpu:       0.2
 (Enter /home/matheus/.gaussian/g09/l401.exe)
 Initial guess read from the read-write file.
 B after Tr=     0.000000    0.000000    0.000000
         Rot=    1.000000    0.000000    0.000000    0.000000 Ang=   0.00 deg.
 Guess basis will be translated and rotated to current coordinates.
 Initial guess orbital symmetries:
       Occupied  (A) (A) (A) (A) (A) (A) (A) (A) (A) (A) (A) (A)
                 (A) (A) (A) (A) (A) (A) (A) (A) (A) (A) (A) (A)
                 (A) (A) (A)
       Virtual   (A) (A) (A) (A) (A) (A) (A) (A) (A) (A) (A) (A)
                 (A) (A) (A) (A) (A) (A) (A) (A) (A) (A) (A) (A)
                 (A) (A) (A) (A) (A) (A) (A) (A) (A) (A) (A) (A)
                 (A) (A) (A) (A) (A) (A) (A) (A) (A) (A) (A) (A)
                 (A) (A) (A) (A) (A) (A) (A) (A) (A) (A) (A) (A)
                 (A) (A) (A) (A) (A) (A) (A) (A) (A) (A) (A) (A)
                 (A) (A) (A) (A) (A) (A) (A) (A) (A) (A) (A) (A)
                 (A) (A) (A) (A) (A) (A) (A) (A) (A) (A) (A) (A)
                 (A) (A) (A) (A) (A) (A) (A) (A) (A) (A) (A) (A)
                 (A) (A) (A) (A) (A) (A) (A) (A) (A) (A) (A) (A)
                 (A) (A) (A) (A) (A) (A) (A) (A) (A) (A) (A) (A)
                 (A) (A) (A) (A) (A) (A) (A) (A) (A) (A) (A) (A)
                 (A) (A) (A) (A) (A) (A) (A) (A) (A) (A) (A) (A)
                 (A) (A) (A) (A) (A) (A) (A) (A) (A) (A) (A) (A)
                 (A) (A)
 The electronic state of the initial guess is 1-A.
 Generating alternative initial guess.
 Harris functional with IExCor= 4639 diagonalized for initial guess.
 ExpMin= 2.53D-02 ExpMax= 1.17D+07 ExpMxC= 1.33D+04 IAcc=3 IRadAn=         5 AccDes= 0.00D+00
 HarFok:  IExCor= 4639 AccDes= 0.00D+00 IRadAn=         5 IDoV= 1
 ScaDFX=  1.000000  1.000000  1.000000  1.000000
 FoFCou: FMM=F IPFlag=           0 FMFlag=      100000 FMFlg1=           0
         NFxFlg=           0 DoJE=T BraDBF=F KetDBF=T FulRan=T
         Omega=  0.000000  0.000000  1.000000  0.000000  0.000000 ICntrl=     500 IOpCl=  0
         NMat0=    1 NMatS0=    1 NMatT0=    0 NMatD0=    1 NMtDS0=    0 NMtDT0=    0
         I1Cent=           4 NGrid=           0.
 Petite list used in FoFCou.
 Harris En= -2875.40357646020    
 Leave Link  401 at Thu Apr 16 12:55:35 2020, MaxMem= 1073741824 cpu:       4.4
 (Enter /home/matheus/.gaussian/g09/l502.exe)
 Closed shell SCF:
 Requested convergence on RMS density matrix=1.00D-08 within 128 cycles.
 Requested convergence on MAX density matrix=1.00D-06.
 Requested convergence on             energy=1.00D-06.
 No special actions if energy rises.
 Using DIIS extrapolation, IDIIS=  1040.
 Integral symmetry usage will be decided dynamically.
       126521 words used for storage of precomputed grid.
 IEnd=      305468 IEndB=      305468 NGot=  1073741824 MDV=  1073505667
 LenX=  1073505667 LenY=  1073452785
 Fock matrices will be formed incrementally for  20 cycles.

 Cycle   1  Pass 1  IDiag  1:
 FoFJK:  IHMeth= 1 ICntrl=     0 DoSepK=T KAlg= 1 I1Cent= 0 FoldK=F
 FoFCou: FMM=F IPFlag=           0 FMFlag=      100000 FMFlg1=           0
         NFxFlg=           0 DoJE=T BraDBF=F KetDBF=F FulRan=T
         Omega=  0.000000  0.000000  1.000000  0.000000  0.000000 ICntrl=     500 IOpCl=  0
         NMat0=    1 NMatS0=    1 NMatT0=    0 NMatD0=    1 NMtDS0=    0 NMtDT0=    0
         I1Cent=           0 NGrid=           0.
 Symmetry not used in FoFCou.
 E= -2905.43044783000    
 DIIS: error= 9.60D-04 at cycle   1 NSaved=   1.
 NSaved= 1 IEnMin= 1 EnMin= -2905.43044783000     IErMin= 1 ErrMin= 9.60D-04
 ErrMax= 9.60D-04 EMaxC= 1.00D-01 BMatC= 4.04D-04 BMatP= 4.04D-04
 IDIUse=3 WtCom= 9.90D-01 WtEn= 9.60D-03
 Coeff-Com:  0.100D+01
 Coeff-En:   0.100D+01
 Coeff:      0.100D+01
 Gap=     0.443 Goal=   None    Shift=    0.000
 RMSDP=6.71D-05 MaxDP=2.00D-03              OVMax= 2.87D-03

 Cycle   2  Pass 1  IDiag  1:
 RMSU=  4.74D-05    CP:  1.00D+00
 FoFJK:  IHMeth= 1 ICntrl=     0 DoSepK=T KAlg= 1 I1Cent= 0 FoldK=F
 E= -2905.43052385169     Delta-E=       -0.000076021690 Rises=F Damp=F
 DIIS: error= 9.83D-05 at cycle   2 NSaved=   2.
 NSaved= 2 IEnMin= 2 EnMin= -2905.43052385169     IErMin= 2 ErrMin= 9.83D-05
 ErrMax= 9.83D-05 EMaxC= 1.00D-01 BMatC= 3.48D-06 BMatP= 4.04D-04
 IDIUse=1 WtCom= 1.00D+00 WtEn= 0.00D+00
 Coeff-Com: -0.216D-02 0.100D+01
 Coeff:     -0.216D-02 0.100D+01
 Gap=     0.441 Goal=   None    Shift=    0.000
 RMSDP=1.42D-05 MaxDP=5.60D-04 DE=-7.60D-05 OVMax= 6.77D-04

 Cycle   3  Pass 1  IDiag  1:
 RMSU=  8.04D-06    CP:  1.00D+00  1.13D+00
 FoFJK:  IHMeth= 1 ICntrl=     0 DoSepK=T KAlg= 1 I1Cent= 0 FoldK=F
 E= -2905.43052586450     Delta-E=       -0.000002012813 Rises=F Damp=F
 DIIS: error= 7.15D-05 at cycle   3 NSaved=   3.
 NSaved= 3 IEnMin= 3 EnMin= -2905.43052586450     IErMin= 3 ErrMin= 7.15D-05
 ErrMax= 7.15D-05 EMaxC= 1.00D-01 BMatC= 2.94D-06 BMatP= 3.48D-06
 IDIUse=1 WtCom= 1.00D+00 WtEn= 0.00D+00
 Coeff-Com: -0.807D-02 0.481D+00 0.527D+00
 Coeff:     -0.807D-02 0.481D+00 0.527D+00
 Gap=     0.442 Goal=   None    Shift=    0.000
 RMSDP=4.93D-06 MaxDP=2.65D-04 DE=-2.01D-06 OVMax= 3.74D-04

 Cycle   4  Pass 1  IDiag  1:
 RMSU=  2.62D-06    CP:  1.00D+00  1.15D+00  7.38D-01
 FoFJK:  IHMeth= 1 ICntrl=     0 DoSepK=T KAlg= 1 I1Cent= 0 FoldK=F
 E= -2905.43052766484     Delta-E=       -0.000001800336 Rises=F Damp=F
 DIIS: error= 2.13D-05 at cycle   4 NSaved=   4.
 NSaved= 4 IEnMin= 4 EnMin= -2905.43052766484     IErMin= 4 ErrMin= 2.13D-05
 ErrMax= 2.13D-05 EMaxC= 1.00D-01 BMatC= 1.56D-07 BMatP= 2.94D-06
 IDIUse=1 WtCom= 1.00D+00 WtEn= 0.00D+00
 Coeff-Com: -0.237D-02 0.516D-01 0.182D+00 0.768D+00
 Coeff:     -0.237D-02 0.516D-01 0.182D+00 0.768D+00
 Gap=     0.442 Goal=   None    Shift=    0.000
 RMSDP=1.80D-06 MaxDP=6.06D-05 DE=-1.80D-06 OVMax= 1.04D-04

 Cycle   5  Pass 1  IDiag  1:
 RMSU=  9.43D-07    CP:  1.00D+00  1.16D+00  8.23D-01  1.04D+00
 FoFJK:  IHMeth= 1 ICntrl=     0 DoSepK=T KAlg= 1 I1Cent= 0 FoldK=F
 E= -2905.43052777984     Delta-E=       -0.000000115001 Rises=F Damp=F
 DIIS: error= 8.99D-06 at cycle   5 NSaved=   5.
 NSaved= 5 IEnMin= 5 EnMin= -2905.43052777984     IErMin= 5 ErrMin= 8.99D-06
 ErrMax= 8.99D-06 EMaxC= 1.00D-01 BMatC= 2.86D-08 BMatP= 1.56D-07
 IDIUse=1 WtCom= 1.00D+00 WtEn= 0.00D+00
 Coeff-Com:  0.207D-03-0.554D-01-0.396D-02 0.340D+00 0.720D+00
 Coeff:      0.207D-03-0.554D-01-0.396D-02 0.340D+00 0.720D+00
 Gap=     0.442 Goal=   None    Shift=    0.000
 RMSDP=8.30D-07 MaxDP=3.40D-05 DE=-1.15D-07 OVMax= 4.14D-05

 Cycle   6  Pass 1  IDiag  1:
 RMSU=  2.95D-07    CP:  1.00D+00  1.16D+00  8.60D-01  1.17D+00  8.98D-01
 FoFJK:  IHMeth= 1 ICntrl=     0 DoSepK=T KAlg= 1 I1Cent= 0 FoldK=F
 E= -2905.43052780277     Delta-E=       -0.000000022932 Rises=F Damp=F
 DIIS: error= 1.76D-06 at cycle   6 NSaved=   6.
 NSaved= 6 IEnMin= 6 EnMin= -2905.43052780277     IErMin= 6 ErrMin= 1.76D-06
 ErrMax= 1.76D-06 EMaxC= 1.00D-01 BMatC= 9.78D-10 BMatP= 2.86D-08
 IDIUse=1 WtCom= 1.00D+00 WtEn= 0.00D+00
 Coeff-Com:  0.180D-03-0.201D-01-0.106D-01 0.639D-01 0.220D+00 0.746D+00
 Coeff:      0.180D-03-0.201D-01-0.106D-01 0.639D-01 0.220D+00 0.746D+00
 Gap=     0.442 Goal=   None    Shift=    0.000
 RMSDP=1.67D-07 MaxDP=5.80D-06 DE=-2.29D-08 OVMax= 9.93D-06

 Cycle   7  Pass 1  IDiag  1:
 RMSU=  7.34D-08    CP:  1.00D+00  1.16D+00  8.66D-01  1.19D+00  9.55D-01
                    CP:  1.04D+00
 FoFJK:  IHMeth= 1 ICntrl=     0 DoSepK=T KAlg= 1 I1Cent= 0 FoldK=F
 E= -2905.43052780384     Delta-E=       -0.000000001071 Rises=F Damp=F
 DIIS: error= 3.43D-07 at cycle   7 NSaved=   7.
 NSaved= 7 IEnMin= 7 EnMin= -2905.43052780384     IErMin= 7 ErrMin= 3.43D-07
 ErrMax= 3.43D-07 EMaxC= 1.00D-01 BMatC= 5.17D-11 BMatP= 9.78D-10
 IDIUse=1 WtCom= 1.00D+00 WtEn= 0.00D+00
 Coeff-Com: -0.161D-04 0.573D-02 0.633D-03-0.365D-01-0.745D-01 0.231D-01
 Coeff-Com:  0.108D+01
 Coeff:     -0.161D-04 0.573D-02 0.633D-03-0.365D-01-0.745D-01 0.231D-01
 Coeff:      0.108D+01
 Gap=     0.442 Goal=   None    Shift=    0.000
 RMSDP=7.93D-08 MaxDP=3.16D-06 DE=-1.07D-09 OVMax= 5.56D-06

 Cycle   8  Pass 1  IDiag  1:
 RMSU=  2.44D-08    CP:  1.00D+00  1.16D+00  8.68D-01  1.20D+00  9.72D-01
                    CP:  1.16D+00  1.21D+00
 FoFJK:  IHMeth= 1 ICntrl=     0 DoSepK=T KAlg= 1 I1Cent= 0 FoldK=F
 E= -2905.43052780392     Delta-E=       -0.000000000078 Rises=F Damp=F
 DIIS: error= 6.65D-08 at cycle   8 NSaved=   8.
 NSaved= 8 IEnMin= 8 EnMin= -2905.43052780392     IErMin= 8 ErrMin= 6.65D-08
 ErrMax= 6.65D-08 EMaxC= 1.00D-01 BMatC= 2.65D-12 BMatP= 5.17D-11
 IDIUse=1 WtCom= 1.00D+00 WtEn= 0.00D+00
 Coeff-Com: -0.124D-04 0.209D-02 0.577D-03-0.104D-01-0.236D-01-0.253D-01
 Coeff-Com:  0.185D+00 0.872D+00
 Coeff:     -0.124D-04 0.209D-02 0.577D-03-0.104D-01-0.236D-01-0.253D-01
 Coeff:      0.185D+00 0.872D+00
 Gap=     0.442 Goal=   None    Shift=    0.000
 RMSDP=1.26D-08 MaxDP=2.91D-07 DE=-7.78D-11 OVMax= 1.02D-06

 Cycle   9  Pass 1  IDiag  1:
 RMSU=  5.38D-09    CP:  1.00D+00  1.16D+00  8.68D-01  1.20D+00  9.71D-01
                    CP:  1.17D+00  1.26D+00  1.23D+00
 FoFJK:  IHMeth= 1 ICntrl=     0 DoSepK=T KAlg= 1 I1Cent= 0 FoldK=F
 E= -2905.43052780394     Delta-E=       -0.000000000021 Rises=F Damp=F
 DIIS: error= 2.07D-08 at cycle   9 NSaved=   9.
 NSaved= 9 IEnMin= 9 EnMin= -2905.43052780394     IErMin= 9 ErrMin= 2.07D-08
 ErrMax= 2.07D-08 EMaxC= 1.00D-01 BMatC= 2.34D-13 BMatP= 2.65D-12
 IDIUse=1 WtCom= 1.00D+00 WtEn= 0.00D+00
 Coeff-Com:  0.163D-05-0.532D-03-0.864D-04 0.322D-02 0.732D-02-0.104D-02
 Coeff-Com: -0.102D+00-0.303D-02 0.110D+01
 Coeff:      0.163D-05-0.532D-03-0.864D-04 0.322D-02 0.732D-02-0.104D-02
 Coeff:     -0.102D+00-0.303D-02 0.110D+01
 Gap=     0.442 Goal=   None    Shift=    0.000
 RMSDP=6.81D-09 MaxDP=2.26D-07 DE=-2.14D-11 OVMax= 5.96D-07

 SCF Done:  E(RwB97XD) =  -2905.43052780     A.U. after    9 cycles
             Convg  =    0.6806D-08             -V/T =  2.0016
 KE= 2.900917785377D+03 PE=-7.222967335851D+03 EE= 1.274229368983D+03
 Leave Link  502 at Thu Apr 16 12:56:01 2020, MaxMem= 1073741824 cpu:     208.8
 (Enter /home/matheus/.gaussian/g09/l108.exe)
 Variable Step   Value    
 -------- ---- -----------
     1       3    6.236096
 Leave Link  108 at Thu Apr 16 12:56:01 2020, MaxMem= 1073741824 cpu:       0.0
 (Enter /home/matheus/.gaussian/g09/l202.exe)
 ---------------------------------------------------------------------------------------------------
                            Z-MATRIX (ANGSTROMS AND DEGREES)
   CD    Cent   Atom    N1       Length/X        N2       Alpha/Y        N3        Beta/Z          J
 ---------------------------------------------------------------------------------------------------
      1      1  O        0   0.000000          0.000000          0.725000
      2      2  O        0   0.000000          0.000000         -0.725000
      3      3  H        0  -0.904763         -0.159534          1.023510
      4      4  H        0   0.000000          0.918721         -1.023510
      5      5  Kr       0   0.000000          3.300000          0.000000
 ---------------------------------------------------------------------------------------------------
                         Z-Matrix orientation:                         
 ---------------------------------------------------------------------
 Center     Atomic      Atomic             Coordinates (Angstroms)
 Number     Number       Type             X           Y           Z
 ---------------------------------------------------------------------
      1          8           0        0.000000    0.000000    0.725000
      2          8           0        0.000000    0.000000   -0.725000
      3          1           0       -0.904763   -0.159534    1.023510
      4          1           0        0.000000    0.918721   -1.023510
      5         36           0        0.000000    3.300000    0.000000
 ---------------------------------------------------------------------
                    Distance matrix (angstroms):
                    1          2          3          4          5
     1  O    0.000000
     2  O    1.450000   0.000000
     3  H    0.966000   1.975180   0.000000
     4  H    1.975180   0.966000   2.484255   0.000000
     5  Kr   3.378702   3.378702   3.719482   2.591923   0.000000
 Stoichiometry    H2KrO2
 Framework group  C1[X(H2KrO2)]
 Deg. of freedom     9
 Full point group                 C1      NOp   1
 RotChk:  IX=0 Diff= 1.26D-03
 Largest Abelian subgroup         C1      NOp   1
 Largest concise Abelian subgroup C1      NOp   1
                         Standard orientation:                         
 ---------------------------------------------------------------------
 Center     Atomic      Atomic             Coordinates (Angstroms)
 Number     Number       Type             X           Y           Z
 ---------------------------------------------------------------------
      1          8           0       -2.220249   -0.695947   -0.118797
      2          8           0       -2.206468    0.747827    0.014713
      3          1           0       -2.397897   -1.074572    0.751973
      4          1           0       -1.285083    1.034931    0.056872
      5         36           0        1.086020   -0.010428    0.000662
 ---------------------------------------------------------------------
 Rotational constants (GHZ):     25.6293759      1.9320315      1.8062397
 Leave Link  202 at Thu Apr 16 12:56:01 2020, MaxMem= 1073741824 cpu:       0.0
 (Enter /home/matheus/.gaussian/g09/l301.exe)
 Standard basis: Aug-CC-pVTZ (5D, 7F)
 Ernie: Thresh=  0.10000D-02 Tol=  0.10000D-05 Strict=F.
 Ernie:  38 primitive shells out of 205 were deleted.
 There are   197 symmetry adapted basis functions of A   symmetry.
 Integral buffers will be    131072 words long.
 Raffenetti 2 integral format.
 Two-electron integral symmetry is turned on.
   197 basis functions,   415 primitive gaussians,   229 cartesian basis functions
    27 alpha electrons       27 beta electrons
       nuclear repulsion energy       139.3069027277 Hartrees.
 IExCor= 4639 DFT=T Ex+Corr=wB97XD ExCW=0 ScaHFX=  1.000000
 ScaDFX=  1.000000  1.000000  1.000000  1.000000 ScalE2=  1.000000  1.000000
 IRadAn=      5 IRanWt=     -1 IRanGd=            0 ICorTp=0
  HFx wShort=  0.000000 wLong=  0.250000 cFull=  0.222036 cShort=  0.000000 cLong=  0.777964
  DFx wShort=  0.000000 wLong=  0.250000 cFull=  0.000000 cShort=  0.000000 cLong=  1.000000
 NAtoms=    5 NActive=    5 NUniq=    5 SFac= 1.00D+00 NAtFMM=   60 NAOKFM=F Big=F
 R6Disp: Dispersion energy =        -0.0010558238 Hartrees.
 Nuclear repulsion after empirical dispersion term =      139.3058469038 Hartrees.
 Leave Link  301 at Thu Apr 16 12:56:02 2020, MaxMem= 1073741824 cpu:       0.2
 (Enter /home/matheus/.gaussian/g09/l302.exe)
 NPDir=0 NMtPBC=     1 NCelOv=     1 NCel=       1 NClECP=     1 NCelD=      1
         NCelK=      1 NCelE2=     1 NClLst=     1 CellRange=     0.0.
 One-electron integrals computed using PRISM.
 NBasis=   197 RedAO= T  NBF=   197
 NBsUse=   197 1.00D-06 NBFU=   197
 Precomputing XC quadrature grid using
 IXCGrd= 2 IRadAn=           5 IRanWt=          -1 IRanGd=           0 AccXCQ= 0.00D+00.
 NRdTot=     427 NPtTot=      123512 NUsed=      126579 NTot=      126611
 NSgBfM=   229   229   229   229   229 NAtAll=     5     5.
 Leave Link  302 at Thu Apr 16 12:56:02 2020, MaxMem= 1073741824 cpu:       1.0
 (Enter /home/matheus/.gaussian/g09/l303.exe)
 DipDrv:  MaxL=1.
 Leave Link  303 at Thu Apr 16 12:56:02 2020, MaxMem= 1073741824 cpu:       0.2
 (Enter /home/matheus/.gaussian/g09/l401.exe)
 Initial guess read from the read-write file.
 B after Tr=     0.000000    0.000000    0.000000
         Rot=    1.000000    0.000000    0.000000    0.000000 Ang=   0.00 deg.
 Guess basis will be translated and rotated to current coordinates.
 Initial guess orbital symmetries:
       Occupied  (A) (A) (A) (A) (A) (A) (A) (A) (A) (A) (A) (A)
                 (A) (A) (A) (A) (A) (A) (A) (A) (A) (A) (A) (A)
                 (A) (A) (A)
       Virtual   (A) (A) (A) (A) (A) (A) (A) (A) (A) (A) (A) (A)
                 (A) (A) (A) (A) (A) (A) (A) (A) (A) (A) (A) (A)
                 (A) (A) (A) (A) (A) (A) (A) (A) (A) (A) (A) (A)
                 (A) (A) (A) (A) (A) (A) (A) (A) (A) (A) (A) (A)
                 (A) (A) (A) (A) (A) (A) (A) (A) (A) (A) (A) (A)
                 (A) (A) (A) (A) (A) (A) (A) (A) (A) (A) (A) (A)
                 (A) (A) (A) (A) (A) (A) (A) (A) (A) (A) (A) (A)
                 (A) (A) (A) (A) (A) (A) (A) (A) (A) (A) (A) (A)
                 (A) (A) (A) (A) (A) (A) (A) (A) (A) (A) (A) (A)
                 (A) (A) (A) (A) (A) (A) (A) (A) (A) (A) (A) (A)
                 (A) (A) (A) (A) (A) (A) (A) (A) (A) (A) (A) (A)
                 (A) (A) (A) (A) (A) (A) (A) (A) (A) (A) (A) (A)
                 (A) (A) (A) (A) (A) (A) (A) (A) (A) (A) (A) (A)
                 (A) (A) (A) (A) (A) (A) (A) (A) (A) (A) (A) (A)
                 (A) (A)
 The electronic state of the initial guess is 1-A.
 Generating alternative initial guess.
 Harris functional with IExCor= 4639 diagonalized for initial guess.
 ExpMin= 2.53D-02 ExpMax= 1.17D+07 ExpMxC= 1.33D+04 IAcc=3 IRadAn=         5 AccDes= 0.00D+00
 HarFok:  IExCor= 4639 AccDes= 0.00D+00 IRadAn=         5 IDoV= 1
 ScaDFX=  1.000000  1.000000  1.000000  1.000000
 FoFCou: FMM=F IPFlag=           0 FMFlag=      100000 FMFlg1=           0
         NFxFlg=           0 DoJE=T BraDBF=F KetDBF=T FulRan=T
         Omega=  0.000000  0.000000  1.000000  0.000000  0.000000 ICntrl=     500 IOpCl=  0
         NMat0=    1 NMatS0=    1 NMatT0=    0 NMatD0=    1 NMtDS0=    0 NMtDT0=    0
         I1Cent=           4 NGrid=           0.
 Petite list used in FoFCou.
 Harris En= -2875.40523500511    
 Leave Link  401 at Thu Apr 16 12:56:02 2020, MaxMem= 1073741824 cpu:       4.3
 (Enter /home/matheus/.gaussian/g09/l502.exe)
 Closed shell SCF:
 Requested convergence on RMS density matrix=1.00D-08 within 128 cycles.
 Requested convergence on MAX density matrix=1.00D-06.
 Requested convergence on             energy=1.00D-06.
 No special actions if energy rises.
 Using DIIS extrapolation, IDIIS=  1040.
 Integral symmetry usage will be decided dynamically.
       126521 words used for storage of precomputed grid.
 IEnd=      305468 IEndB=      305468 NGot=  1073741824 MDV=  1073505667
 LenX=  1073505667 LenY=  1073452785
 Fock matrices will be formed incrementally for  20 cycles.

 Cycle   1  Pass 1  IDiag  1:
 FoFJK:  IHMeth= 1 ICntrl=     0 DoSepK=T KAlg= 1 I1Cent= 0 FoldK=F
 FoFCou: FMM=F IPFlag=           0 FMFlag=      100000 FMFlg1=           0
         NFxFlg=           0 DoJE=T BraDBF=F KetDBF=F FulRan=T
         Omega=  0.000000  0.000000  1.000000  0.000000  0.000000 ICntrl=     500 IOpCl=  0
         NMat0=    1 NMatS0=    1 NMatT0=    0 NMatD0=    1 NMtDS0=    0 NMtDT0=    0
         I1Cent=           0 NGrid=           0.
 Symmetry not used in FoFCou.
 E= -2905.43120826114    
 DIIS: error= 9.82D-04 at cycle   1 NSaved=   1.
 NSaved= 1 IEnMin= 1 EnMin= -2905.43120826114     IErMin= 1 ErrMin= 9.82D-04
 ErrMax= 9.82D-04 EMaxC= 1.00D-01 BMatC= 3.03D-04 BMatP= 3.03D-04
 IDIUse=3 WtCom= 9.90D-01 WtEn= 9.82D-03
 Coeff-Com:  0.100D+01
 Coeff-En:   0.100D+01
 Coeff:      0.100D+01
 Gap=     0.443 Goal=   None    Shift=    0.000
 RMSDP=6.19D-05 MaxDP=1.89D-03              OVMax= 2.65D-03

 Cycle   2  Pass 1  IDiag  1:
 RMSU=  4.38D-05    CP:  1.00D+00
 FoFJK:  IHMeth= 1 ICntrl=     0 DoSepK=T KAlg= 1 I1Cent= 0 FoldK=F
 E= -2905.43126646947     Delta-E=       -0.000058208333 Rises=F Damp=F
 DIIS: error= 7.75D-05 at cycle   2 NSaved=   2.
 NSaved= 2 IEnMin= 2 EnMin= -2905.43126646947     IErMin= 2 ErrMin= 7.75D-05
 ErrMax= 7.75D-05 EMaxC= 1.00D-01 BMatC= 2.34D-06 BMatP= 3.03D-04
 IDIUse=1 WtCom= 1.00D+00 WtEn= 0.00D+00
 Coeff-Com: -0.413D-02 0.100D+01
 Coeff:     -0.413D-02 0.100D+01
 Gap=     0.442 Goal=   None    Shift=    0.000
 RMSDP=1.22D-05 MaxDP=4.46D-04 DE=-5.82D-05 OVMax= 6.24D-04

 Cycle   3  Pass 1  IDiag  1:
 RMSU=  6.58D-06    CP:  1.00D+00  1.13D+00
 FoFJK:  IHMeth= 1 ICntrl=     0 DoSepK=T KAlg= 1 I1Cent= 0 FoldK=F
 E= -2905.43126799934     Delta-E=       -0.000001529871 Rises=F Damp=F
 DIIS: error= 6.29D-05 at cycle   3 NSaved=   3.
 NSaved= 3 IEnMin= 3 EnMin= -2905.43126799934     IErMin= 3 ErrMin= 6.29D-05
 ErrMax= 6.29D-05 EMaxC= 1.00D-01 BMatC= 1.96D-06 BMatP= 2.34D-06
 IDIUse=1 WtCom= 1.00D+00 WtEn= 0.00D+00
 Coeff-Com: -0.815D-02 0.479D+00 0.529D+00
 Coeff:     -0.815D-02 0.479D+00 0.529D+00
 Gap=     0.442 Goal=   None    Shift=    0.000
 RMSDP=4.09D-06 MaxDP=2.15D-04 DE=-1.53D-06 OVMax= 3.11D-04

 Cycle   4  Pass 1  IDiag  1:
 RMSU=  2.29D-06    CP:  1.00D+00  1.15D+00  7.60D-01
 FoFJK:  IHMeth= 1 ICntrl=     0 DoSepK=T KAlg= 1 I1Cent= 0 FoldK=F
 E= -2905.43126919985     Delta-E=       -0.000001200508 Rises=F Damp=F
 DIIS: error= 1.92D-05 at cycle   4 NSaved=   4.
 NSaved= 4 IEnMin= 4 EnMin= -2905.43126919985     IErMin= 4 ErrMin= 1.92D-05
 ErrMax= 1.92D-05 EMaxC= 1.00D-01 BMatC= 1.14D-07 BMatP= 1.96D-06
 IDIUse=1 WtCom= 1.00D+00 WtEn= 0.00D+00
 Coeff-Com: -0.212D-02 0.358D-01 0.183D+00 0.784D+00
 Coeff:     -0.212D-02 0.358D-01 0.183D+00 0.784D+00
 Gap=     0.442 Goal=   None    Shift=    0.000
 RMSDP=1.62D-06 MaxDP=5.66D-05 DE=-1.20D-06 OVMax= 9.72D-05

 Cycle   5  Pass 1  IDiag  1:
 RMSU=  7.98D-07    CP:  1.00D+00  1.16D+00  8.59D-01  1.06D+00
 FoFJK:  IHMeth= 1 ICntrl=     0 DoSepK=T KAlg= 1 I1Cent= 0 FoldK=F
 E= -2905.43126928626     Delta-E=       -0.000000086407 Rises=F Damp=F
 DIIS: error= 7.54D-06 at cycle   5 NSaved=   5.
 NSaved= 5 IEnMin= 5 EnMin= -2905.43126928626     IErMin= 5 ErrMin= 7.54D-06
 ErrMax= 7.54D-06 EMaxC= 1.00D-01 BMatC= 1.93D-08 BMatP= 1.14D-07
 IDIUse=1 WtCom= 1.00D+00 WtEn= 0.00D+00
 Coeff-Com:  0.234D-03-0.560D-01 0.197D-02 0.341D+00 0.713D+00
 Coeff:      0.234D-03-0.560D-01 0.197D-02 0.341D+00 0.713D+00
 Gap=     0.442 Goal=   None    Shift=    0.000
 RMSDP=7.04D-07 MaxDP=2.80D-05 DE=-8.64D-08 OVMax= 3.60D-05

 Cycle   6  Pass 1  IDiag  1:
 RMSU=  2.46D-07    CP:  1.00D+00  1.16D+00  8.99D-01  1.19D+00  8.97D-01
 FoFJK:  IHMeth= 1 ICntrl=     0 DoSepK=T KAlg= 1 I1Cent= 0 FoldK=F
 E= -2905.43126930189     Delta-E=       -0.000000015635 Rises=F Damp=F
 DIIS: error= 1.44D-06 at cycle   6 NSaved=   6.
 NSaved= 6 IEnMin= 6 EnMin= -2905.43126930189     IErMin= 6 ErrMin= 1.44D-06
 ErrMax= 1.44D-06 EMaxC= 1.00D-01 BMatC= 6.86D-10 BMatP= 1.93D-08
 IDIUse=1 WtCom= 1.00D+00 WtEn= 0.00D+00
 Coeff-Com:  0.178D-03-0.192D-01-0.890D-02 0.609D-01 0.215D+00 0.752D+00
 Coeff:      0.178D-03-0.192D-01-0.890D-02 0.609D-01 0.215D+00 0.752D+00
 Gap=     0.442 Goal=   None    Shift=    0.000
 RMSDP=1.45D-07 MaxDP=5.54D-06 DE=-1.56D-08 OVMax= 8.96D-06

 Cycle   7  Pass 1  IDiag  1:
 RMSU=  6.20D-08    CP:  1.00D+00  1.16D+00  9.05D-01  1.21D+00  9.55D-01
                    CP:  1.03D+00
 FoFJK:  IHMeth= 1 ICntrl=     0 DoSepK=T KAlg= 1 I1Cent= 0 FoldK=F
 E= -2905.43126930267     Delta-E=       -0.000000000772 Rises=F Damp=F
 DIIS: error= 3.03D-07 at cycle   7 NSaved=   7.
 NSaved= 7 IEnMin= 7 EnMin= -2905.43126930267     IErMin= 7 ErrMin= 3.03D-07
 ErrMax= 3.03D-07 EMaxC= 1.00D-01 BMatC= 3.97D-11 BMatP= 6.86D-10
 IDIUse=1 WtCom= 1.00D+00 WtEn= 0.00D+00
 Coeff-Com: -0.202D-04 0.612D-02-0.603D-05-0.388D-01-0.776D-01 0.284D-01
 Coeff-Com:  0.108D+01
 Coeff:     -0.202D-04 0.612D-02-0.603D-05-0.388D-01-0.776D-01 0.284D-01
 Coeff:      0.108D+01
 Gap=     0.442 Goal=   None    Shift=    0.000
 RMSDP=6.80D-08 MaxDP=2.67D-06 DE=-7.72D-10 OVMax= 5.08D-06

 Cycle   8  Pass 1  IDiag  1:
 RMSU=  2.20D-08    CP:  1.00D+00  1.16D+00  9.07D-01  1.22D+00  9.71D-01
                    CP:  1.15D+00  1.23D+00
 FoFJK:  IHMeth= 1 ICntrl=     0 DoSepK=T KAlg= 1 I1Cent= 0 FoldK=F
 E= -2905.43126930276     Delta-E=       -0.000000000094 Rises=F Damp=F
 DIIS: error= 6.61D-08 at cycle   8 NSaved=   8.
 NSaved= 8 IEnMin= 8 EnMin= -2905.43126930276     IErMin= 8 ErrMin= 6.61D-08
 ErrMax= 6.61D-08 EMaxC= 1.00D-01 BMatC= 1.90D-12 BMatP= 3.97D-11
 IDIUse=1 WtCom= 1.00D+00 WtEn= 0.00D+00
 Coeff-Com: -0.120D-04 0.194D-02 0.339D-03-0.979D-02-0.217D-01-0.234D-01
 Coeff-Com:  0.166D+00 0.887D+00
 Coeff:     -0.120D-04 0.194D-02 0.339D-03-0.979D-02-0.217D-01-0.234D-01
 Coeff:      0.166D+00 0.887D+00
 Gap=     0.442 Goal=   None    Shift=    0.000
 RMSDP=1.18D-08 MaxDP=2.79D-07 DE=-9.37D-11 OVMax= 9.43D-07

 Cycle   9  Pass 1  IDiag  1:
 RMSU=  4.73D-09    CP:  1.00D+00  1.16D+00  9.07D-01  1.22D+00  9.70D-01
                    CP:  1.16D+00  1.29D+00  1.25D+00
 FoFJK:  IHMeth= 1 ICntrl=     0 DoSepK=T KAlg= 1 I1Cent= 0 FoldK=F
 E= -2905.43126930275     Delta-E=        0.000000000011 Rises=F Damp=F
 DIIS: error= 2.41D-08 at cycle   9 NSaved=   9.
 NSaved= 9 IEnMin= 8 EnMin= -2905.43126930276     IErMin= 9 ErrMin= 2.41D-08
 ErrMax= 2.41D-08 EMaxC= 1.00D-01 BMatC= 2.17D-13 BMatP= 1.90D-12
 IDIUse=1 WtCom= 1.00D+00 WtEn= 0.00D+00
 Coeff-Com:  0.244D-05-0.689D-03-0.257D-04 0.419D-02 0.915D-02-0.223D-02
 Coeff-Com: -0.121D+00-0.588D-02 0.112D+01
 Coeff:      0.244D-05-0.689D-03-0.257D-04 0.419D-02 0.915D-02-0.223D-02
 Coeff:     -0.121D+00-0.588D-02 0.112D+01
 Gap=     0.442 Goal=   None    Shift=    0.000
 RMSDP=6.89D-09 MaxDP=2.43D-07 DE= 1.09D-11 OVMax= 5.85D-07

 SCF Done:  E(RwB97XD) =  -2905.43126930     A.U. after    9 cycles
             Convg  =    0.6894D-08             -V/T =  2.0016
 KE= 2.900912610114D+03 PE=-7.216809441427D+03 EE= 1.271159715107D+03
 Leave Link  502 at Thu Apr 16 12:56:28 2020, MaxMem= 1073741824 cpu:     206.4
 (Enter /home/matheus/.gaussian/g09/l108.exe)
 Variable Step   Value    
 -------- ---- -----------
     1       4    6.425069
 Leave Link  108 at Thu Apr 16 12:56:28 2020, MaxMem= 1073741824 cpu:       0.0
 (Enter /home/matheus/.gaussian/g09/l202.exe)
 ---------------------------------------------------------------------------------------------------
                            Z-MATRIX (ANGSTROMS AND DEGREES)
   CD    Cent   Atom    N1       Length/X        N2       Alpha/Y        N3        Beta/Z          J
 ---------------------------------------------------------------------------------------------------
      1      1  O        0   0.000000          0.000000          0.725000
      2      2  O        0   0.000000          0.000000         -0.725000
      3      3  H        0  -0.904763         -0.159534          1.023510
      4      4  H        0   0.000000          0.918721         -1.023510
      5      5  Kr       0   0.000000          3.400000          0.000000
 ---------------------------------------------------------------------------------------------------
                         Z-Matrix orientation:                         
 ---------------------------------------------------------------------
 Center     Atomic      Atomic             Coordinates (Angstroms)
 Number     Number       Type             X           Y           Z
 ---------------------------------------------------------------------
      1          8           0        0.000000    0.000000    0.725000
      2          8           0        0.000000    0.000000   -0.725000
      3          1           0       -0.904763   -0.159534    1.023510
      4          1           0        0.000000    0.918721   -1.023510
      5         36           0        0.000000    3.400000    0.000000
 ---------------------------------------------------------------------
                    Distance matrix (angstroms):
                    1          2          3          4          5
     1  O    0.000000
     2  O    1.450000   0.000000
     3  H    0.966000   1.975180   0.000000
     4  H    1.975180   0.966000   2.484255   0.000000
[...]
 Coeff-Com: -0.660D-02 0.101D+01
 Coeff:     -0.660D-02 0.101D+01
 Gap=     0.442 Goal=   None    Shift=    0.000
 RMSDP=2.40D-06 MaxDP=9.04D-05 DE=-1.03D-06 OVMax= 8.29D-05

 Cycle   3  Pass 1  IDiag  1:
 RMSU=  9.25D-07    CP:  1.00D+00  1.11D+00
 FoFJK:  IHMeth= 1 ICntrl=     0 DoSepK=T KAlg= 1 I1Cent= 0 FoldK=F
 E= -2905.43117274410     Delta-E=       -0.000000031423 Rises=F Damp=F
 DIIS: error= 5.34D-06 at cycle   3 NSaved=   3.
 NSaved= 3 IEnMin= 3 EnMin= -2905.43117274410     IErMin= 3 ErrMin= 5.34D-06
 ErrMax= 5.34D-06 EMaxC= 1.00D-01 BMatC= 4.97D-09 BMatP= 2.37D-08
 IDIUse=1 WtCom= 1.00D+00 WtEn= 0.00D+00
 Coeff-Com: -0.604D-02 0.271D+00 0.735D+00
 Coeff:     -0.604D-02 0.271D+00 0.735D+00
 Gap=     0.442 Goal=   None    Shift=    0.000
 RMSDP=3.65D-07 MaxDP=1.14D-05 DE=-3.14D-08 OVMax= 2.59D-05

 Cycle   4  Pass 1  IDiag  1:
 RMSU=  1.95D-07    CP:  1.00D+00  1.12D+00  1.07D+00
 FoFJK:  IHMeth= 1 ICntrl=     0 DoSepK=T KAlg= 1 I1Cent= 0 FoldK=F
 E= -2905.43117274826     Delta-E=       -0.000000004164 Rises=F Damp=F
 DIIS: error= 2.02D-06 at cycle   4 NSaved=   4.
 NSaved= 4 IEnMin= 4 EnMin= -2905.43117274826     IErMin= 4 ErrMin= 2.02D-06
 ErrMax= 2.02D-06 EMaxC= 1.00D-01 BMatC= 1.06D-09 BMatP= 4.97D-09
 IDIUse=1 WtCom= 1.00D+00 WtEn= 0.00D+00
 Coeff-Com: -0.192D-02 0.297D-01 0.292D+00 0.680D+00
 Coeff:     -0.192D-02 0.297D-01 0.292D+00 0.680D+00
 Gap=     0.442 Goal=   None    Shift=    0.000
 RMSDP=1.78D-07 MaxDP=5.53D-06 DE=-4.16D-09 OVMax= 1.01D-05

 Cycle   5  Pass 1  IDiag  1:
 RMSU=  8.31D-08    CP:  1.00D+00  1.13D+00  1.16D+00  1.00D+00
 FoFJK:  IHMeth= 1 ICntrl=     0 DoSepK=T KAlg= 1 I1Cent= 0 FoldK=F
 E= -2905.43117274903     Delta-E=       -0.000000000774 Rises=F Damp=F
 DIIS: error= 9.50D-07 at cycle   5 NSaved=   5.
 NSaved= 5 IEnMin= 5 EnMin= -2905.43117274903     IErMin= 5 ErrMin= 9.50D-07
 ErrMax= 9.50D-07 EMaxC= 1.00D-01 BMatC= 2.32D-10 BMatP= 1.06D-09
 IDIUse=1 WtCom= 1.00D+00 WtEn= 0.00D+00
 Coeff-Com:  0.481D-03-0.516D-01-0.345D-01 0.333D+00 0.752D+00
 Coeff:      0.481D-03-0.516D-01-0.345D-01 0.333D+00 0.752D+00
 Gap=     0.442 Goal=   None    Shift=    0.000
 RMSDP=8.88D-08 MaxDP=2.63D-06 DE=-7.74D-10 OVMax= 5.11D-06

 Cycle   6  Pass 1  IDiag  1:
 RMSU=  2.95D-08    CP:  1.00D+00  1.13D+00  1.20D+00  1.14D+00  9.96D-01
 FoFJK:  IHMeth= 1 ICntrl=     0 DoSepK=T KAlg= 1 I1Cent= 0 FoldK=F
 E= -2905.43117274924     Delta-E=       -0.000000000210 Rises=F Damp=F
 DIIS: error= 1.16D-07 at cycle   6 NSaved=   6.
 NSaved= 6 IEnMin= 6 EnMin= -2905.43117274924     IErMin= 6 ErrMin= 1.16D-07
 ErrMax= 1.16D-07 EMaxC= 1.00D-01 BMatC= 4.98D-12 BMatP= 2.32D-10
 IDIUse=1 WtCom= 1.00D+00 WtEn= 0.00D+00
 Coeff-Com:  0.156D-03-0.847D-02-0.183D-01 0.182D-01 0.116D+00 0.892D+00
 Coeff:      0.156D-03-0.847D-02-0.183D-01 0.182D-01 0.116D+00 0.892D+00
 Gap=     0.442 Goal=   None    Shift=    0.000
 RMSDP=1.77D-08 MaxDP=5.49D-07 DE=-2.10D-10 OVMax= 1.42D-06

 Cycle   7  Pass 1  IDiag  1:
 RMSU=  8.47D-09    CP:  1.00D+00  1.13D+00  1.20D+00  1.16D+00  1.06D+00
                    CP:  1.20D+00
 FoFJK:  IHMeth= 1 ICntrl=     0 DoSepK=T KAlg= 1 I1Cent= 0 FoldK=F
 E= -2905.43117274924     Delta-E=        0.000000000004 Rises=F Damp=F
 DIIS: error= 8.96D-08 at cycle   7 NSaved=   7.
 NSaved= 7 IEnMin= 6 EnMin= -2905.43117274924     IErMin= 7 ErrMin= 8.96D-08
 ErrMax= 8.96D-08 EMaxC= 1.00D-01 BMatC= 1.42D-12 BMatP= 4.98D-12
 IDIUse=1 WtCom= 1.00D+00 WtEn= 0.00D+00
 Coeff-Com: -0.330D-04 0.693D-02-0.889D-03-0.595D-01-0.103D+00 0.337D+00
 Coeff-Com:  0.819D+00
 Coeff:     -0.330D-04 0.693D-02-0.889D-03-0.595D-01-0.103D+00 0.337D+00
 Coeff:      0.819D+00
 Gap=     0.442 Goal=   None    Shift=    0.000
 RMSDP=9.01D-09 MaxDP=2.31D-07 DE= 4.09D-12 OVMax= 8.56D-07

 SCF Done:  E(RwB97XD) =  -2905.43117275     A.U. after    7 cycles
             Convg  =    0.9011D-08             -V/T =  2.0016
 KE= 2.900923678509D+03 PE=-7.151275905066D+03 EE= 1.238495537224D+03
 Leave Link  502 at Thu Apr 16 13:02:32 2020, MaxMem= 1073741824 cpu:     155.1
 (Enter /home/matheus/.gaussian/g09/l108.exe)
 Variable Step   Value    
 -------- ---- -----------
     1      20    9.448631
 Leave Link  108 at Thu Apr 16 13:02:32 2020, MaxMem= 1073741824 cpu:       0.0
 (Enter /home/matheus/.gaussian/g09/l202.exe)
 ---------------------------------------------------------------------------------------------------
                            Z-MATRIX (ANGSTROMS AND DEGREES)
   CD    Cent   Atom    N1       Length/X        N2       Alpha/Y        N3        Beta/Z          J
 ---------------------------------------------------------------------------------------------------
      1      1  O        0   0.000000          0.000000          0.725000
      2      2  O        0   0.000000          0.000000         -0.725000
      3      3  H        0  -0.904763         -0.159534          1.023510
      4      4  H        0   0.000000          0.918721         -1.023510
      5      5  Kr       0   0.000000          5.000000          0.000000
 ---------------------------------------------------------------------------------------------------
                         Z-Matrix orientation:                         
 ---------------------------------------------------------------------
 Center     Atomic      Atomic             Coordinates (Angstroms)
 Number     Number       Type             X           Y           Z
 ---------------------------------------------------------------------
      1          8           0        0.000000    0.000000    0.725000
      2          8           0        0.000000    0.000000   -0.725000
      3          1           0       -0.904763   -0.159534    1.023510
      4          1           0        0.000000    0.918721   -1.023510
      5         36           0        0.000000    5.000000    0.000000
 ---------------------------------------------------------------------
                    Distance matrix (angstroms):
                    1          2          3          4          5
     1  O    0.000000
     2  O    1.450000   0.000000
     3  H    0.966000   1.975180   0.000000
     4  H    1.975180   0.966000   2.484255   0.000000
     5  Kr   5.052289   5.052289   5.337318   4.207661   0.000000
 Stoichiometry    H2KrO2
 Framework group  C1[X(H2KrO2)]
 Deg. of freedom     9
 Full point group                 C1      NOp   1
 RotChk:  IX=0 Diff= 4.11D-04
 Largest Abelian subgroup         C1      NOp   1
 Largest concise Abelian subgroup C1      NOp   1
                         Standard orientation:                         
 ---------------------------------------------------------------------
 Center     Atomic      Atomic             Coordinates (Angstroms)
 Number     Number       Type             X           Y           Z
 ---------------------------------------------------------------------
      1          8           0       -3.349822   -0.703971   -0.118573
      2          8           0       -3.344163    0.739772    0.015865
      3          1           0       -3.520251   -1.084259    0.752914
      4          1           0       -2.424338    1.032507    0.053058
      5         36           0        1.652680   -0.006518    0.000436
 ---------------------------------------------------------------------
 Rotational constants (GHZ):     25.6241432      0.8406595      0.8159307
 Leave Link  202 at Thu Apr 16 13:02:32 2020, MaxMem= 1073741824 cpu:       0.0
 (Enter /home/matheus/.gaussian/g09/l301.exe)
 Standard basis: Aug-CC-pVTZ (5D, 7F)
 Ernie: Thresh=  0.10000D-02 Tol=  0.10000D-05 Strict=F.
 Ernie:  38 primitive shells out of 205 were deleted.
 There are   197 symmetry adapted basis functions of A   symmetry.
 Integral buffers will be    131072 words long.
 Raffenetti 2 integral format.
 Two-electron integral symmetry is turned on.
   197 basis functions,   415 primitive gaussians,   229 cartesian basis functions
    27 alpha electrons       27 beta electrons
       nuclear repulsion energy       105.0483703624 Hartrees.
 IExCor= 4639 DFT=T Ex+Corr=wB97XD ExCW=0 ScaHFX=  1.000000
 ScaDFX=  1.000000  1.000000  1.000000  1.000000 ScalE2=  1.000000  1.000000
 IRadAn=      5 IRanWt=     -1 IRanGd=            0 ICorTp=0
  HFx wShort=  0.000000 wLong=  0.250000 cFull=  0.222036 cShort=  0.000000 cLong=  0.777964
  DFx wShort=  0.000000 wLong=  0.250000 cFull=  0.000000 cShort=  0.000000 cLong=  1.000000
 NAtoms=    5 NActive=    5 NUniq=    5 SFac= 1.00D+00 NAtFMM=   60 NAOKFM=F Big=F
 R6Disp: Dispersion energy =        -0.0004832743 Hartrees.
 Nuclear repulsion after empirical dispersion term =      105.0478870881 Hartrees.
 Leave Link  301 at Thu Apr 16 13:02:32 2020, MaxMem= 1073741824 cpu:       0.2
 (Enter /home/matheus/.gaussian/g09/l302.exe)
 NPDir=0 NMtPBC=     1 NCelOv=     1 NCel=       1 NClECP=     1 NCelD=      1
         NCelK=      1 NCelE2=     1 NClLst=     1 CellRange=     0.0.
 One-electron integrals computed using PRISM.
 NBasis=   197 RedAO= T  NBF=   197
 NBsUse=   197 1.00D-06 NBFU=   197
 Precomputing XC quadrature grid using
 IXCGrd= 2 IRadAn=           5 IRanWt=          -1 IRanGd=           0 AccXCQ= 0.00D+00.
 NRdTot=     427 NPtTot=      123814 NUsed=      126881 NTot=      126913
 NSgBfM=   228   228   229   229   229 NAtAll=     5     5.
 Leave Link  302 at Thu Apr 16 13:02:32 2020, MaxMem= 1073741824 cpu:       1.1
 (Enter /home/matheus/.gaussian/g09/l303.exe)
 DipDrv:  MaxL=1.
 Leave Link  303 at Thu Apr 16 13:02:32 2020, MaxMem= 1073741824 cpu:       0.2
 (Enter /home/matheus/.gaussian/g09/l401.exe)
 Initial guess read from the read-write file.
 B after Tr=     0.000000    0.000000    0.000000
         Rot=    1.000000    0.000000    0.000000    0.000000 Ang=   0.00 deg.
 Guess basis will be translated and rotated to current coordinates.
 Initial guess orbital symmetries:
       Occupied  (A) (A) (A) (A) (A) (A) (A) (A) (A) (A) (A) (A)
                 (A) (A) (A) (A) (A) (A) (A) (A) (A) (A) (A) (A)
                 (A) (A) (A)
       Virtual   (A) (A) (A) (A) (A) (A) (A) (A) (A) (A) (A) (A)
                 (A) (A) (A) (A) (A) (A) (A) (A) (A) (A) (A) (A)
                 (A) (A) (A) (A) (A) (A) (A) (A) (A) (A) (A) (A)
                 (A) (A) (A) (A) (A) (A) (A) (A) (A) (A) (A) (A)
                 (A) (A) (A) (A) (A) (A) (A) (A) (A) (A) (A) (A)
                 (A) (A) (A) (A) (A) (A) (A) (A) (A) (A) (A) (A)
                 (A) (A) (A) (A) (A) (A) (A) (A) (A) (A) (A) (A)
                 (A) (A) (A) (A) (A) (A) (A) (A) (A) (A) (A) (A)
                 (A) (A) (A) (A) (A) (A) (A) (A) (A) (A) (A) (A)
                 (A) (A) (A) (A) (A) (A) (A) (A) (A) (A) (A) (A)
                 (A) (A) (A) (A) (A) (A) (A) (A) (A) (A) (A) (A)
                 (A) (A) (A) (A) (A) (A) (A) (A) (A) (A) (A) (A)
                 (A) (A) (A) (A) (A) (A) (A) (A) (A) (A) (A) (A)
                 (A) (A) (A) (A) (A) (A) (A) (A) (A) (A) (A) (A)
                 (A) (A)
 The electronic state of the initial guess is 1-A.
 Generating alternative initial guess.
 Harris functional with IExCor= 4639 diagonalized for initial guess.
 ExpMin= 2.53D-02 ExpMax= 1.17D+07 ExpMxC= 1.33D+04 IAcc=3 IRadAn=         5 AccDes= 0.00D+00
 HarFok:  IExCor= 4639 AccDes= 0.00D+00 IRadAn=         5 IDoV= 1
 ScaDFX=  1.000000  1.000000  1.000000  1.000000
 FoFCou: FMM=F IPFlag=           0 FMFlag=      100000 FMFlg1=           0
         NFxFlg=           0 DoJE=T BraDBF=F KetDBF=T FulRan=T
         Omega=  0.000000  0.000000  1.000000  0.000000  0.000000 ICntrl=     500 IOpCl=  0
         NMat0=    1 NMatS0=    1 NMatT0=    0 NMatD0=    1 NMtDS0=    0 NMtDT0=    0
         I1Cent=           4 NGrid=           0.
 Petite list used in FoFCou.
 Harris En= -2875.40603955249    
 Leave Link  401 at Thu Apr 16 13:02:32 2020, MaxMem= 1073741824 cpu:       4.3
 (Enter /home/matheus/.gaussian/g09/l502.exe)
 Closed shell SCF:
 Requested convergence on RMS density matrix=1.00D-08 within 128 cycles.
 Requested convergence on MAX density matrix=1.00D-06.
 Requested convergence on             energy=1.00D-06.
 No special actions if energy rises.
 Using DIIS extrapolation, IDIIS=  1040.
 Integral symmetry usage will be decided dynamically.
       126823 words used for storage of precomputed grid.
 IEnd=      305770 IEndB=      305770 NGot=  1073741824 MDV=  1073505365
 LenX=  1073505365 LenY=  1073452483
 Fock matrices will be formed incrementally for  20 cycles.

 Cycle   1  Pass 1  IDiag  1:
 FoFJK:  IHMeth= 1 ICntrl=     0 DoSepK=T KAlg= 1 I1Cent= 0 FoldK=F
 FoFCou: FMM=F IPFlag=           0 FMFlag=      100000 FMFlg1=           0
         NFxFlg=           0 DoJE=T BraDBF=F KetDBF=F FulRan=T
         Omega=  0.000000  0.000000  1.000000  0.000000  0.000000 ICntrl=     500 IOpCl=  0
         NMat0=    1 NMatS0=    1 NMatT0=    0 NMatD0=    1 NMtDS0=    0 NMtDT0=    0
         I1Cent=           0 NGrid=           0.
 Symmetry not used in FoFCou.
 E= -2905.43112361612    
 DIIS: error= 1.23D-04 at cycle   1 NSaved=   1.
 NSaved= 1 IEnMin= 1 EnMin= -2905.43112361612     IErMin= 1 ErrMin= 1.23D-04
 ErrMax= 1.23D-04 EMaxC= 1.00D-01 BMatC= 3.54D-06 BMatP= 3.54D-06
 IDIUse=3 WtCom= 9.99D-01 WtEn= 1.23D-03
 Coeff-Com:  0.100D+01
 Coeff-En:   0.100D+01
 Coeff:      0.100D+01
 Gap=     0.442 Goal=   None    Shift=    0.000
 RMSDP=1.74D-05 MaxDP=6.68D-04              OVMax= 3.94D-04

 Cycle   2  Pass 1  IDiag  1:
 RMSU=  1.23D-05    CP:  1.00D+00
 FoFJK:  IHMeth= 1 ICntrl=     0 DoSepK=T KAlg= 1 I1Cent= 0 FoldK=F
 E= -2905.43112447538     Delta-E=       -0.000000859266 Rises=F Damp=F
 DIIS: error= 9.97D-06 at cycle   2 NSaved=   2.
 NSaved= 2 IEnMin= 2 EnMin= -2905.43112447538     IErMin= 2 ErrMin= 9.97D-06
 ErrMax= 9.97D-06 EMaxC= 1.00D-01 BMatC= 1.95D-08 BMatP= 3.54D-06
 IDIUse=1 WtCom= 1.00D+00 WtEn= 0.00D+00
 Coeff-Com: -0.618D-02 0.101D+01
 Coeff:     -0.618D-02 0.101D+01
 Gap=     0.442 Goal=   None    Shift=    0.000
 RMSDP=2.17D-06 MaxDP=7.72D-05 DE=-8.59D-07 OVMax= 7.55D-05

 Cycle   3  Pass 1  IDiag  1:
 RMSU=  8.28D-07    CP:  1.00D+00  1.10D+00
 FoFJK:  IHMeth= 1 ICntrl=     0 DoSepK=T KAlg= 1 I1Cent= 0 FoldK=F
 E= -2905.43112450105     Delta-E=       -0.000000025665 Rises=F Damp=F
 DIIS: error= 4.84D-06 at cycle   3 NSaved=   3.
 NSaved= 3 IEnMin= 3 EnMin= -2905.43112450105     IErMin= 3 ErrMin= 4.84D-06
 ErrMax= 4.84D-06 EMaxC= 1.00D-01 BMatC= 3.99D-09 BMatP= 1.95D-08
 IDIUse=1 WtCom= 1.00D+00 WtEn= 0.00D+00
 Coeff-Com: -0.564D-02 0.269D+00 0.737D+00
 Coeff:     -0.564D-02 0.269D+00 0.737D+00
 Gap=     0.442 Goal=   None    Shift=    0.000
 RMSDP=3.20D-07 MaxDP=1.02D-05 DE=-2.57D-08 OVMax= 2.33D-05

 Cycle   4  Pass 1  IDiag  1:
 RMSU=  1.74D-07    CP:  1.00D+00  1.12D+00  1.07D+00
 FoFJK:  IHMeth= 1 ICntrl=     0 DoSepK=T KAlg= 1 I1Cent= 0 FoldK=F
 E= -2905.43112450443     Delta-E=       -0.000000003382 Rises=F Damp=F
 DIIS: error= 1.74D-06 at cycle   4 NSaved=   4.
 NSaved= 4 IEnMin= 4 EnMin= -2905.43112450443     IErMin= 4 ErrMin= 1.74D-06
 ErrMax= 1.74D-06 EMaxC= 1.00D-01 BMatC= 7.98D-10 BMatP= 3.99D-09
 IDIUse=1 WtCom= 1.00D+00 WtEn= 0.00D+00
 Coeff-Com: -0.173D-02 0.270D-01 0.282D+00 0.693D+00
 Coeff:     -0.173D-02 0.270D-01 0.282D+00 0.693D+00
 Gap=     0.442 Goal=   None    Shift=    0.000
 RMSDP=1.61D-07 MaxDP=4.93D-06 DE=-3.38D-09 OVMax= 9.08D-06

 Cycle   5  Pass 1  IDiag  1:
 RMSU=  7.47D-08    CP:  1.00D+00  1.12D+00  1.15D+00  1.02D+00
 FoFJK:  IHMeth= 1 ICntrl=     0 DoSepK=T KAlg= 1 I1Cent= 0 FoldK=F
 E= -2905.43112450504     Delta-E=       -0.000000000610 Rises=F Damp=F
 DIIS: error= 8.81D-07 at cycle   5 NSaved=   5.
 NSaved= 5 IEnMin= 5 EnMin= -2905.43112450504     IErMin= 5 ErrMin= 8.81D-07
 ErrMax= 8.81D-07 EMaxC= 1.00D-01 BMatC= 1.96D-10 BMatP= 7.98D-10
 IDIUse=1 WtCom= 1.00D+00 WtEn= 0.00D+00
 Coeff-Com:  0.455D-03-0.516D-01-0.351D-01 0.349D+00 0.737D+00
 Coeff:      0.455D-03-0.516D-01-0.351D-01 0.349D+00 0.737D+00
 Gap=     0.442 Goal=   None    Shift=    0.000
 RMSDP=7.73D-08 MaxDP=2.21D-06 DE=-6.10D-10 OVMax= 4.45D-06

 Cycle   6  Pass 1  IDiag  1:
 RMSU=  2.70D-08    CP:  1.00D+00  1.12D+00  1.19D+00  1.16D+00  9.87D-01
 FoFJK:  IHMeth= 1 ICntrl=     0 DoSepK=T KAlg= 1 I1Cent= 0 FoldK=F
 E= -2905.43112450518     Delta-E=       -0.000000000141 Rises=F Damp=F
 DIIS: error= 1.07D-07 at cycle   6 NSaved=   6.
 NSaved= 6 IEnMin= 6 EnMin= -2905.43112450518     IErMin= 6 ErrMin= 1.07D-07
 ErrMax= 1.07D-07 EMaxC= 1.00D-01 BMatC= 4.45D-12 BMatP= 1.96D-10
 IDIUse=1 WtCom= 1.00D+00 WtEn= 0.00D+00
 Coeff-Com:  0.157D-03-0.938D-02-0.193D-01 0.244D-01 0.127D+00 0.877D+00
 Coeff:      0.157D-03-0.938D-02-0.193D-01 0.244D-01 0.127D+00 0.877D+00
 Gap=     0.442 Goal=   None    Shift=    0.000
 RMSDP=1.62D-08 MaxDP=4.82D-07 DE=-1.41D-10 OVMax= 1.34D-06

 Cycle   7  Pass 1  IDiag  1:
 RMSU=  7.89D-09    CP:  1.00D+00  1.12D+00  1.19D+00  1.18D+00  1.06D+00
                    CP:  1.20D+00
 FoFJK:  IHMeth= 1 ICntrl=     0 DoSepK=T KAlg= 1 I1Cent= 0 FoldK=F
 E= -2905.43112450519     Delta-E=       -0.000000000006 Rises=F Damp=F
 DIIS: error= 8.38D-08 at cycle   7 NSaved=   7.
 NSaved= 7 IEnMin= 7 EnMin= -2905.43112450519     IErMin= 7 ErrMin= 8.38D-08
 ErrMax= 8.38D-08 EMaxC= 1.00D-01 BMatC= 1.20D-12 BMatP= 4.45D-12
 IDIUse=1 WtCom= 1.00D+00 WtEn= 0.00D+00
 Coeff-Com: -0.314D-04 0.693D-02-0.816D-03-0.621D-01-0.100D+00 0.322D+00
 Coeff-Com:  0.834D+00
 Coeff:     -0.314D-04 0.693D-02-0.816D-03-0.621D-01-0.100D+00 0.322D+00
 Coeff:      0.834D+00
 Gap=     0.442 Goal=   None    Shift=    0.000
 RMSDP=8.51D-09 MaxDP=2.10D-07 DE=-5.91D-12 OVMax= 8.32D-07

 SCF Done:  E(RwB97XD) =  -2905.43112451     A.U. after    7 cycles
             Convg  =    0.8515D-08             -V/T =  2.0016
 KE= 2.900924165052D+03 PE=-7.148529316744D+03 EE= 1.237126140099D+03
 Leave Link  502 at Thu Apr 16 13:02:51 2020, MaxMem= 1073741824 cpu:     152.1
 (Enter /home/matheus/.gaussian/g09/l108.exe)
 Scan completed.

 Summary of the potential surface scan:
   N      R1          SCF    
 ----  ---------  -----------
    1     3.0000  -2905.42758
    2     3.1000  -2905.42936
    3     3.2000  -2905.43053
    4     3.3000  -2905.43127
    5     3.4000  -2905.43170
    6     3.5000  -2905.43194
    7     3.6000  -2905.43204
    8     3.7000  -2905.43206
    9     3.8000  -2905.43202
   10     3.9000  -2905.43196
   11     4.0000  -2905.43187
   12     4.1000  -2905.43178
   13     4.2000  -2905.43169
   14     4.3000  -2905.43159
   15     4.4000  -2905.43151
   16     4.5000  -2905.43143
   17     4.6000  -2905.43135
   18     4.7000  -2905.43129
   19     4.8000  -2905.43123
   20     4.9000  -2905.43117
   21     5.0000  -2905.43112
 ----  ---------  -----------
  
 Leave Link  108 at Thu Apr 16 13:02:51 2020, MaxMem= 1073741824 cpu:       0.0
 (Enter /home/matheus/.gaussian/g09/l9999.exe)

 Test job not archived.
 1\1\GINC-REDGIANT\Scan\RwB97XD\Aug-CC-pVTZ\H2Kr1O2\ROOT\16-Apr-2020\1\
 \#p wb97xd/aug-cc-PVTz iop(3/107=0250000000) iop(3/108=0250000000) int
 =ultrafine Scan\\TCC\\0,1\O,0,0.,0.,0.725\O,0,0.,0.,-0.725\H,0,-0.9047
 631646,-0.1595341571,1.0235104166\H,0,0.,0.9187205947,-1.0235104166\Kr
 ,0,0.,R1,0.\\R1=3.,s,20,0.1\\Version=EM64L-G09RevC.01\State=1-A\HF=-29
 05.4275809,-2905.4293649,-2905.4305278,-2905.4312693,-2905.4317049,-29
 05.4319419,-2905.432042,-2905.4320615,-2905.4320247,-2905.4319559,-290
 5.4318715,-2905.43178,-2905.4316874,-2905.4315948,-2905.4315096,-2905.
 4314301,-2905.431355,-2905.4312873,-2905.4312277,-2905.4311727,-2905.4
 311245\RMSD=8.891e-09,6.558e-09,6.806e-09,6.894e-09,6.650e-09,5.940e-0
 9,5.168e-09,4.032e-09,3.403e-09,9.876e-09,9.083e-09,7.708e-09,6.673e-0
 9,5.832e-09,5.029e-09,9.573e-09,4.407e-09,3.993e-09,8.862e-09,9.011e-0
 9,8.515e-09\PG=C01 [X(H2Kr1O2)]\\@


 IF OTHER PEOPLE ARE GOING TO TALK, CONVERSATION IS SIMPLY IMPOSSIBLE.

                                               -- WHISTLER'S PRINCIPLE
 Job cpu time:  0 days  1 hours  6 minutes 41.9 seconds.
 File lengths (MBytes):  RWF=     27 Int=      0 D2E=      0 Chk=      4 Scr=      1
 Normal termination of Gaussian 09 at Thu Apr 16 13:02:51 2020.
