 Entering Gaussian System, Link 0=g09
 Input=/home/matheus/.tcc/Inputs-wb97xd/H2O2-Kr_29.com
 Output=/home/matheus/.tcc/Logs-wb97xd/H2O2-Kr_29.log
 Initial command:
 /home/matheus/.gaussian/g09/l1.exe /home/matheus/.gaussian/g09/scratch/Gau-26483.inp -scrdir=/home/matheus/.gaussian/g09/scratch/
 Entering Link 1 = /home/matheus/.gaussian/g09/l1.exe PID=     26486.
  
 Copyright (c) 1988,1990,1992,1993,1995,1998,2003,2009,2011,
            Gaussian, Inc.  All Rights Reserved.
  
 This is part of the Gaussian(R) 09 program.  It is based on
 the Gaussian(R) 03 system (copyright 2003, Gaussian, Inc.),
 the Gaussian(R) 98 system (copyright 1998, Gaussian, Inc.),
 the Gaussian(R) 94 system (copyright 1995, Gaussian, Inc.),
 the Gaussian 92(TM) system (copyright 1992, Gaussian, Inc.),
 the Gaussian 90(TM) system (copyright 1990, Gaussian, Inc.),
 the Gaussian 88(TM) system (copyright 1988, Gaussian, Inc.),
 the Gaussian 86(TM) system (copyright 1986, Carnegie Mellon
 University), and the Gaussian 82(TM) system (copyright 1983,
 Carnegie Mellon University). Gaussian is a federally registered
 trademark of Gaussian, Inc.
  
 This software contains proprietary and confidential information,
 including trade secrets, belonging to Gaussian, Inc.
  
 This software is provided under written license and may be
 used, copied, transmitted, or stored only in accord with that
 written license.
  
 The following legend is applicable only to US Government
 contracts under FAR:
  
                    RESTRICTED RIGHTS LEGEND
  
 Use, reproduction and disclosure by the US Government is
 subject to restrictions as set forth in subparagraphs (a)
 and (c) of the Commercial Computer Software - Restricted
 Rights clause in FAR 52.227-19.
  
 Gaussian, Inc.
 340 Quinnipiac St., Bldg. 40, Wallingford CT 06492
  
  
 ---------------------------------------------------------------
 Warning -- This program may not be used in any manner that
 competes with the business of Gaussian, Inc. or will provide
 assistance to any competitor of Gaussian, Inc.  The licensee
 of this program is prohibited from giving any competitor of
 Gaussian, Inc. access to this program.  By using this program,
 the user acknowledges that Gaussian, Inc. is engaged in the
 business of creating and licensing software in the field of
 computational chemistry and represents and warrants to the
 licensee that it is not a competitor of Gaussian, Inc. and that
 it will not use this program in any manner prohibited above.
 ---------------------------------------------------------------
  

 Cite this work as:
 Gaussian 09, Revision C.01,
 M. J. Frisch, G. W. Trucks, H. B. Schlegel, G. E. Scuseria, 
 M. A. Robb, J. R. Cheeseman, G. Scalmani, V. Barone, B. Mennucci, 
 G. A. Petersson, H. Nakatsuji, M. Caricato, X. Li, H. P. Hratchian, 
 A. F. Izmaylov, J. Bloino, G. Zheng, J. L. Sonnenberg, M. Hada, 
 M. Ehara, K. Toyota, R. Fukuda, J. Hasegawa, M. Ishida, T. Nakajima, 
 Y. Honda, O. Kitao, H. Nakai, T. Vreven, J. A. Montgomery, Jr., 
 J. E. Peralta, F. Ogliaro, M. Bearpark, J. J. Heyd, E. Brothers, 
 K. N. Kudin, V. N. Staroverov, T. Keith, R. Kobayashi, J. Normand, 
 K. Raghavachari, A. Rendell, J. C. Burant, S. S. Iyengar, J. Tomasi, 
 M. Cossi, N. Rega, J. M. Millam, M. Klene, J. E. Knox, J. B. Cross, 
 V. Bakken, C. Adamo, J. Jaramillo, R. Gomperts, R. E. Stratmann, 
 O. Yazyev, A. J. Austin, R. Cammi, C. Pomelli, J. W. Ochterski, 
 R. L. Martin, K. Morokuma, V. G. Zakrzewski, G. A. Voth, 
 P. Salvador, J. J. Dannenberg, S. Dapprich, A. D. Daniels, 
 O. Farkas, J. B. Foresman, J. V. Ortiz, J. Cioslowski, 
 and D. J. Fox, Gaussian, Inc., Wallingford CT, 2010.
 
 ******************************************
 Gaussian 09:  EM64L-G09RevC.01 23-Sep-2011
                16-Apr-2020 
 ******************************************
 %mem=8GB
 %nproc=8
 Will use up to    8 processors via shared memory.
 ----------------------------------------------------------------------
 #p wb97xd/aug-cc-PVTz iop(3/107=0250000000) iop(3/108=0250000000) int=
 ultrafine Scan
 ----------------------------------------------------------------------
 1/38=1,60=1/1,8;
 2/12=2,17=6,18=5,29=3,40=1/2;
 3/5=16,6=1,7=10,11=2,16=1,25=1,30=1,74=-58,75=-5,107=250000000,108=250000000/1,2,3;
 4//1;
 5/5=2,38=5/2;
 6/7=2,8=2,9=2,10=2,18=1,28=1/1;
 1/60=1/8(1);
 99/9=1/99;
 2/29=3/2;
 3/5=16,6=1,7=10,11=2,16=1,25=1,30=1,74=-58,75=-5,107=250000000,108=250000000/1,2,3;
 4/5=5,16=3/1;
 5/5=2,38=5/2;
 1/60=1/8(-4);
 99/9=1/99;
 Leave Link    1 at Thu Apr 16 13:20:10 2020, MaxMem= 1073741824 cpu:       0.1
 (Enter /home/matheus/.gaussian/g09/l101.exe)
 ---
 TCC
 ---
 Charge =  0 Multiplicity = 1
 Symbolic Z-Matrix:
 O                     0.        0.        0.725 
 O                     0.        0.       -0.725 
 H                    -0.86331   0.31422   1.02351 
 H                     0.        0.91872  -1.02351 
 Kr                    0.       R1        0. 
       Variables:
  R1                    3.     Scan 20    0.1    
 
 NAtoms=      5 NQM=        0 NQMF=       0 NMMI=      5 NMMIF=      0
                NMic=       0 NMicF=      0.
                    Isotopes and Nuclear Properties:
 (Nuclear quadrupole moments (NQMom) in fm**2, nuclear magnetic moments (NMagM)
  in nuclear magnetons)

  Atom         1           2           3           4           5
 IAtWgt=          16          16           1           1          84
 AtmWgt=  15.9949146  15.9949146   1.0078250   1.0078250  83.9115064
 NucSpn=           0           0           1           1           0
 AtZEff=   0.0000000   0.0000000   0.0000000   0.0000000   0.0000000
 NQMom=    0.0000000   0.0000000   0.0000000   0.0000000   0.0000000
 NMagM=    0.0000000   0.0000000   2.7928460   2.7928460   0.0000000
 Leave Link  101 at Thu Apr 16 13:20:10 2020, MaxMem= 1073741824 cpu:       0.3
 (Enter /home/matheus/.gaussian/g09/l108.exe)
 Scan the potential surface.
 Variable   Value     No. Steps Step-Size
 -------- ----------- --------- ---------
     1       3.000000      20      0.1000
 A total of     21 points will be computed.
 Leave Link  108 at Thu Apr 16 13:20:10 2020, MaxMem= 1073741824 cpu:       0.0
 (Enter /home/matheus/.gaussian/g09/l202.exe)
 ---------------------------------------------------------------------------------------------------
                            Z-MATRIX (ANGSTROMS AND DEGREES)
   CD    Cent   Atom    N1       Length/X        N2       Alpha/Y        N3        Beta/Z          J
 ---------------------------------------------------------------------------------------------------
      1      1  O        0   0.000000          0.000000          0.725000
      2      2  O        0   0.000000          0.000000         -0.725000
      3      3  H        0  -0.863315          0.314221          1.023510
      4      4  H        0   0.000000          0.918721         -1.023510
      5      5  Kr       0   0.000000          3.000000          0.000000
 ---------------------------------------------------------------------------------------------------
                         Z-Matrix orientation:                         
 ---------------------------------------------------------------------
 Center     Atomic      Atomic             Coordinates (Angstroms)
 Number     Number       Type             X           Y           Z
 ---------------------------------------------------------------------
      1          8           0        0.000000    0.000000    0.725000
      2          8           0        0.000000    0.000000   -0.725000
      3          1           0       -0.863315    0.314221    1.023510
      4          1           0        0.000000    0.918721   -1.023510
      5         36           0        0.000000    3.000000    0.000000
 ---------------------------------------------------------------------
                    Distance matrix (angstroms):
                    1          2          3          4          5
     1  O    0.000000
     2  O    1.450000   0.000000
     3  H    0.966000   1.975180   0.000000
     4  H    1.975180   0.966000   2.302396   0.000000
     5  Kr   3.086361   3.086361   3.001049   2.319331   0.000000
 Stoichiometry    H2KrO2
 Framework group  C1[X(H2KrO2)]
 Deg. of freedom     9
 Full point group                 C1      NOp   1
 Largest Abelian subgroup         C1      NOp   1
 Largest concise Abelian subgroup C1      NOp   1
                         Standard orientation:                         
 ---------------------------------------------------------------------
 Center     Atomic      Atomic             Coordinates (Angstroms)
 Number     Number       Type             X           Y           Z
 ---------------------------------------------------------------------
      1          8           0       -2.027244   -0.704579   -0.107619
      2          8           0       -2.017454    0.739726    0.020400
      3          1           0       -1.727457   -1.080559    0.730189
      4          1           0       -1.096833    1.029722    0.059329
      5         36           0        0.977274   -0.006398   -0.002549
 ---------------------------------------------------------------------
 Rotational constants (GHZ):     25.7099481      2.3602095      2.1745891
 Leave Link  202 at Thu Apr 16 13:20:10 2020, MaxMem= 1073741824 cpu:       0.0
 (Enter /home/matheus/.gaussian/g09/l301.exe)
 Standard basis: Aug-CC-pVTZ (5D, 7F)
 Ernie: Thresh=  0.10000D-02 Tol=  0.10000D-05 Strict=F.
 Ernie:  38 primitive shells out of 205 were deleted.
 There are   197 symmetry adapted basis functions of A   symmetry.
 Integral buffers will be    131072 words long.
 Raffenetti 2 integral format.
 Two-electron integral symmetry is turned on.
   197 basis functions,   415 primitive gaussians,   229 cartesian basis functions
    27 alpha electrons       27 beta electrons
       nuclear repulsion energy       149.9587672391 Hartrees.
 IExCor= 4639 DFT=T Ex+Corr=wB97XD ExCW=0 ScaHFX=  1.000000
 ScaDFX=  1.000000  1.000000  1.000000  1.000000 ScalE2=  1.000000  1.000000
 IRadAn=      5 IRanWt=     -1 IRanGd=            0 ICorTp=0
  HFx wShort=  0.000000 wLong=  0.250000 cFull=  0.222036 cShort=  0.000000 cLong=  0.777964
  DFx wShort=  0.000000 wLong=  0.250000 cFull=  0.000000 cShort=  0.000000 cLong=  1.000000
 NAtoms=    5 NActive=    5 NUniq=    5 SFac= 1.00D+00 NAtFMM=   60 NAOKFM=F Big=F
 R6Disp: Dispersion energy =        -0.0009500904 Hartrees.
 Nuclear repulsion after empirical dispersion term =      149.9578171487 Hartrees.
 Leave Link  301 at Thu Apr 16 13:20:10 2020, MaxMem= 1073741824 cpu:       0.2
 (Enter /home/matheus/.gaussian/g09/l302.exe)
 NPDir=0 NMtPBC=     1 NCelOv=     1 NCel=       1 NClECP=     1 NCelD=      1
         NCelK=      1 NCelE2=     1 NClLst=     1 CellRange=     0.0.
 One-electron integrals computed using PRISM.
 NBasis=   197 RedAO= T  NBF=   197
 NBsUse=   197 1.00D-06 NBFU=   197
 Precomputing XC quadrature grid using
 IXCGrd= 2 IRadAn=           5 IRanWt=          -1 IRanGd=           0 AccXCQ= 0.00D+00.
 NRdTot=     427 NPtTot=      123512 NUsed=      126579 NTot=      126611
 NSgBfM=   229   229   229   229   229 NAtAll=     5     5.
 Leave Link  302 at Thu Apr 16 13:20:11 2020, MaxMem= 1073741824 cpu:       1.0
 (Enter /home/matheus/.gaussian/g09/l303.exe)
 DipDrv:  MaxL=1.
 Leave Link  303 at Thu Apr 16 13:20:11 2020, MaxMem= 1073741824 cpu:       0.2
 (Enter /home/matheus/.gaussian/g09/l401.exe)
 Harris functional with IExCor= 4639 diagonalized for initial guess.
 ExpMin= 2.53D-02 ExpMax= 1.17D+07 ExpMxC= 1.33D+04 IAcc=3 IRadAn=         5 AccDes= 0.00D+00
 HarFok:  IExCor= 4639 AccDes= 0.00D+00 IRadAn=         5 IDoV= 1
 ScaDFX=  1.000000  1.000000  1.000000  1.000000
 FoFCou: FMM=F IPFlag=           0 FMFlag=      100000 FMFlg1=           0
         NFxFlg=           0 DoJE=T BraDBF=F KetDBF=T FulRan=T
         Omega=  0.000000  0.000000  1.000000  0.000000  0.000000 ICntrl=     500 IOpCl=  0
         NMat0=    1 NMatS0=    1 NMatT0=    0 NMatD0=    1 NMtDS0=    0 NMtDT0=    0
         I1Cent=           4 NGrid=           0.
 Petite list used in FoFCou.
 Harris En= -2875.39648249372    
 Initial guess orbital symmetries:
       Occupied  (A) (A) (A) (A) (A) (A) (A) (A) (A) (A) (A) (A)
                 (A) (A) (A) (A) (A) (A) (A) (A) (A) (A) (A) (A)
                 (A) (A) (A)
       Virtual   (A) (A) (A) (A) (A) (A) (A) (A) (A) (A) (A) (A)
                 (A) (A) (A) (A) (A) (A) (A) (A) (A) (A) (A) (A)
                 (A) (A) (A) (A) (A) (A) (A) (A) (A) (A) (A) (A)
                 (A) (A) (A) (A) (A) (A) (A) (A) (A) (A) (A) (A)
                 (A) (A) (A) (A) (A) (A) (A) (A) (A) (A) (A) (A)
                 (A) (A) (A) (A) (A) (A) (A) (A) (A) (A) (A) (A)
                 (A) (A) (A) (A) (A) (A) (A) (A) (A) (A) (A) (A)
                 (A) (A) (A) (A) (A) (A) (A) (A) (A) (A) (A) (A)
                 (A) (A) (A) (A) (A) (A) (A) (A) (A) (A) (A) (A)
                 (A) (A) (A) (A) (A) (A) (A) (A) (A) (A) (A) (A)
                 (A) (A) (A) (A) (A) (A) (A) (A) (A) (A) (A) (A)
                 (A) (A) (A) (A) (A) (A) (A) (A) (A) (A) (A) (A)
                 (A) (A) (A) (A) (A) (A) (A) (A) (A) (A) (A) (A)
                 (A) (A) (A) (A) (A) (A) (A) (A) (A) (A) (A) (A)
                 (A) (A)
 The electronic state of the initial guess is 1-A.
 Leave Link  401 at Thu Apr 16 13:20:11 2020, MaxMem= 1073741824 cpu:       4.1
 (Enter /home/matheus/.gaussian/g09/l502.exe)
 Closed shell SCF:
 Requested convergence on RMS density matrix=1.00D-08 within 128 cycles.
 Requested convergence on MAX density matrix=1.00D-06.
 Requested convergence on             energy=1.00D-06.
 No special actions if energy rises.
 Using DIIS extrapolation, IDIIS=  1040.
 Integral symmetry usage will be decided dynamically.
       126521 words used for storage of precomputed grid.
 IEnd=      305468 IEndB=      305468 NGot=  1073741824 MDV=  1073505667
 LenX=  1073505667 LenY=  1073452785
 Fock matrices will be formed incrementally for  20 cycles.

 Cycle   1  Pass 1  IDiag  1:
 FoFJK:  IHMeth= 1 ICntrl=     0 DoSepK=T KAlg= 1 I1Cent= 0 FoldK=F
 FoFCou: FMM=F IPFlag=           0 FMFlag=      100000 FMFlg1=           0
         NFxFlg=           0 DoJE=T BraDBF=F KetDBF=F FulRan=T
         Omega=  0.000000  0.000000  1.000000  0.000000  0.000000 ICntrl=     500 IOpCl=  0
         NMat0=    1 NMatS0=    1 NMatT0=    0 NMatD0=    1 NMtDS0=    0 NMtDT0=    0
         I1Cent=           0 NGrid=           0.
 Symmetry not used in FoFCou.
 E= -2904.90067975666    
 DIIS: error= 7.22D-02 at cycle   1 NSaved=   1.
 NSaved= 1 IEnMin= 1 EnMin= -2904.90067975666     IErMin= 1 ErrMin= 7.22D-02
 ErrMax= 7.22D-02 EMaxC= 1.00D-01 BMatC= 2.22D+00 BMatP= 2.22D+00
 IDIUse=3 WtCom= 2.78D-01 WtEn= 7.22D-01
 Coeff-Com:  0.100D+01
 Coeff-En:   0.100D+01
 Coeff:      0.100D+01
 Gap=     0.551 Goal=   None    Shift=    0.000
 GapD=    0.551 DampG=2.000 DampE=0.500 DampFc=1.0000 IDamp=-1.
 RMSDP=6.14D-03 MaxDP=3.67D-01              OVMax= 1.83D-01

 Cycle   2  Pass 1  IDiag  1:
 RMSU=  4.31D-03    CP:  1.03D+00
 FoFJK:  IHMeth= 1 ICntrl=     0 DoSepK=T KAlg= 1 I1Cent= 0 FoldK=F
 E= -2905.22294627680     Delta-E=       -0.322266520142 Rises=F Damp=F
 DIIS: error= 3.11D-02 at cycle   2 NSaved=   2.
 NSaved= 2 IEnMin= 2 EnMin= -2905.22294627680     IErMin= 2 ErrMin= 3.11D-02
 ErrMax= 3.11D-02 EMaxC= 1.00D-01 BMatC= 5.64D-01 BMatP= 2.22D+00
 IDIUse=3 WtCom= 6.89D-01 WtEn= 3.11D-01
 Coeff-Com:  0.328D+00 0.672D+00
 Coeff-En:   0.195D+00 0.805D+00
 Coeff:      0.286D+00 0.714D+00
 Gap=     0.497 Goal=   None    Shift=    0.000
 RMSDP=2.68D-03 MaxDP=1.58D-01 DE=-3.22D-01 OVMax= 7.42D-02

 Cycle   3  Pass 1  IDiag  1:
 RMSU=  5.64D-04    CP:  1.02D+00  5.82D-01
 FoFJK:  IHMeth= 1 ICntrl=     0 DoSepK=T KAlg= 1 I1Cent= 0 FoldK=F
 E= -2905.41636823934     Delta-E=       -0.193421962542 Rises=F Damp=F
 DIIS: error= 5.60D-03 at cycle   3 NSaved=   3.
 NSaved= 3 IEnMin= 3 EnMin= -2905.41636823934     IErMin= 3 ErrMin= 5.60D-03
 ErrMax= 5.60D-03 EMaxC= 1.00D-01 BMatC= 1.85D-02 BMatP= 5.64D-01
 IDIUse=3 WtCom= 9.44D-01 WtEn= 5.60D-02
 Coeff-Com:  0.341D-01 0.189D+00 0.777D+00
 Coeff-En:   0.000D+00 0.000D+00 0.100D+01
 Coeff:      0.322D-01 0.179D+00 0.789D+00
 Gap=     0.446 Goal=   None    Shift=    0.000
 RMSDP=4.84D-04 MaxDP=1.87D-02 DE=-1.93D-01 OVMax= 2.60D-02

 Cycle   4  Pass 1  IDiag  1:
 RMSU=  2.33D-04    CP:  1.02D+00  6.39D-01  9.07D-01
 FoFJK:  IHMeth= 1 ICntrl=     0 DoSepK=T KAlg= 1 I1Cent= 0 FoldK=F
 E= -2905.42480561671     Delta-E=       -0.008437377369 Rises=F Damp=F
 DIIS: error= 2.03D-03 at cycle   4 NSaved=   4.
 NSaved= 4 IEnMin= 4 EnMin= -2905.42480561671     IErMin= 4 ErrMin= 2.03D-03
 ErrMax= 2.03D-03 EMaxC= 1.00D-01 BMatC= 1.78D-03 BMatP= 1.85D-02
 IDIUse=3 WtCom= 9.80D-01 WtEn= 2.03D-02
 Coeff-Com: -0.252D-02 0.485D-01 0.369D+00 0.585D+00
 Coeff-En:   0.000D+00 0.000D+00 0.000D+00 0.100D+01
 Coeff:     -0.246D-02 0.475D-01 0.361D+00 0.594D+00
 Gap=     0.430 Goal=   None    Shift=    0.000
 RMSDP=1.22D-04 MaxDP=6.78D-03 DE=-8.44D-03 OVMax= 6.70D-03

 Cycle   5  Pass 1  IDiag  1:
 RMSU=  4.01D-05    CP:  1.02D+00  6.37D-01  9.52D-01  6.97D-01
 FoFJK:  IHMeth= 1 ICntrl=     0 DoSepK=T KAlg= 1 I1Cent= 0 FoldK=F
 E= -2905.42588898726     Delta-E=       -0.001083370549 Rises=F Damp=F
 DIIS: error= 2.08D-04 at cycle   5 NSaved=   5.
 NSaved= 5 IEnMin= 5 EnMin= -2905.42588898726     IErMin= 5 ErrMin= 2.08D-04
 ErrMax= 2.08D-04 EMaxC= 1.00D-01 BMatC= 1.72D-05 BMatP= 1.78D-03
 IDIUse=3 WtCom= 9.98D-01 WtEn= 2.08D-03
 Coeff-Com: -0.129D-02 0.692D-02 0.721D-01 0.133D+00 0.789D+00
 Coeff-En:   0.000D+00 0.000D+00 0.000D+00 0.000D+00 0.100D+01
 Coeff:     -0.129D-02 0.691D-02 0.719D-01 0.133D+00 0.790D+00
 Gap=     0.430 Goal=   None    Shift=    0.000
 RMSDP=2.21D-05 MaxDP=9.77D-04 DE=-1.08D-03 OVMax= 1.39D-03

 Cycle   6  Pass 1  IDiag  1:
 RMSU=  1.32D-05    CP:  1.02D+00  6.37D-01  9.61D-01  7.13D-01  1.13D+00
 FoFJK:  IHMeth= 1 ICntrl=     0 DoSepK=T KAlg= 1 I1Cent= 0 FoldK=F
 E= -2905.42589735779     Delta-E=       -0.000008370530 Rises=F Damp=F
 DIIS: error= 1.70D-04 at cycle   6 NSaved=   6.
 NSaved= 6 IEnMin= 6 EnMin= -2905.42589735779     IErMin= 6 ErrMin= 1.70D-04
 ErrMax= 1.70D-04 EMaxC= 1.00D-01 BMatC= 1.05D-05 BMatP= 1.72D-05
 IDIUse=3 WtCom= 9.98D-01 WtEn= 1.70D-03
 Coeff-Com: -0.268D-03-0.587D-02-0.314D-01-0.428D-01 0.459D+00 0.621D+00
 Coeff-En:   0.000D+00 0.000D+00 0.000D+00 0.000D+00 0.235D+00 0.765D+00
 Coeff:     -0.267D-03-0.586D-02-0.313D-01-0.427D-01 0.458D+00 0.622D+00
 Gap=     0.430 Goal=   None    Shift=    0.000
 RMSDP=1.13D-05 MaxDP=4.48D-04 DE=-8.37D-06 OVMax= 7.37D-04

 Cycle   7  Pass 1  IDiag  1:
 RMSU=  3.63D-06    CP:  1.02D+00  6.37D-01  9.67D-01  7.19D-01  1.26D+00
                    CP:  7.59D-01
 FoFJK:  IHMeth= 1 ICntrl=     0 DoSepK=T KAlg= 1 I1Cent= 0 FoldK=F
 E= -2905.42590476381     Delta-E=       -0.000007406024 Rises=F Damp=F
 DIIS: error= 2.01D-05 at cycle   7 NSaved=   7.
 NSaved= 7 IEnMin= 7 EnMin= -2905.42590476381     IErMin= 7 ErrMin= 2.01D-05
 ErrMax= 2.01D-05 EMaxC= 1.00D-01 BMatC= 1.11D-07 BMatP= 1.05D-05
 IDIUse=1 WtCom= 1.00D+00 WtEn= 0.00D+00
 Coeff-Com:  0.244D-04-0.133D-02-0.905D-02-0.135D-01 0.889D-02 0.898D-01
 Coeff-Com:  0.925D+00
 Coeff:      0.244D-04-0.133D-02-0.905D-02-0.135D-01 0.889D-02 0.898D-01
 Coeff:      0.925D+00
 Gap=     0.430 Goal=   None    Shift=    0.000
 RMSDP=2.53D-06 MaxDP=8.03D-05 DE=-7.41D-06 OVMax= 2.09D-04

 Cycle   8  Pass 1  IDiag  1:
 RMSU=  8.59D-07    CP:  1.02D+00  6.37D-01  9.68D-01  7.21D-01  1.28D+00
                    CP:  8.18D-01  1.18D+00
 FoFJK:  IHMeth= 1 ICntrl=     0 DoSepK=T KAlg= 1 I1Cent= 0 FoldK=F
 E= -2905.42590495293     Delta-E=       -0.000000189116 Rises=F Damp=F
 DIIS: error= 4.60D-06 at cycle   8 NSaved=   8.
 NSaved= 8 IEnMin= 8 EnMin= -2905.42590495293     IErMin= 8 ErrMin= 4.60D-06
 ErrMax= 4.60D-06 EMaxC= 1.00D-01 BMatC= 5.75D-09 BMatP= 1.11D-07
 IDIUse=1 WtCom= 1.00D+00 WtEn= 0.00D+00
 Coeff-Com:  0.175D-04 0.253D-03 0.124D-02 0.143D-02-0.275D-01-0.310D-01
 Coeff-Com:  0.305D-01 0.103D+01
 Coeff:      0.175D-04 0.253D-03 0.124D-02 0.143D-02-0.275D-01-0.310D-01
 Coeff:      0.305D-01 0.103D+01
 Gap=     0.430 Goal=   None    Shift=    0.000
 RMSDP=7.91D-07 MaxDP=1.99D-05 DE=-1.89D-07 OVMax= 8.61D-05

 Cycle   9  Pass 1  IDiag  1:
 RMSU=  2.68D-07    CP:  1.02D+00  6.37D-01  9.68D-01  7.20D-01  1.29D+00
                    CP:  8.29D-01  1.26D+00  1.31D+00
 FoFJK:  IHMeth= 1 ICntrl=     0 DoSepK=T KAlg= 1 I1Cent= 0 FoldK=F
 E= -2905.42590496957     Delta-E=       -0.000000016639 Rises=F Damp=F
 DIIS: error= 1.67D-06 at cycle   9 NSaved=   9.
 NSaved= 9 IEnMin= 9 EnMin= -2905.42590496957     IErMin= 9 ErrMin= 1.67D-06
 ErrMax= 1.67D-06 EMaxC= 1.00D-01 BMatC= 5.12D-10 BMatP= 5.75D-09
 IDIUse=1 WtCom= 1.00D+00 WtEn= 0.00D+00
 Coeff-Com: -0.200D-05 0.828D-04 0.575D-03 0.652D-03 0.184D-03-0.348D-02
 Coeff-Com: -0.548D-01-0.817D-01 0.114D+01
 Coeff:     -0.200D-05 0.828D-04 0.575D-03 0.652D-03 0.184D-03-0.348D-02
 Coeff:     -0.548D-01-0.817D-01 0.114D+01
 Gap=     0.430 Goal=   None    Shift=    0.000
 RMSDP=2.83D-07 MaxDP=7.78D-06 DE=-1.66D-08 OVMax= 3.61D-05

 Cycle  10  Pass 1  IDiag  1:
 RMSU=  8.73D-08    CP:  1.02D+00  6.37D-01  9.68D-01  7.20D-01  1.29D+00
                    CP:  8.31D-01  1.27D+00  1.44D+00  1.41D+00
 FoFJK:  IHMeth= 1 ICntrl=     0 DoSepK=T KAlg= 1 I1Cent= 0 FoldK=F
 E= -2905.42590497138     Delta-E=       -0.000000001810 Rises=F Damp=F
 DIIS: error= 3.81D-07 at cycle  10 NSaved=  10.
 NSaved=10 IEnMin=10 EnMin= -2905.42590497138     IErMin=10 ErrMin= 3.81D-07
 ErrMax= 3.81D-07 EMaxC= 1.00D-01 BMatC= 5.74D-11 BMatP= 5.12D-10
 IDIUse=1 WtCom= 1.00D+00 WtEn= 0.00D+00
 Coeff-Com: -0.101D-05-0.140D-04-0.684D-04-0.795D-04 0.238D-02 0.279D-02
 Coeff-Com: -0.194D-02-0.119D+00 0.133D+00 0.983D+00
 Coeff:     -0.101D-05-0.140D-04-0.684D-04-0.795D-04 0.238D-02 0.279D-02
 Coeff:     -0.194D-02-0.119D+00 0.133D+00 0.983D+00
 Gap=     0.430 Goal=   None    Shift=    0.000
 RMSDP=8.32D-08 MaxDP=1.56D-06 DE=-1.81D-09 OVMax= 1.13D-05

 Cycle  11  Pass 1  IDiag  1:
 RMSU=  2.19D-08    CP:  1.02D+00  6.37D-01  9.68D-01  7.20D-01  1.29D+00
                    CP:  8.31D-01  1.27D+00  1.46D+00  1.57D+00  1.27D+00
 FoFJK:  IHMeth= 1 ICntrl=     0 DoSepK=T KAlg= 1 I1Cent= 0 FoldK=F
 E= -2905.42590497158     Delta-E=       -0.000000000206 Rises=F Damp=F
 DIIS: error= 1.41D-07 at cycle  11 NSaved=  11.
 NSaved=11 IEnMin=11 EnMin= -2905.42590497158     IErMin=11 ErrMin= 1.41D-07
 ErrMax= 1.41D-07 EMaxC= 1.00D-01 BMatC= 4.97D-12 BMatP= 5.74D-11
 IDIUse=1 WtCom= 1.00D+00 WtEn= 0.00D+00
 Coeff-Com:  0.483D-06-0.602D-05-0.499D-04-0.350D-04-0.333D-03 0.121D-04
 Coeff-Com:  0.679D-02 0.124D-01-0.113D+00-0.106D+00 0.120D+01
 Coeff:      0.483D-06-0.602D-05-0.499D-04-0.350D-04-0.333D-03 0.121D-04
 Coeff:      0.679D-02 0.124D-01-0.113D+00-0.106D+00 0.120D+01
 Gap=     0.430 Goal=   None    Shift=    0.000
 RMSDP=3.01D-08 MaxDP=5.85D-07 DE=-2.06D-10 OVMax= 4.26D-06

 Cycle  12  Pass 1  IDiag  1:
 RMSU=  6.14D-09    CP:  1.02D+00  6.37D-01  9.68D-01  7.20D-01  1.29D+00
                    CP:  8.31D-01  1.27D+00  1.46D+00  1.61D+00  1.43D+00
                    CP:  1.34D+00
 FoFJK:  IHMeth= 1 ICntrl=     0 DoSepK=T KAlg= 1 I1Cent= 0 FoldK=F
 E= -2905.42590497159     Delta-E=       -0.000000000009 Rises=F Damp=F
 DIIS: error= 3.60D-08 at cycle  12 NSaved=  12.
 NSaved=12 IEnMin=12 EnMin= -2905.42590497159     IErMin=12 ErrMin= 3.60D-08
 ErrMax= 3.60D-08 EMaxC= 1.00D-01 BMatC= 2.11D-13 BMatP= 4.97D-12
 IDIUse=1 WtCom= 1.00D+00 WtEn= 0.00D+00
 Coeff-Com: -0.415D-07 0.703D-06 0.600D-05-0.166D-05-0.969D-04-0.128D-03
 Coeff-Com: -0.252D-03 0.461D-02 0.619D-02-0.359D-01-0.154D+00 0.118D+01
 Coeff:     -0.415D-07 0.703D-06 0.600D-05-0.166D-05-0.969D-04-0.128D-03
 Coeff:     -0.252D-03 0.461D-02 0.619D-02-0.359D-01-0.154D+00 0.118D+01
 Gap=     0.430 Goal=   None    Shift=    0.000
 RMSDP=6.20D-09 MaxDP=1.84D-07 DE=-9.09D-12 OVMax= 7.51D-07

 SCF Done:  E(RwB97XD) =  -2905.42590497     A.U. after   12 cycles
             Convg  =    0.6196D-08             -V/T =  2.0015
 KE= 2.900948529725D+03 PE=-7.237835310496D+03 EE= 1.281503058650D+03
 Leave Link  502 at Thu Apr 16 13:20:50 2020, MaxMem= 1073741824 cpu:     313.3
 (Enter /home/matheus/.gaussian/g09/l601.exe)
 Copying SCF densities to generalized density rwf, IOpCl= 0 IROHF=0.

 **********************************************************************

            Population analysis using the SCF density.

 **********************************************************************

 Orbital symmetries:
       Occupied  (A) (A) (A) (A) (A) (A) (A) (A) (A) (A) (A) (A)
                 (A) (A) (A) (A) (A) (A) (A) (A) (A) (A) (A) (A)
                 (A) (A) (A)
       Virtual   (A) (A) (A) (A) (A) (A) (A) (A) (A) (A) (A) (A)
                 (A) (A) (A) (A) (A) (A) (A) (A) (A) (A) (A) (A)
                 (A) (A) (A) (A) (A) (A) (A) (A) (A) (A) (A) (A)
                 (A) (A) (A) (A) (A) (A) (A) (A) (A) (A) (A) (A)
                 (A) (A) (A) (A) (A) (A) (A) (A) (A) (A) (A) (A)
                 (A) (A) (A) (A) (A) (A) (A) (A) (A) (A) (A) (A)
                 (A) (A) (A) (A) (A) (A) (A) (A) (A) (A) (A) (A)
                 (A) (A) (A) (A) (A) (A) (A) (A) (A) (A) (A) (A)
                 (A) (A) (A) (A) (A) (A) (A) (A) (A) (A) (A) (A)
                 (A) (A) (A) (A) (A) (A) (A) (A) (A) (A) (A) (A)
                 (A) (A) (A) (A) (A) (A) (A) (A) (A) (A) (A) (A)
                 (A) (A) (A) (A) (A) (A) (A) (A) (A) (A) (A) (A)
                 (A) (A) (A) (A) (A) (A) (A) (A) (A) (A) (A) (A)
                 (A) (A) (A) (A) (A) (A) (A) (A) (A) (A) (A) (A)
                 (A) (A)
 The electronic state is 1-A.
 Alpha  occ. eigenvalues -- -513.10106 -67.36931 -60.91811 -60.91800 -60.91792
 Alpha  occ. eigenvalues --  -19.34087 -19.33744  -9.82259  -7.51590  -7.51556
 Alpha  occ. eigenvalues --   -7.51528  -3.38273  -3.38267  -3.38245  -3.38218
 Alpha  occ. eigenvalues --   -3.38215  -1.24679  -1.03394  -1.02816  -0.67919
 Alpha  occ. eigenvalues --   -0.57718  -0.54158  -0.50638  -0.50268  -0.49321
 Alpha  occ. eigenvalues --   -0.43272  -0.39561
 Alpha virt. eigenvalues --    0.03417   0.04379   0.08423   0.09436   0.10193
 Alpha virt. eigenvalues --    0.11838   0.12986   0.14324   0.17341   0.17828
 Alpha virt. eigenvalues --    0.18109   0.19127   0.20274   0.22268   0.23251
 Alpha virt. eigenvalues --    0.24293   0.25272   0.27890   0.30350   0.32159
 Alpha virt. eigenvalues --    0.33759   0.35073   0.36835   0.38538   0.39191
 Alpha virt. eigenvalues --    0.40456   0.42227   0.47047   0.51966   0.53877
 Alpha virt. eigenvalues --    0.54732   0.59077   0.61202   0.63093   0.67262
 Alpha virt. eigenvalues --    0.69736   0.70708   0.72709   0.74536   0.74592
 Alpha virt. eigenvalues --    0.76029   0.76327   0.78308   0.79347   0.82246
 Alpha virt. eigenvalues --    0.82962   0.85764   0.87677   0.89078   0.90067
 Alpha virt. eigenvalues --    0.90837   0.92750   0.94485   0.96104   0.97381
 Alpha virt. eigenvalues --    0.98402   1.02119   1.04158   1.06407   1.07920
 Alpha virt. eigenvalues --    1.09589   1.13626   1.16684   1.21641   1.23350
 Alpha virt. eigenvalues --    1.25343   1.30742   1.35026   1.36447   1.39385
 Alpha virt. eigenvalues --    1.42365   1.46812   1.49199   1.53652   1.58537
 Alpha virt. eigenvalues --    1.67735   1.68541   1.82168   1.91053   1.92405
 Alpha virt. eigenvalues --    1.99851   2.01762   2.04734   2.08686   2.13647
 Alpha virt. eigenvalues --    2.15351   2.17063   2.19529   2.21947   2.24878
 Alpha virt. eigenvalues --    2.25065   2.28369   2.29402   2.30209   2.31750
 Alpha virt. eigenvalues --    2.35270   2.37612   2.43737   2.46544   2.46994
 Alpha virt. eigenvalues --    2.47948   2.49878   2.51454   2.55550   2.55920
 Alpha virt. eigenvalues --    2.58485   2.61533   2.63620   2.69482   2.70328
 Alpha virt. eigenvalues --    2.71035   2.74302   2.77298   2.83635   2.87848
 Alpha virt. eigenvalues --    2.93921   3.01545   3.08988   3.11319   3.59880
 Alpha virt. eigenvalues --    3.67636   3.93216   3.94866   3.98936   4.06686
 Alpha virt. eigenvalues --    4.10043   4.12602   4.23544   4.23783   4.28092
 Alpha virt. eigenvalues --    4.35801   4.48069   4.52111   4.57986   4.71434
 Alpha virt. eigenvalues --    4.93483   4.96565   4.99279   5.13006   5.15591
 Alpha virt. eigenvalues --    5.18354   5.43464   5.84952   6.01880   6.13905
 Alpha virt. eigenvalues --    6.20160   6.25372   6.32410   6.41745   6.49690
 Alpha virt. eigenvalues --    6.62129   6.76051   6.77416   6.82217   6.84872
 Alpha virt. eigenvalues --    6.89516   6.90426   6.93667   6.96216   7.01742
 Alpha virt. eigenvalues --    7.07865   7.13724   7.24118   7.46941   7.53992
 Alpha virt. eigenvalues --    7.80527   8.09162   8.13590  14.12853  14.67371
          Condensed to atoms (all electrons):
              1          2          3          4          5
     1  O    8.207693  -0.179442   0.200817   0.009979  -0.018159
     2  O   -0.179442   8.254458   0.018423   0.184134  -0.020485
     3  H    0.200817   0.018423   0.556235  -0.001531  -0.000143
     4  H    0.009979   0.184134  -0.001531   0.570132  -0.004985
     5  Kr  -0.018159  -0.020485  -0.000143  -0.004985  36.034266
 Mulliken atomic charges:
              1
     1  O   -0.220889
     2  O   -0.257087
     3  H    0.226198
     4  H    0.242271
     5  Kr   0.009506
 Sum of Mulliken atomic charges =   0.00000
 Mulliken charges with hydrogens summed into heavy atoms:
              1
     1  O    0.005310
     2  O   -0.014816
     5  Kr   0.009506
 Sum of Mulliken charges with hydrogens summed into heavy atoms =   0.00000
 Electronic spatial extent (au):  <R**2>=            481.0561
 Charge=              0.0000 electrons
 Dipole moment (field-independent basis, Debye):
    X=              2.3409    Y=             -0.3313    Z=              1.3439  Tot=              2.7195
 Quadrupole moment (field-independent basis, Debye-Ang):
   XX=            -36.5711   YY=            -27.8851   ZZ=            -29.1578
   XY=              1.5152   XZ=             -2.4143   YZ=             -1.7247
 Traceless Quadrupole moment (field-independent basis, Debye-Ang):
   XX=             -5.3664   YY=              3.3196   ZZ=              2.0469
   XY=              1.5152   XZ=             -2.4143   YZ=             -1.7247
 Octapole moment (field-independent basis, Debye-Ang**2):
  XXX=             39.8268  YYY=             -0.9039  ZZZ=              0.9098  XYY=              5.8983
  XXY=             -4.2293  XXZ=              3.4868  XZZ=              6.0749  YZZ=             -1.6704
  YYZ=              2.1223  XYZ=              3.0505
 Hexadecapole moment (field-independent basis, Debye-Ang**3):
 XXXX=           -459.8167 YYYY=            -62.9211 ZZZZ=            -29.7714 XXXY=              7.4037
 XXXZ=             -6.0095 YYYX=              2.8745 YYYZ=             -2.5309 ZZZX=             -2.0508
 ZZZY=             -1.7689 XXYY=            -82.6853 XXZZ=            -72.9695 YYZZ=            -16.0109
 XXYZ=             -5.5103 YYXZ=             -3.6813 ZZXY=              2.8454
 N-N= 1.499578171487D+02 E-N=-7.237835308693D+03  KE= 2.900948529725D+03
 No NMR shielding tensors so no spin-rotation constants.
 Leave Link  601 at Thu Apr 16 13:20:51 2020, MaxMem= 1073741824 cpu:       0.8
 (Enter /home/matheus/.gaussian/g09/l108.exe)
 Variable Step   Value    
 -------- ---- -----------
     1       1    5.858151
 Leave Link  108 at Thu Apr 16 13:20:51 2020, MaxMem= 1073741824 cpu:       0.0
 (Enter /home/matheus/.gaussian/g09/l202.exe)
 ---------------------------------------------------------------------------------------------------
                            Z-MATRIX (ANGSTROMS AND DEGREES)
   CD    Cent   Atom    N1       Length/X        N2       Alpha/Y        N3        Beta/Z          J
 ---------------------------------------------------------------------------------------------------
      1      1  O        0   0.000000          0.000000          0.725000
      2      2  O        0   0.000000          0.000000         -0.725000
      3      3  H        0  -0.863315          0.314221          1.023510
      4      4  H        0   0.000000          0.918721         -1.023510
      5      5  Kr       0   0.000000          3.100000          0.000000
 ---------------------------------------------------------------------------------------------------
                         Z-Matrix orientation:                         
 ---------------------------------------------------------------------
 Center     Atomic      Atomic             Coordinates (Angstroms)
 Number     Number       Type             X           Y           Z
 ---------------------------------------------------------------------
      1          8           0        0.000000    0.000000    0.725000
      2          8           0        0.000000    0.000000   -0.725000
      3          1           0       -0.863315    0.314221    1.023510
      4          1           0        0.000000    0.918721   -1.023510
      5         36           0        0.000000    3.100000    0.000000
 ---------------------------------------------------------------------
                    Distance matrix (angstroms):
                    1          2          3          4          5
     1  O    0.000000
     2  O    1.450000   0.000000
     3  H    0.966000   1.975180   0.000000
     4  H    1.975180   0.966000   2.302396   0.000000
     5  Kr   3.183650   3.183650   3.090866   2.409472   0.000000
 Stoichiometry    H2KrO2
 Framework group  C1[X(H2KrO2)]
 Deg. of freedom     9
 Full point group                 C1      NOp   1
 RotChk:  IX=0 Diff= 8.99D-04
 Largest Abelian subgroup         C1      NOp   1
 Largest concise Abelian subgroup C1      NOp   1
                         Standard orientation:                         
 ---------------------------------------------------------------------
 Center     Atomic      Atomic             Coordinates (Angstroms)
 Number     Number       Type             X           Y           Z
 ---------------------------------------------------------------------
      1          8           0       -2.093577   -0.705128   -0.107779
      2          8           0       -2.084488    0.739178    0.020271
      3          1           0       -1.793287   -1.080973    0.729910
      4          1           0       -1.164004    1.029651    0.058869
      5         36           0        1.010606   -0.006141   -0.002464
 ---------------------------------------------------------------------
 Rotational constants (GHZ):     25.7099161      2.2097041      2.0461796
 Leave Link  202 at Thu Apr 16 13:20:51 2020, MaxMem= 1073741824 cpu:       0.0
 (Enter /home/matheus/.gaussian/g09/l301.exe)
 Standard basis: Aug-CC-pVTZ (5D, 7F)
 Ernie: Thresh=  0.10000D-02 Tol=  0.10000D-05 Strict=F.
 Ernie:  38 primitive shells out of 205 were deleted.
 There are   197 symmetry adapted basis functions of A   symmetry.
 Integral buffers will be    131072 words long.
 Raffenetti 2 integral format.
 Two-electron integral symmetry is turned on.
   197 basis functions,   415 primitive gaussians,   229 cartesian basis functions
    27 alpha electrons       27 beta electrons
       nuclear repulsion energy       146.4490644297 Hartrees.
 IExCor= 4639 DFT=T Ex+Corr=wB97XD ExCW=0 ScaHFX=  1.000000
 ScaDFX=  1.000000  1.000000  1.000000  1.000000 ScalE2=  1.000000  1.000000
 IRadAn=      5 IRanWt=     -1 IRanGd=            0 ICorTp=0
  HFx wShort=  0.000000 wLong=  0.250000 cFull=  0.222036 cShort=  0.000000 cLong=  0.777964
  DFx wShort=  0.000000 wLong=  0.250000 cFull=  0.000000 cShort=  0.000000 cLong=  1.000000
 NAtoms=    5 NActive=    5 NUniq=    5 SFac= 1.00D+00 NAtFMM=   60 NAOKFM=F Big=F
 R6Disp: Dispersion energy =        -0.0010268325 Hartrees.
 Nuclear repulsion after empirical dispersion term =      146.4480375972 Hartrees.
 Leave Link  301 at Thu Apr 16 13:20:51 2020, MaxMem= 1073741824 cpu:       0.2
 (Enter /home/matheus/.gaussian/g09/l302.exe)
 NPDir=0 NMtPBC=     1 NCelOv=     1 NCel=       1 NClECP=     1 NCelD=      1
         NCelK=      1 NCelE2=     1 NClLst=     1 CellRange=     0.0.
 One-electron integrals computed using PRISM.
 NBasis=   197 RedAO= T  NBF=   197
 NBsUse=   197 1.00D-06 NBFU=   197
 Precomputing XC quadrature grid using
 IXCGrd= 2 IRadAn=           5 IRanWt=          -1 IRanGd=           0 AccXCQ= 0.00D+00.
 NRdTot=     427 NPtTot=      123512 NUsed=      126579 NTot=      126611
 NSgBfM=   229   229   229   229   229 NAtAll=     5     5.
 Leave Link  302 at Thu Apr 16 13:20:51 2020, MaxMem= 1073741824 cpu:       1.1
 (Enter /home/matheus/.gaussian/g09/l303.exe)
 DipDrv:  MaxL=1.
 Leave Link  303 at Thu Apr 16 13:20:51 2020, MaxMem= 1073741824 cpu:       0.2
 (Enter /home/matheus/.gaussian/g09/l401.exe)
 Initial guess read from the read-write file.
 B after Tr=     0.000000    0.000000    0.000000
         Rot=    1.000000    0.000000    0.000000    0.000000 Ang=   0.00 deg.
 Guess basis will be translated and rotated to current coordinates.
 Initial guess orbital symmetries:
       Occupied  (A) (A) (A) (A) (A) (A) (A) (A) (A) (A) (A) (A)
                 (A) (A) (A) (A) (A) (A) (A) (A) (A) (A) (A) (A)
                 (A) (A) (A)
       Virtual   (A) (A) (A) (A) (A) (A) (A) (A) (A) (A) (A) (A)
                 (A) (A) (A) (A) (A) (A) (A) (A) (A) (A) (A) (A)
                 (A) (A) (A) (A) (A) (A) (A) (A) (A) (A) (A) (A)
                 (A) (A) (A) (A) (A) (A) (A) (A) (A) (A) (A) (A)
                 (A) (A) (A) (A) (A) (A) (A) (A) (A) (A) (A) (A)
                 (A) (A) (A) (A) (A) (A) (A) (A) (A) (A) (A) (A)
                 (A) (A) (A) (A) (A) (A) (A) (A) (A) (A) (A) (A)
                 (A) (A) (A) (A) (A) (A) (A) (A) (A) (A) (A) (A)
                 (A) (A) (A) (A) (A) (A) (A) (A) (A) (A) (A) (A)
                 (A) (A) (A) (A) (A) (A) (A) (A) (A) (A) (A) (A)
                 (A) (A) (A) (A) (A) (A) (A) (A) (A) (A) (A) (A)
                 (A) (A) (A) (A) (A) (A) (A) (A) (A) (A) (A) (A)
                 (A) (A) (A) (A) (A) (A) (A) (A) (A) (A) (A) (A)
                 (A) (A) (A) (A) (A) (A) (A) (A) (A) (A) (A) (A)
                 (A) (A)
 The electronic state of the initial guess is 1-A.
 Generating alternative initial guess.
 Harris functional with IExCor= 4639 diagonalized for initial guess.
 ExpMin= 2.53D-02 ExpMax= 1.17D+07 ExpMxC= 1.33D+04 IAcc=3 IRadAn=         5 AccDes= 0.00D+00
 HarFok:  IExCor= 4639 AccDes= 0.00D+00 IRadAn=         5 IDoV= 1
 ScaDFX=  1.000000  1.000000  1.000000  1.000000
 FoFCou: FMM=F IPFlag=           0 FMFlag=      100000 FMFlg1=           0
         NFxFlg=           0 DoJE=T BraDBF=F KetDBF=T FulRan=T
         Omega=  0.000000  0.000000  1.000000  0.000000  0.000000 ICntrl=     500 IOpCl=  0
         NMat0=    1 NMatS0=    1 NMatT0=    0 NMatD0=    1 NMtDS0=    0 NMtDT0=    0
         I1Cent=           4 NGrid=           0.
 Petite list used in FoFCou.
 Harris En= -2875.40001908849    
 Leave Link  401 at Thu Apr 16 13:20:51 2020, MaxMem= 1073741824 cpu:       5.2
 (Enter /home/matheus/.gaussian/g09/l502.exe)
 Closed shell SCF:
 Requested convergence on RMS density matrix=1.00D-08 within 128 cycles.
 Requested convergence on MAX density matrix=1.00D-06.
 Requested convergence on             energy=1.00D-06.
 No special actions if energy rises.
 Using DIIS extrapolation, IDIIS=  1040.
 Integral symmetry usage will be decided dynamically.
       126521 words used for storage of precomputed grid.
 IEnd=      305468 IEndB=      305468 NGot=  1073741824 MDV=  1073505667
 LenX=  1073505667 LenY=  1073452785
 Fock matrices will be formed incrementally for  20 cycles.

 Cycle   1  Pass 1  IDiag  1:
 FoFJK:  IHMeth= 1 ICntrl=     0 DoSepK=T KAlg= 1 I1Cent= 0 FoldK=F
 FoFCou: FMM=F IPFlag=           0 FMFlag=      100000 FMFlg1=           0
         NFxFlg=           0 DoJE=T BraDBF=F KetDBF=F FulRan=T
         Omega=  0.000000  0.000000  1.000000  0.000000  0.000000 ICntrl=     500 IOpCl=  0
         NMat0=    1 NMatS0=    1 NMatT0=    0 NMatD0=    1 NMtDS0=    0 NMtDT0=    0
         I1Cent=           0 NGrid=           0.
 Symmetry not used in FoFCou.
 E= -2905.42772012096    
 DIIS: error= 1.12D-03 at cycle   1 NSaved=   1.
 NSaved= 1 IEnMin= 1 EnMin= -2905.42772012096     IErMin= 1 ErrMin= 1.12D-03
 ErrMax= 1.12D-03 EMaxC= 1.00D-01 BMatC= 5.74D-04 BMatP= 5.74D-04
 IDIUse=3 WtCom= 9.89D-01 WtEn= 1.12D-02
 Coeff-Com:  0.100D+01
 Coeff-En:   0.100D+01
 Coeff:      0.100D+01
 Gap=     0.432 Goal=   None    Shift=    0.000
 GapD=    0.432 DampG=2.000 DampE=1.000 DampFc=2.0000 IDamp=-1.
 RMSDP=7.52D-05 MaxDP=2.36D-03              OVMax= 3.03D-03

 Cycle   2  Pass 1  IDiag  1:
 RMSU=  5.32D-05    CP:  1.00D+00
 FoFJK:  IHMeth= 1 ICntrl=     0 DoSepK=T KAlg= 1 I1Cent= 0 FoldK=F
 E= -2905.42782194056     Delta-E=       -0.000101819606 Rises=F Damp=F
 DIIS: error= 1.15D-04 at cycle   2 NSaved=   2.
 NSaved= 2 IEnMin= 2 EnMin= -2905.42782194056     IErMin= 2 ErrMin= 1.15D-04
 ErrMax= 1.15D-04 EMaxC= 1.00D-01 BMatC= 5.39D-06 BMatP= 5.74D-04
 IDIUse=3 WtCom= 9.99D-01 WtEn= 1.15D-03
 Coeff-Com:  0.391D-03 0.100D+01
 Coeff-En:   0.000D+00 0.100D+01
 Coeff:      0.391D-03 0.100D+01
 Gap=     0.430 Goal=   None    Shift=    0.000
 RMSDP=1.66D-05 MaxDP=7.18D-04 DE=-1.02D-04 OVMax= 8.72D-04

 Cycle   3  Pass 1  IDiag  1:
 RMSU=  9.93D-06    CP:  1.00D+00  1.12D+00
 FoFJK:  IHMeth= 1 ICntrl=     0 DoSepK=T KAlg= 1 I1Cent= 0 FoldK=F
 E= -2905.42782474905     Delta-E=       -0.000002808488 Rises=F Damp=F
 DIIS: error= 9.67D-05 at cycle   3 NSaved=   3.
 NSaved= 3 IEnMin= 3 EnMin= -2905.42782474905     IErMin= 3 ErrMin= 9.67D-05
 ErrMax= 9.67D-05 EMaxC= 1.00D-01 BMatC= 4.39D-06 BMatP= 5.39D-06
 IDIUse=1 WtCom= 1.00D+00 WtEn= 0.00D+00
 Coeff-Com: -0.764D-02 0.475D+00 0.533D+00
 Coeff:     -0.764D-02 0.475D+00 0.533D+00
 Gap=     0.430 Goal=   None    Shift=    0.000
 RMSDP=6.06D-06 MaxDP=3.29D-04 DE=-2.81D-06 OVMax= 4.42D-04

 Cycle   4  Pass 1  IDiag  1:
 RMSU=  2.95D-06    CP:  1.00D+00  1.14D+00  7.07D-01
 FoFJK:  IHMeth= 1 ICntrl=     0 DoSepK=T KAlg= 1 I1Cent= 0 FoldK=F
 E= -2905.42782745149     Delta-E=       -0.000002702439 Rises=F Damp=F
 DIIS: error= 2.64D-05 at cycle   4 NSaved=   4.
 NSaved= 4 IEnMin= 4 EnMin= -2905.42782745149     IErMin= 4 ErrMin= 2.64D-05
 ErrMax= 2.64D-05 EMaxC= 1.00D-01 BMatC= 2.04D-07 BMatP= 4.39D-06
 IDIUse=1 WtCom= 1.00D+00 WtEn= 0.00D+00
 Coeff-Com: -0.247D-02 0.678D-01 0.181D+00 0.754D+00
 Coeff:     -0.247D-02 0.678D-01 0.181D+00 0.754D+00
 Gap=     0.430 Goal=   None    Shift=    0.000
 RMSDP=2.02D-06 MaxDP=6.25D-05 DE=-2.70D-06 OVMax= 1.20D-04

 Cycle   5  Pass 1  IDiag  1:
 RMSU=  1.15D-06    CP:  1.00D+00  1.15D+00  7.75D-01  1.05D+00
 FoFJK:  IHMeth= 1 ICntrl=     0 DoSepK=T KAlg= 1 I1Cent= 0 FoldK=F
 E= -2905.42782759344     Delta-E=       -0.000000141953 Rises=F Damp=F
 DIIS: error= 1.04D-05 at cycle   5 NSaved=   5.
 NSaved= 5 IEnMin= 5 EnMin= -2905.42782759344     IErMin= 5 ErrMin= 1.04D-05
 ErrMax= 1.04D-05 EMaxC= 1.00D-01 BMatC= 4.67D-08 BMatP= 2.04D-07
 IDIUse=1 WtCom= 1.00D+00 WtEn= 0.00D+00
 Coeff-Com:  0.161D-03-0.540D-01-0.968D-02 0.357D+00 0.706D+00
 Coeff:      0.161D-03-0.540D-01-0.968D-02 0.357D+00 0.706D+00
 Gap=     0.430 Goal=   None    Shift=    0.000
 RMSDP=9.21D-07 MaxDP=3.82D-05 DE=-1.42D-07 OVMax= 5.18D-05

 Cycle   6  Pass 1  IDiag  1:
 RMSU=  3.53D-07    CP:  1.00D+00  1.15D+00  8.06D-01  1.17D+00  8.67D-01
 FoFJK:  IHMeth= 1 ICntrl=     0 DoSepK=T KAlg= 1 I1Cent= 0 FoldK=F
 E= -2905.42782762930     Delta-E=       -0.000000035860 Rises=F Damp=F
 DIIS: error= 2.24D-06 at cycle   6 NSaved=   6.
 NSaved= 6 IEnMin= 6 EnMin= -2905.42782762930     IErMin= 6 ErrMin= 2.24D-06
 ErrMax= 2.24D-06 EMaxC= 1.00D-01 BMatC= 1.41D-09 BMatP= 4.67D-08
 IDIUse=1 WtCom= 1.00D+00 WtEn= 0.00D+00
 Coeff-Com:  0.177D-03-0.215D-01-0.125D-01 0.754D-01 0.223D+00 0.735D+00
 Coeff:      0.177D-03-0.215D-01-0.125D-01 0.754D-01 0.223D+00 0.735D+00
 Gap=     0.430 Goal=   None    Shift=    0.000
 RMSDP=1.92D-07 MaxDP=6.28D-06 DE=-3.59D-08 OVMax= 1.00D-05

 Cycle   7  Pass 1  IDiag  1:
 RMSU=  8.59D-08    CP:  1.00D+00  1.15D+00  8.11D-01  1.19D+00  9.23D-01
                    CP:  1.04D+00
 FoFJK:  IHMeth= 1 ICntrl=     0 DoSepK=T KAlg= 1 I1Cent= 0 FoldK=F
 E= -2905.42782763072     Delta-E=       -0.000000001420 Rises=F Damp=F
 DIIS: error= 5.05D-07 at cycle   7 NSaved=   7.
 NSaved= 7 IEnMin= 7 EnMin= -2905.42782763072     IErMin= 7 ErrMin= 5.05D-07
 ErrMax= 5.05D-07 EMaxC= 1.00D-01 BMatC= 5.72D-11 BMatP= 1.41D-09
 IDIUse=1 WtCom= 1.00D+00 WtEn= 0.00D+00
 Coeff-Com: -0.122D-04 0.513D-02 0.136D-02-0.337D-01-0.688D-01 0.900D-03
 Coeff-Com:  0.110D+01
 Coeff:     -0.122D-04 0.513D-02 0.136D-02-0.337D-01-0.688D-01 0.900D-03
 Coeff:      0.110D+01
 Gap=     0.430 Goal=   None    Shift=    0.000
 RMSDP=8.55D-08 MaxDP=3.60D-06 DE=-1.42D-09 OVMax= 5.32D-06

 Cycle   8  Pass 1  IDiag  1:
 RMSU=  2.53D-08    CP:  1.00D+00  1.15D+00  8.13D-01  1.20D+00  9.37D-01
                    CP:  1.16D+00  1.19D+00
 FoFJK:  IHMeth= 1 ICntrl=     0 DoSepK=T KAlg= 1 I1Cent= 0 FoldK=F
 E= -2905.42782763085     Delta-E=       -0.000000000125 Rises=F Damp=F
 DIIS: error= 6.63D-08 at cycle   8 NSaved=   8.
 NSaved= 8 IEnMin= 8 EnMin= -2905.42782763085     IErMin= 8 ErrMin= 6.63D-08
 ErrMax= 6.63D-08 EMaxC= 1.00D-01 BMatC= 2.93D-12 BMatP= 5.72D-11
 IDIUse=1 WtCom= 1.00D+00 WtEn= 0.00D+00
 Coeff-Com: -0.112D-04 0.205D-02 0.828D-03-0.105D-01-0.235D-01-0.279D-01
 Coeff-Com:  0.208D+00 0.851D+00
 Coeff:     -0.112D-04 0.205D-02 0.828D-03-0.105D-01-0.235D-01-0.279D-01
 Coeff:      0.208D+00 0.851D+00
 Gap=     0.430 Goal=   None    Shift=    0.000
 RMSDP=1.21D-08 MaxDP=3.16D-07 DE=-1.25D-10 OVMax= 8.16D-07

 Cycle   9  Pass 1  IDiag  1:
 RMSU=  5.29D-09    CP:  1.00D+00  1.15D+00  8.13D-01  1.20D+00  9.36D-01
                    CP:  1.17D+00  1.23D+00  1.19D+00
 FoFJK:  IHMeth= 1 ICntrl=     0 DoSepK=T KAlg= 1 I1Cent= 0 FoldK=F
 E= -2905.42782763085     Delta-E=       -0.000000000001 Rises=F Damp=F
 DIIS: error= 1.85D-08 at cycle   9 NSaved=   9.
 NSaved= 9 IEnMin= 9 EnMin= -2905.42782763085     IErMin= 9 ErrMin= 1.85D-08
 ErrMax= 1.85D-08 EMaxC= 1.00D-01 BMatC= 1.72D-13 BMatP= 2.93D-12
 IDIUse=1 WtCom= 1.00D+00 WtEn= 0.00D+00
 Coeff-Com:  0.574D-06-0.296D-03-0.854D-04 0.199D-02 0.425D-02-0.227D-03
 Coeff-Com: -0.738D-01 0.321D-01 0.104D+01
 Coeff:      0.574D-06-0.296D-03-0.854D-04 0.199D-02 0.425D-02-0.227D-03
 Coeff:     -0.738D-01 0.321D-01 0.104D+01
 Gap=     0.430 Goal=   None    Shift=    0.000
 RMSDP=5.96D-09 MaxDP=1.92D-07 DE=-9.09D-13 OVMax= 2.65D-07

 SCF Done:  E(RwB97XD) =  -2905.42782763     A.U. after    9 cycles
             Convg  =    0.5964D-08             -V/T =  2.0015
 KE= 2.900935078878D+03 PE=-7.230825019881D+03 EE= 1.278014075776D+03
 Leave Link  502 at Thu Apr 16 13:21:21 2020, MaxMem= 1073741824 cpu:     236.4
 (Enter /home/matheus/.gaussian/g09/l108.exe)
 Variable Step   Value    
 -------- ---- -----------
     1       2    6.047124
 Leave Link  108 at Thu Apr 16 13:21:21 2020, MaxMem= 1073741824 cpu:       0.0
 (Enter /home/matheus/.gaussian/g09/l202.exe)
 ---------------------------------------------------------------------------------------------------
                            Z-MATRIX (ANGSTROMS AND DEGREES)
   CD    Cent   Atom    N1       Length/X        N2       Alpha/Y        N3        Beta/Z          J
 ---------------------------------------------------------------------------------------------------
      1      1  O        0   0.000000          0.000000          0.725000
      2      2  O        0   0.000000          0.000000         -0.725000
      3      3  H        0  -0.863315          0.314221          1.023510
      4      4  H        0   0.000000          0.918721         -1.023510
      5      5  Kr       0   0.000000          3.200000          0.000000
 ---------------------------------------------------------------------------------------------------
                         Z-Matrix orientation:                         
 ---------------------------------------------------------------------
 Center     Atomic      Atomic             Coordinates (Angstroms)
 Number     Number       Type             X           Y           Z
 ---------------------------------------------------------------------
      1          8           0        0.000000    0.000000    0.725000
      2          8           0        0.000000    0.000000   -0.725000
      3          1           0       -0.863315    0.314221    1.023510
      4          1           0        0.000000    0.918721   -1.023510
      5         36           0        0.000000    3.200000    0.000000
 ---------------------------------------------------------------------
                    Distance matrix (angstroms):
                    1          2          3          4          5
     1  O    0.000000
     2  O    1.450000   0.000000
     3  H    0.966000   1.975180   0.000000
     4  H    1.975180   0.966000   2.302396   0.000000
     5  Kr   3.281101   3.281101   3.181290   2.500362   0.000000
 Stoichiometry    H2KrO2
 Framework group  C1[X(H2KrO2)]
 Deg. of freedom     9
 Full point group                 C1      NOp   1
 RotChk:  IX=0 Diff= 8.23D-04
 Largest Abelian subgroup         C1      NOp   1
 Largest concise Abelian subgroup C1      NOp   1
                         Standard orientation:                         
 ---------------------------------------------------------------------
 Center     Atomic      Atomic             Coordinates (Angstroms)
 Number     Number       Type             X           Y           Z
 ---------------------------------------------------------------------
      1          8           0       -2.159946   -0.705631   -0.107928
      2          8           0       -2.151484    0.738676    0.020151
      3          1           0       -1.859189   -1.081355    0.729647
      4          1           0       -1.231121    1.029576    0.058434
      5         36           0        1.043937   -0.005905   -0.002385
 ---------------------------------------------------------------------
 Rotational constants (GHZ):     25.7098945      2.0731187      1.9285215
 Leave Link  202 at Thu Apr 16 13:21:21 2020, MaxMem= 1073741824 cpu:       0.0
 (Enter /home/matheus/.gaussian/g09/l301.exe)
 Standard basis: Aug-CC-pVTZ (5D, 7F)
 Ernie: Thresh=  0.10000D-02 Tol=  0.10000D-05 Strict=F.
 Ernie:  38 primitive shells out of 205 were deleted.
 There are   197 symmetry adapted basis functions of A   symmetry.
 Integral buffers will be    131072 words long.
 Raffenetti 2 integral format.
 Two-electron integral symmetry is turned on.
   197 basis functions,   415 primitive gaussians,   229 cartesian basis functions
    27 alpha electrons       27 beta electrons
       nuclear repulsion energy       143.1428763525 Hartrees.
 IExCor= 4639 DFT=T Ex+Corr=wB97XD ExCW=0 ScaHFX=  1.000000
 ScaDFX=  1.000000  1.000000  1.000000  1.000000 ScalE2=  1.000000  1.000000
 IRadAn=      5 IRanWt=     -1 IRanGd=            0 ICorTp=0
  HFx wShort=  0.000000 wLong=  0.250000 cFull=  0.222036 cShort=  0.000000 cLong=  0.777964
  DFx wShort=  0.000000 wLong=  0.250000 cFull=  0.000000 cShort=  0.000000 cLong=  1.000000
 NAtoms=    5 NActive=    5 NUniq=    5 SFac= 1.00D+00 NAtFMM=   60 NAOKFM=F Big=F
 R6Disp: Dispersion energy =        -0.0010933173 Hartrees.
 Nuclear repulsion after empirical dispersion term =      143.1417830352 Hartrees.
 Leave Link  301 at Thu Apr 16 13:21:21 2020, MaxMem= 1073741824 cpu:       0.2
 (Enter /home/matheus/.gaussian/g09/l302.exe)
 NPDir=0 NMtPBC=     1 NCelOv=     1 NCel=       1 NClECP=     1 NCelD=      1
         NCelK=      1 NCelE2=     1 NClLst=     1 CellRange=     0.0.
 One-electron integrals computed using PRISM.
 NBasis=   197 RedAO= T  NBF=   197
 NBsUse=   197 1.00D-06 NBFU=   197
 Precomputing XC quadrature grid using
 IXCGrd= 2 IRadAn=           5 IRanWt=          -1 IRanGd=           0 AccXCQ= 0.00D+00.
 NRdTot=     427 NPtTot=      123512 NUsed=      126579 NTot=      126611
 NSgBfM=   229   229   229   229   229 NAtAll=     5     5.
 Leave Link  302 at Thu Apr 16 13:21:21 2020, MaxMem= 1073741824 cpu:       1.1
 (Enter /home/matheus/.gaussian/g09/l303.exe)
 DipDrv:  MaxL=1.
 Leave Link  303 at Thu Apr 16 13:21:21 2020, MaxMem= 1073741824 cpu:       0.2
 (Enter /home/matheus/.gaussian/g09/l401.exe)
 Initial guess read from the read-write file.
 B after Tr=     0.000000    0.000000    0.000000
         Rot=    1.000000    0.000000    0.000000    0.000000 Ang=   0.00 deg.
 Guess basis will be translated and rotated to current coordinates.
 Initial guess orbital symmetries:
       Occupied  (A) (A) (A) (A) (A) (A) (A) (A) (A) (A) (A) (A)
                 (A) (A) (A) (A) (A) (A) (A) (A) (A) (A) (A) (A)
                 (A) (A) (A)
       Virtual   (A) (A) (A) (A) (A) (A) (A) (A) (A) (A) (A) (A)
                 (A) (A) (A) (A) (A) (A) (A) (A) (A) (A) (A) (A)
                 (A) (A) (A) (A) (A) (A) (A) (A) (A) (A) (A) (A)
                 (A) (A) (A) (A) (A) (A) (A) (A) (A) (A) (A) (A)
                 (A) (A) (A) (A) (A) (A) (A) (A) (A) (A) (A) (A)
                 (A) (A) (A) (A) (A) (A) (A) (A) (A) (A) (A) (A)
                 (A) (A) (A) (A) (A) (A) (A) (A) (A) (A) (A) (A)
                 (A) (A) (A) (A) (A) (A) (A) (A) (A) (A) (A) (A)
                 (A) (A) (A) (A) (A) (A) (A) (A) (A) (A) (A) (A)
                 (A) (A) (A) (A) (A) (A) (A) (A) (A) (A) (A) (A)
                 (A) (A) (A) (A) (A) (A) (A) (A) (A) (A) (A) (A)
                 (A) (A) (A) (A) (A) (A) (A) (A) (A) (A) (A) (A)
                 (A) (A) (A) (A) (A) (A) (A) (A) (A) (A) (A) (A)
                 (A) (A) (A) (A) (A) (A) (A) (A) (A) (A) (A) (A)
                 (A) (A)
 The electronic state of the initial guess is 1-A.
 Generating alternative initial guess.
 Harris functional with IExCor= 4639 diagonalized for initial guess.
 ExpMin= 2.53D-02 ExpMax= 1.17D+07 ExpMxC= 1.33D+04 IAcc=3 IRadAn=         5 AccDes= 0.00D+00
 HarFok:  IExCor= 4639 AccDes= 0.00D+00 IRadAn=         5 IDoV= 1
 ScaDFX=  1.000000  1.000000  1.000000  1.000000
 FoFCou: FMM=F IPFlag=           0 FMFlag=      100000 FMFlg1=           0
         NFxFlg=           0 DoJE=T BraDBF=F KetDBF=T FulRan=T
         Omega=  0.000000  0.000000  1.000000  0.000000  0.000000 ICntrl=     500 IOpCl=  0
         NMat0=    1 NMatS0=    1 NMatT0=    0 NMatD0=    1 NMtDS0=    0 NMtDT0=    0
         I1Cent=           4 NGrid=           0.
 Petite list used in FoFCou.
 Harris En= -2875.40257319179    
 Leave Link  401 at Thu Apr 16 13:21:22 2020, MaxMem= 1073741824 cpu:       4.4
 (Enter /home/matheus/.gaussian/g09/l502.exe)
 Closed shell SCF:
 Requested convergence on RMS density matrix=1.00D-08 within 128 cycles.
 Requested convergence on MAX density matrix=1.00D-06.
 Requested convergence on             energy=1.00D-06.
 No special actions if energy rises.
 Using DIIS extrapolation, IDIIS=  1040.
 Integral symmetry usage will be decided dynamically.
       126521 words used for storage of precomputed grid.
 IEnd=      305468 IEndB=      305468 NGot=  1073741824 MDV=  1073505667
 LenX=  1073505667 LenY=  1073452785
 Fock matrices will be formed incrementally for  20 cycles.

 Cycle   1  Pass 1  IDiag  1:
 FoFJK:  IHMeth= 1 ICntrl=     0 DoSepK=T KAlg= 1 I1Cent= 0 FoldK=F
 FoFCou: FMM=F IPFlag=           0 FMFlag=      100000 FMFlg1=           0
         NFxFlg=           0 DoJE=T BraDBF=F KetDBF=F FulRan=T
         Omega=  0.000000  0.000000  1.000000  0.000000  0.000000 ICntrl=     500 IOpCl=  0
         NMat0=    1 NMatS0=    1 NMatT0=    0 NMatD0=    1 NMtDS0=    0 NMtDT0=    0
         I1Cent=           0 NGrid=           0.
 Symmetry not used in FoFCou.
 E= -2905.42901121057    
 DIIS: error= 1.07D-03 at cycle   1 NSaved=   1.
 NSaved= 1 IEnMin= 1 EnMin= -2905.42901121057     IErMin= 1 ErrMin= 1.07D-03
 ErrMax= 1.07D-03 EMaxC= 1.00D-01 BMatC= 4.42D-04 BMatP= 4.42D-04
 IDIUse=3 WtCom= 9.89D-01 WtEn= 1.07D-02
 Coeff-Com:  0.100D+01
 Coeff-En:   0.100D+01
 Coeff:      0.100D+01
 Gap=     0.432 Goal=   None    Shift=    0.000
 GapD=    0.432 DampG=2.000 DampE=1.000 DampFc=2.0000 IDamp=-1.
 RMSDP=6.74D-05 MaxDP=2.06D-03              OVMax= 2.68D-03

 Cycle   2  Pass 1  IDiag  1:
 RMSU=  4.77D-05    CP:  1.00D+00
 FoFJK:  IHMeth= 1 ICntrl=     0 DoSepK=T KAlg= 1 I1Cent= 0 FoldK=F
 E= -2905.42908814183     Delta-E=       -0.000076931265 Rises=F Damp=F
 DIIS: error= 9.71D-05 at cycle   2 NSaved=   2.
 NSaved= 2 IEnMin= 2 EnMin= -2905.42908814183     IErMin= 2 ErrMin= 9.71D-05
 ErrMax= 9.71D-05 EMaxC= 1.00D-01 BMatC= 3.51D-06 BMatP= 4.42D-04
 IDIUse=1 WtCom= 1.00D+00 WtEn= 0.00D+00
 Coeff-Com: -0.195D-02 0.100D+01
 Coeff:     -0.195D-02 0.100D+01
 Gap=     0.430 Goal=   None    Shift=    0.000
 RMSDP=1.40D-05 MaxDP=5.55D-04 DE=-7.69D-05 OVMax= 7.20D-04

 Cycle   3  Pass 1  IDiag  1:
 RMSU=  8.08D-06    CP:  1.00D+00  1.12D+00
 FoFJK:  IHMeth= 1 ICntrl=     0 DoSepK=T KAlg= 1 I1Cent= 0 FoldK=F
 E= -2905.42909021273     Delta-E=       -0.000002070905 Rises=F Damp=F
 DIIS: error= 8.52D-05 at cycle   3 NSaved=   3.
 NSaved= 3 IEnMin= 3 EnMin= -2905.42909021273     IErMin= 3 ErrMin= 8.52D-05
 ErrMax= 8.52D-05 EMaxC= 1.00D-01 BMatC= 2.83D-06 BMatP= 3.51D-06
 IDIUse=1 WtCom= 1.00D+00 WtEn= 0.00D+00
 Coeff-Com: -0.742D-02 0.473D+00 0.534D+00
 Coeff:     -0.742D-02 0.473D+00 0.534D+00
 Gap=     0.430 Goal=   None    Shift=    0.000
 RMSDP=4.94D-06 MaxDP=2.65D-04 DE=-2.07D-06 OVMax= 3.67D-04

 Cycle   4  Pass 1  IDiag  1:
 RMSU=  2.54D-06    CP:  1.00D+00  1.14D+00  7.33D-01
 FoFJK:  IHMeth= 1 ICntrl=     0 DoSepK=T KAlg= 1 I1Cent= 0 FoldK=F
 E= -2905.42909195679     Delta-E=       -0.000001744060 Rises=F Damp=F
 DIIS: error= 2.39D-05 at cycle   4 NSaved=   4.
 NSaved= 4 IEnMin= 4 EnMin= -2905.42909195679     IErMin= 4 ErrMin= 2.39D-05
 ErrMax= 2.39D-05 EMaxC= 1.00D-01 BMatC= 1.46D-07 BMatP= 2.83D-06
 IDIUse=1 WtCom= 1.00D+00 WtEn= 0.00D+00
 Coeff-Com: -0.215D-02 0.528D-01 0.181D+00 0.769D+00
 Coeff:     -0.215D-02 0.528D-01 0.181D+00 0.769D+00
 Gap=     0.430 Goal=   None    Shift=    0.000
 RMSDP=1.81D-06 MaxDP=5.77D-05 DE=-1.74D-06 OVMax= 1.02D-04

 Cycle   5  Pass 1  IDiag  1:
 RMSU=  9.66D-07    CP:  1.00D+00  1.15D+00  8.15D-01  1.06D+00
 FoFJK:  IHMeth= 1 ICntrl=     0 DoSepK=T KAlg= 1 I1Cent= 0 FoldK=F
 E= -2905.42909206131     Delta-E=       -0.000000104519 Rises=F Damp=F
 DIIS: error= 8.72D-06 at cycle   5 NSaved=   5.
 NSaved= 5 IEnMin= 5 EnMin= -2905.42909206131     IErMin= 5 ErrMin= 8.72D-06
 ErrMax= 8.72D-06 EMaxC= 1.00D-01 BMatC= 3.20D-08 BMatP= 1.46D-07
 IDIUse=1 WtCom= 1.00D+00 WtEn= 0.00D+00
 Coeff-Com:  0.197D-03-0.555D-01-0.391D-02 0.362D+00 0.697D+00
 Coeff:      0.197D-03-0.555D-01-0.391D-02 0.362D+00 0.697D+00
 Gap=     0.430 Goal=   None    Shift=    0.000
 RMSDP=7.95D-07 MaxDP=3.28D-05 DE=-1.05D-07 OVMax= 4.19D-05

 Cycle   6  Pass 1  IDiag  1:
 RMSU=  2.95D-07    CP:  1.00D+00  1.16D+00  8.49D-01  1.18D+00  8.63D-01
 FoFJK:  IHMeth= 1 ICntrl=     0 DoSepK=T KAlg= 1 I1Cent= 0 FoldK=F
 E= -2905.42909208598     Delta-E=       -0.000000024665 Rises=F Damp=F
 DIIS: error= 1.83D-06 at cycle   6 NSaved=   6.
 NSaved= 6 IEnMin= 6 EnMin= -2905.42909208598     IErMin= 6 ErrMin= 1.83D-06
 ErrMax= 1.83D-06 EMaxC= 1.00D-01 BMatC= 9.45D-10 BMatP= 3.20D-08
 IDIUse=1 WtCom= 1.00D+00 WtEn= 0.00D+00
 Coeff-Com:  0.171D-03-0.206D-01-0.105D-01 0.726D-01 0.215D+00 0.743D+00
 Coeff:      0.171D-03-0.206D-01-0.105D-01 0.726D-01 0.215D+00 0.743D+00
 Gap=     0.430 Goal=   None    Shift=    0.000
 RMSDP=1.64D-07 MaxDP=5.59D-06 DE=-2.47D-08 OVMax= 8.98D-06

 Cycle   7  Pass 1  IDiag  1:
 RMSU=  7.03D-08    CP:  1.00D+00  1.16D+00  8.55D-01  1.21D+00  9.17D-01
                    CP:  1.04D+00
 FoFJK:  IHMeth= 1 ICntrl=     0 DoSepK=T KAlg= 1 I1Cent= 0 FoldK=F
 E= -2905.42909208695     Delta-E=       -0.000000000975 Rises=F Damp=F
 DIIS: error= 4.07D-07 at cycle   7 NSaved=   7.
 NSaved= 7 IEnMin= 7 EnMin= -2905.42909208695     IErMin= 7 ErrMin= 4.07D-07
 ErrMax= 4.07D-07 EMaxC= 1.00D-01 BMatC= 4.28D-11 BMatP= 9.45D-10
 IDIUse=1 WtCom= 1.00D+00 WtEn= 0.00D+00
 Coeff-Com: -0.159D-04 0.550D-02 0.805D-03-0.361D-01-0.703D-01 0.909D-02
 Coeff-Com:  0.109D+01
 Coeff:     -0.159D-04 0.550D-02 0.805D-03-0.361D-01-0.703D-01 0.909D-02
 Coeff:      0.109D+01
 Gap=     0.430 Goal=   None    Shift=    0.000
 RMSDP=7.17D-08 MaxDP=3.08D-06 DE=-9.75D-10 OVMax= 4.75D-06

 Cycle   8  Pass 1  IDiag  1:
 RMSU=  2.19D-08    CP:  1.00D+00  1.16D+00  8.57D-01  1.21D+00  9.31D-01
                    CP:  1.15D+00  1.19D+00
 FoFJK:  IHMeth= 1 ICntrl=     0 DoSepK=T KAlg= 1 I1Cent= 0 FoldK=F
 E= -2905.42909208708     Delta-E=       -0.000000000128 Rises=F Damp=F
 DIIS: error= 5.08D-08 at cycle   8 NSaved=   8.
 NSaved= 8 IEnMin= 8 EnMin= -2905.42909208708     IErMin= 8 ErrMin= 5.08D-08
 ErrMax= 5.08D-08 EMaxC= 1.00D-01 BMatC= 2.00D-12 BMatP= 4.28D-11
 IDIUse=1 WtCom= 1.00D+00 WtEn= 0.00D+00
 Coeff-Com: -0.110D-04 0.200D-02 0.576D-03-0.106D-01-0.224D-01-0.241D-01
 Coeff-Com:  0.204D+00 0.851D+00
 Coeff:     -0.110D-04 0.200D-02 0.576D-03-0.106D-01-0.224D-01-0.241D-01
 Coeff:      0.204D+00 0.851D+00
 Gap=     0.430 Goal=   None    Shift=    0.000
 RMSDP=1.03D-08 MaxDP=2.68D-07 DE=-1.28D-10 OVMax= 6.17D-07

 Cycle   9  Pass 1  IDiag  1:
 RMSU=  4.50D-09    CP:  1.00D+00  1.16D+00  8.57D-01  1.21D+00  9.30D-01
                    CP:  1.16D+00  1.23D+00  1.20D+00
 FoFJK:  IHMeth= 1 ICntrl=     0 DoSepK=T KAlg= 1 I1Cent= 0 FoldK=F
 E= -2905.42909208707     Delta-E=        0.000000000008 Rises=F Damp=F
 DIIS: error= 2.01D-08 at cycle   9 NSaved=   9.
 NSaved= 9 IEnMin= 8 EnMin= -2905.42909208708     IErMin= 9 ErrMin= 2.01D-08
 ErrMax= 2.01D-08 EMaxC= 1.00D-01 BMatC= 1.43D-13 BMatP= 2.00D-12
 IDIUse=1 WtCom= 1.00D+00 WtEn= 0.00D+00
 Coeff-Com:  0.102D-05-0.377D-03-0.655D-04 0.246D-02 0.513D-02-0.524D-03
 Coeff-Com: -0.828D-01 0.239D-01 0.105D+01
 Coeff:      0.102D-05-0.377D-03-0.655D-04 0.246D-02 0.513D-02-0.524D-03
 Coeff:     -0.828D-01 0.239D-01 0.105D+01
 Gap=     0.430 Goal=   None    Shift=    0.000
 RMSDP=5.54D-09 MaxDP=1.85D-07 DE= 8.19D-12 OVMax= 3.91D-07

 SCF Done:  E(RwB97XD) =  -2905.42909209     A.U. after    9 cycles
             Convg  =    0.5539D-08             -V/T =  2.0016
 KE= 2.900926305402D+03 PE=-7.224227263547D+03 EE= 1.274730083023D+03
 Leave Link  502 at Thu Apr 16 13:21:51 2020, MaxMem= 1073741824 cpu:     230.7
 (Enter /home/matheus/.gaussian/g09/l108.exe)
 Variable Step   Value    
 -------- ---- -----------
     1       3    6.236096
 Leave Link  108 at Thu Apr 16 13:21:51 2020, MaxMem= 1073741824 cpu:       0.0
 (Enter /home/matheus/.gaussian/g09/l202.exe)
 ---------------------------------------------------------------------------------------------------
                            Z-MATRIX (ANGSTROMS AND DEGREES)
   CD    Cent   Atom    N1       Length/X        N2       Alpha/Y        N3        Beta/Z          J
 ---------------------------------------------------------------------------------------------------
      1      1  O        0   0.000000          0.000000          0.725000
      2      2  O        0   0.000000          0.000000         -0.725000
      3      3  H        0  -0.863315          0.314221          1.023510
      4      4  H        0   0.000000          0.918721         -1.023510
      5      5  Kr       0   0.000000          3.300000          0.000000
 ---------------------------------------------------------------------------------------------------
                         Z-Matrix orientation:                         
 ---------------------------------------------------------------------
 Center     Atomic      Atomic             Coordinates (Angstroms)
 Number     Number       Type             X           Y           Z
 ---------------------------------------------------------------------
      1          8           0        0.000000    0.000000    0.725000
      2          8           0        0.000000    0.000000   -0.725000
      3          1           0       -0.863315    0.314221    1.023510
      4          1           0        0.000000    0.918721   -1.023510
      5         36           0        0.000000    3.300000    0.000000
 ---------------------------------------------------------------------
                    Distance matrix (angstroms):
                    1          2          3          4          5
     1  O    0.000000
     2  O    1.450000   0.000000
     3  H    0.966000   1.975180   0.000000
     4  H    1.975180   0.966000   2.302396   0.000000
     5  Kr   3.378702   3.378702   3.272272   2.591923   0.000000
 Stoichiometry    H2KrO2
 Framework group  C1[X(H2KrO2)]
 Deg. of freedom     9
 Full point group                 C1      NOp   1
 RotChk:  IX=0 Diff= 7.57D-04
 Largest Abelian subgroup         C1      NOp   1
 Largest concise Abelian subgroup C1      NOp   1
                         Standard orientation:                         
 ---------------------------------------------------------------------
 Center     Atomic      Atomic             Coordinates (Angstroms)
 Number     Number       Type             X           Y           Z
 ---------------------------------------------------------------------
      1          8           0       -2.226346   -0.706095   -0.108068
      2          8           0       -2.218446    0.738214    0.020038
      3          1           0       -1.925153   -1.081710    0.729399
      4          1           0       -1.298192    1.029498    0.058022
      5         36           0        1.077269   -0.005687   -0.002311
 ---------------------------------------------------------------------
 Rotational constants (GHZ):     25.7098813      1.9487916      1.8204794
 Leave Link  202 at Thu Apr 16 13:21:51 2020, MaxMem= 1073741824 cpu:       0.0
 (Enter /home/matheus/.gaussian/g09/l301.exe)
 Standard basis: Aug-CC-pVTZ (5D, 7F)
 Ernie: Thresh=  0.10000D-02 Tol=  0.10000D-05 Strict=F.
 Ernie:  38 primitive shells out of 205 were deleted.
 There are   197 symmetry adapted basis functions of A   symmetry.
 Integral buffers will be    131072 words long.
 Raffenetti 2 integral format.
 Two-electron integral symmetry is turned on.
   197 basis functions,   415 primitive gaussians,   229 cartesian basis functions
    27 alpha electrons       27 beta electrons
       nuclear repulsion energy       140.0237045117 Hartrees.
 IExCor= 4639 DFT=T Ex+Corr=wB97XD ExCW=0 ScaHFX=  1.000000
 ScaDFX=  1.000000  1.000000  1.000000  1.000000 ScalE2=  1.000000  1.000000
 IRadAn=      5 IRanWt=     -1 IRanGd=            0 ICorTp=0
  HFx wShort=  0.000000 wLong=  0.250000 cFull=  0.222036 cShort=  0.000000 cLong=  0.777964
  DFx wShort=  0.000000 wLong=  0.250000 cFull=  0.000000 cShort=  0.000000 cLong=  1.000000
 NAtoms=    5 NActive=    5 NUniq=    5 SFac= 1.00D+00 NAtFMM=   60 NAOKFM=F Big=F
 R6Disp: Dispersion energy =        -0.0011453158 Hartrees.
 Nuclear repulsion after empirical dispersion term =      140.0225591959 Hartrees.
 Leave Link  301 at Thu Apr 16 13:21:51 2020, MaxMem= 1073741824 cpu:       0.2
 (Enter /home/matheus/.gaussian/g09/l302.exe)
 NPDir=0 NMtPBC=     1 NCelOv=     1 NCel=       1 NClECP=     1 NCelD=      1
         NCelK=      1 NCelE2=     1 NClLst=     1 CellRange=     0.0.
 One-electron integrals computed using PRISM.
 NBasis=   197 RedAO= T  NBF=   197
 NBsUse=   197 1.00D-06 NBFU=   197
 Precomputing XC quadrature grid using
 IXCGrd= 2 IRadAn=           5 IRanWt=          -1 IRanGd=           0 AccXCQ= 0.00D+00.
 NRdTot=     427 NPtTot=      123512 NUsed=      126579 NTot=      126611
 NSgBfM=   229   229   229   229   229 NAtAll=     5     5.
 Leave Link  302 at Thu Apr 16 13:21:51 2020, MaxMem= 1073741824 cpu:       1.0
 (Enter /home/matheus/.gaussian/g09/l303.exe)
 DipDrv:  MaxL=1.
 Leave Link  303 at Thu Apr 16 13:21:51 2020, MaxMem= 1073741824 cpu:       0.2
 (Enter /home/matheus/.gaussian/g09/l401.exe)
 Initial guess read from the read-write file.
 B after Tr=     0.000000    0.000000    0.000000
         Rot=    1.000000    0.000000    0.000000    0.000000 Ang=   0.00 deg.
 Guess basis will be translated and rotated to current coordinates.
 Initial guess orbital symmetries:
       Occupied  (A) (A) (A) (A) (A) (A) (A) (A) (A) (A) (A) (A)
                 (A) (A) (A) (A) (A) (A) (A) (A) (A) (A) (A) (A)
                 (A) (A) (A)
       Virtual   (A) (A) (A) (A) (A) (A) (A) (A) (A) (A) (A) (A)
                 (A) (A) (A) (A) (A) (A) (A) (A) (A) (A) (A) (A)
                 (A) (A) (A) (A) (A) (A) (A) (A) (A) (A) (A) (A)
                 (A) (A) (A) (A) (A) (A) (A) (A) (A) (A) (A) (A)
                 (A) (A) (A) (A) (A) (A) (A) (A) (A) (A) (A) (A)
                 (A) (A) (A) (A) (A) (A) (A) (A) (A) (A) (A) (A)
                 (A) (A) (A) (A) (A) (A) (A) (A) (A) (A) (A) (A)
                 (A) (A) (A) (A) (A) (A) (A) (A) (A) (A) (A) (A)
                 (A) (A) (A) (A) (A) (A) (A) (A) (A) (A) (A) (A)
                 (A) (A) (A) (A) (A) (A) (A) (A) (A) (A) (A) (A)
                 (A) (A) (A) (A) (A) (A) (A) (A) (A) (A) (A) (A)
                 (A) (A) (A) (A) (A) (A) (A) (A) (A) (A) (A) (A)
                 (A) (A) (A) (A) (A) (A) (A) (A) (A) (A) (A) (A)
                 (A) (A) (A) (A) (A) (A) (A) (A) (A) (A) (A) (A)
                 (A) (A)
 The electronic state of the initial guess is 1-A.
 Generating alternative initial guess.
 Harris functional with IExCor= 4639 diagonalized for initial guess.
 ExpMin= 2.53D-02 ExpMax= 1.17D+07 ExpMxC= 1.33D+04 IAcc=3 IRadAn=         5 AccDes= 0.00D+00
 HarFok:  IExCor= 4639 AccDes= 0.00D+00 IRadAn=         5 IDoV= 1
 ScaDFX=  1.000000  1.000000  1.000000  1.000000
 FoFCou: FMM=F IPFlag=           0 FMFlag=      100000 FMFlg1=           0
         NFxFlg=           0 DoJE=T BraDBF=F KetDBF=T FulRan=T
         Omega=  0.000000  0.000000  1.000000  0.000000  0.000000 ICntrl=     500 IOpCl=  0
         NMat0=    1 NMatS0=    1 NMatT0=    0 NMatD0=    1 NMtDS0=    0 NMtDT0=    0
         I1Cent=           4 NGrid=           0.
 Petite list used in FoFCou.
 Harris En= -2875.40441298185    
 Leave Link  401 at Thu Apr 16 13:21:52 2020, MaxMem= 1073741824 cpu:       4.7
 (Enter /home/matheus/.gaussian/g09/l502.exe)
 Closed shell SCF:
 Requested convergence on RMS density matrix=1.00D-08 within 128 cycles.
 Requested convergence on MAX density matrix=1.00D-06.
 Requested convergence on             energy=1.00D-06.
 No special actions if energy rises.
 Using DIIS extrapolation, IDIIS=  1040.
 Integral symmetry usage will be decided dynamically.
       126521 words used for storage of precomputed grid.
 IEnd=      305468 IEndB=      305468 NGot=  1073741824 MDV=  1073505667
 LenX=  1073505667 LenY=  1073452785
 Fock matrices will be formed incrementally for  20 cycles.

 Cycle   1  Pass 1  IDiag  1:
 FoFJK:  IHMeth= 1 ICntrl=     0 DoSepK=T KAlg= 1 I1Cent= 0 FoldK=F
 FoFCou: FMM=F IPFlag=           0 FMFlag=      100000 FMFlg1=           0
         NFxFlg=           0 DoJE=T BraDBF=F KetDBF=F FulRan=T
         Omega=  0.000000  0.000000  1.000000  0.000000  0.000000 ICntrl=     500 IOpCl=  0
         NMat0=    1 NMatS0=    1 NMatT0=    0 NMatD0=    1 NMtDS0=    0 NMtDT0=    0
         I1Cent=           0 NGrid=           0.
 Symmetry not used in FoFCou.
 E= -2905.42983871506    
 DIIS: error= 9.00D-04 at cycle   1 NSaved=   1.
 NSaved= 1 IEnMin= 1 EnMin= -2905.42983871506     IErMin= 1 ErrMin= 9.00D-04
 ErrMax= 9.00D-04 EMaxC= 1.00D-01 BMatC= 3.31D-04 BMatP= 3.31D-04
 IDIUse=3 WtCom= 9.91D-01 WtEn= 9.00D-03
 Coeff-Com:  0.100D+01
 Coeff-En:   0.100D+01
 Coeff:      0.100D+01
 Gap=     0.432 Goal=   None    Shift=    0.000
 RMSDP=6.20D-05 MaxDP=1.95D-03              OVMax= 2.35D-03

 Cycle   2  Pass 1  IDiag  1:
 RMSU=  4.39D-05    CP:  1.00D+00
 FoFJK:  IHMeth= 1 ICntrl=     0 DoSepK=T KAlg= 1 I1Cent= 0 FoldK=F
 E= -2905.42989748911     Delta-E=       -0.000058774047 Rises=F Damp=F
 DIIS: error= 8.21D-05 at cycle   2 NSaved=   2.
 NSaved= 2 IEnMin= 2 EnMin= -2905.42989748911     IErMin= 2 ErrMin= 8.21D-05
 ErrMax= 8.21D-05 EMaxC= 1.00D-01 BMatC= 2.34D-06 BMatP= 3.31D-04
 IDIUse=1 WtCom= 1.00D+00 WtEn= 0.00D+00
 Coeff-Com: -0.391D-02 0.100D+01
 Coeff:     -0.391D-02 0.100D+01
 Gap=     0.430 Goal=   None    Shift=    0.000
 RMSDP=1.22D-05 MaxDP=4.38D-04 DE=-5.88D-05 OVMax= 5.91D-04

 Cycle   3  Pass 1  IDiag  1:
 RMSU=  6.55D-06    CP:  1.00D+00  1.13D+00
 FoFJK:  IHMeth= 1 ICntrl=     0 DoSepK=T KAlg= 1 I1Cent= 0 FoldK=F
 E= -2905.42989906168     Delta-E=       -0.000001572574 Rises=F Damp=F
 DIIS: error= 7.35D-05 at cycle   3 NSaved=   3.
 NSaved= 3 IEnMin= 3 EnMin= -2905.42989906168     IErMin= 3 ErrMin= 7.35D-05
 ErrMax= 7.35D-05 EMaxC= 1.00D-01 BMatC= 1.83D-06 BMatP= 2.34D-06
 IDIUse=1 WtCom= 1.00D+00 WtEn= 0.00D+00
 Coeff-Com: -0.749D-02 0.470D+00 0.538D+00
 Coeff:     -0.749D-02 0.470D+00 0.538D+00
 Gap=     0.431 Goal=   None    Shift=    0.000
 RMSDP=4.07D-06 MaxDP=2.15D-04 DE=-1.57D-06 OVMax= 3.04D-04

 Cycle   4  Pass 1  IDiag  1:
 RMSU=  2.21D-06    CP:  1.00D+00  1.15D+00  7.52D-01
 FoFJK:  IHMeth= 1 ICntrl=     0 DoSepK=T KAlg= 1 I1Cent= 0 FoldK=F
 E= -2905.42990019697     Delta-E=       -0.000001135284 Rises=F Damp=F
 DIIS: error= 2.14D-05 at cycle   4 NSaved=   4.
 NSaved= 4 IEnMin= 4 EnMin= -2905.42990019697     IErMin= 4 ErrMin= 2.14D-05
 ErrMax= 2.14D-05 EMaxC= 1.00D-01 BMatC= 1.07D-07 BMatP= 1.83D-06
 IDIUse=1 WtCom= 1.00D+00 WtEn= 0.00D+00
 Coeff-Com: -0.193D-02 0.375D-01 0.183D+00 0.782D+00
 Coeff:     -0.193D-02 0.375D-01 0.183D+00 0.782D+00
 Gap=     0.431 Goal=   None    Shift=    0.000
 RMSDP=1.64D-06 MaxDP=5.43D-05 DE=-1.14D-06 OVMax= 8.78D-05

 Cycle   5  Pass 1  IDiag  1:
 RMSU=  8.13D-07    CP:  1.00D+00  1.16D+00  8.49D-01  1.09D+00
 FoFJK:  IHMeth= 1 ICntrl=     0 DoSepK=T KAlg= 1 I1Cent= 0 FoldK=F
 E= -2905.42990027518     Delta-E=       -0.000000078208 Rises=F Damp=F
 DIIS: error= 7.43D-06 at cycle   5 NSaved=   5.
 NSaved= 5 IEnMin= 5 EnMin= -2905.42990027518     IErMin= 5 ErrMin= 7.43D-06
 ErrMax= 7.43D-06 EMaxC= 1.00D-01 BMatC= 2.22D-08 BMatP= 1.07D-07
 IDIUse=1 WtCom= 1.00D+00 WtEn= 0.00D+00
 Coeff-Com:  0.223D-03-0.563D-01 0.284D-02 0.366D+00 0.687D+00
 Coeff:      0.223D-03-0.563D-01 0.284D-02 0.366D+00 0.687D+00
 Gap=     0.431 Goal=   None    Shift=    0.000
 RMSDP=6.80D-07 MaxDP=2.75D-05 DE=-7.82D-08 OVMax= 3.38D-05

 Cycle   6  Pass 1  IDiag  1:
 RMSU=  2.47D-07    CP:  1.00D+00  1.16D+00  8.85D-01  1.20D+00  8.57D-01
 FoFJK:  IHMeth= 1 ICntrl=     0 DoSepK=T KAlg= 1 I1Cent= 0 FoldK=F
 E= -2905.42990029231     Delta-E=       -0.000000017138 Rises=F Damp=F
 DIIS: error= 1.58D-06 at cycle   6 NSaved=   6.
 NSaved= 6 IEnMin= 6 EnMin= -2905.42990029231     IErMin= 6 ErrMin= 1.58D-06
 ErrMax= 1.58D-06 EMaxC= 1.00D-01 BMatC= 6.54D-10 BMatP= 2.22D-08
 IDIUse=1 WtCom= 1.00D+00 WtEn= 0.00D+00
 Coeff-Com:  0.169D-03-0.196D-01-0.864D-02 0.693D-01 0.207D+00 0.752D+00
 Coeff:      0.169D-03-0.196D-01-0.864D-02 0.693D-01 0.207D+00 0.752D+00
 Gap=     0.431 Goal=   None    Shift=    0.000
 RMSDP=1.42D-07 MaxDP=5.40D-06 DE=-1.71D-08 OVMax= 8.09D-06

 Cycle   7  Pass 1  IDiag  1:
 RMSU=  5.86D-08    CP:  1.00D+00  1.16D+00  8.92D-01  1.22D+00  9.11D-01
                    CP:  1.03D+00
 FoFJK:  IHMeth= 1 ICntrl=     0 DoSepK=T KAlg= 1 I1Cent= 0 FoldK=F
 E= -2905.42990029302     Delta-E=       -0.000000000704 Rises=F Damp=F
 DIIS: error= 3.62D-07 at cycle   7 NSaved=   7.
 NSaved= 7 IEnMin= 7 EnMin= -2905.42990029302     IErMin= 7 ErrMin= 3.62D-07
 ErrMax= 3.62D-07 EMaxC= 1.00D-01 BMatC= 3.21D-11 BMatP= 6.54D-10
 IDIUse=1 WtCom= 1.00D+00 WtEn= 0.00D+00
 Coeff-Com: -0.203D-04 0.593D-02 0.150D-03-0.388D-01-0.728D-01 0.124D-01
 Coeff-Com:  0.109D+01
 Coeff:     -0.203D-04 0.593D-02 0.150D-03-0.388D-01-0.728D-01 0.124D-01
 Coeff:      0.109D+01
 Gap=     0.431 Goal=   None    Shift=    0.000
 RMSDP=6.14D-08 MaxDP=2.61D-06 DE=-7.04D-10 OVMax= 4.37D-06

 Cycle   8  Pass 1  IDiag  1:
 RMSU=  1.96D-08    CP:  1.00D+00  1.16D+00  8.94D-01  1.23D+00  9.24D-01
                    CP:  1.14D+00  1.22D+00
 FoFJK:  IHMeth= 1 ICntrl=     0 DoSepK=T KAlg= 1 I1Cent= 0 FoldK=F
 E= -2905.42990029309     Delta-E=       -0.000000000069 Rises=F Damp=F
 DIIS: error= 4.49D-08 at cycle   8 NSaved=   8.
 NSaved= 8 IEnMin= 8 EnMin= -2905.42990029309     IErMin= 8 ErrMin= 4.49D-08
 ErrMax= 4.49D-08 EMaxC= 1.00D-01 BMatC= 1.34D-12 BMatP= 3.21D-11
 IDIUse=1 WtCom= 1.00D+00 WtEn= 0.00D+00
 Coeff-Com: -0.105D-04 0.185D-02 0.312D-03-0.999D-02-0.202D-01-0.209D-01
 Coeff-Com:  0.186D+00 0.862D+00
 Coeff:     -0.105D-04 0.185D-02 0.312D-03-0.999D-02-0.202D-01-0.209D-01
 Coeff:      0.186D+00 0.862D+00
 Gap=     0.431 Goal=   None    Shift=    0.000
 RMSDP=9.52D-09 MaxDP=2.68D-07 DE=-6.91D-11 OVMax= 7.25D-07

 SCF Done:  E(RwB97XD) =  -2905.42990029     A.U. after    8 cycles
             Convg  =    0.9521D-08             -V/T =  2.0016
 KE= 2.900921058253D+03 PE=-7.218007681170D+03 EE= 1.271634163428D+03
 Leave Link  502 at Thu Apr 16 13:22:16 2020, MaxMem= 1073741824 cpu:     196.4
 (Enter /home/matheus/.gaussian/g09/l108.exe)
 Variable Step   Value    
 -------- ---- -----------
     1       4    6.425069
 Leave Link  108 at Thu Apr 16 13:22:16 2020, MaxMem= 1073741824 cpu:       0.0
 (Enter /home/matheus/.gaussian/g09/l202.exe)
 ---------------------------------------------------------------------------------------------------
                            Z-MATRIX (ANGSTROMS AND DEGREES)
   CD    Cent   Atom    N1       Length/X        N2       Alpha/Y        N3        Beta/Z          J
 ---------------------------------------------------------------------------------------------------
      1      1  O        0   0.000000          0.000000          0.725000
      2      2  O        0   0.000000          0.000000         -0.725000
      3      3  H        0  -0.863315          0.314221          1.023510
      4      4  H        0   0.000000          0.918721         -1.023510
      5      5  Kr       0   0.000000          3.400000          0.000000
 ---------------------------------------------------------------------------------------------------
                         Z-Matrix orientation:                         
 ---------------------------------------------------------------------
 Center     Atomic      Atomic             Coordinates (Angstroms)
 Number     Number       Type             X           Y           Z
 ---------------------------------------------------------------------
      1          8           0        0.000000    0.000000    0.725000
      2          8           0        0.000000    0.000000   -0.725000
      3          1           0       -0.863315    0.314221    1.023510
      4          1           0        0.000000    0.918721   -1.023510
      5         36           0        0.000000    3.400000    0.000000
 ---------------------------------------------------------------------
                    Distance matrix (angstroms):
                    1          2          3          4          5
     1  O    0.000000
     2  O    1.450000   0.000000
     3  H    0.966000   1.975180   0.000000
     4  H    1.975180   0.966000   2.302396   0.000000
     5  Kr   3.476439   3.476439   3.363766   2.684087   0.000000
 Stoichiometry    H2KrO2
 Framework group  C1[X(H2KrO2)]
 Deg. of freedom     9
 Full point group                 C1      NOp   1
 RotChk:  IX=0 Diff= 6.99D-04
 Largest Abelian subgroup         C1      NOp   1
 Largest concise Abelian subgroup C1      NOp   1
                         Standard orientation:                         
 ---------------------------------------------------------------------
 Center     Atomic      Atomic             Coordinates (Angstroms)
 Number     Number       Type             X           Y           Z
 ---------------------------------------------------------------------
      1          8           0       -2.292772   -0.706522   -0.108199
      2          8           0       -2.285380    0.737786    0.019934
[...]
 Coeff:     -0.380D-02 0.100D+01
 Gap=     0.430 Goal=   None    Shift=    0.000
 RMSDP=2.02D-06 MaxDP=6.08D-05 DE=-1.04D-06 OVMax= 9.01D-05

 Cycle   3  Pass 1  IDiag  1:
 RMSU=  8.29D-07    CP:  1.00D+00  1.11D+00
 FoFJK:  IHMeth= 1 ICntrl=     0 DoSepK=T KAlg= 1 I1Cent= 0 FoldK=F
 E= -2905.42977073907     Delta-E=       -0.000000033431 Rises=F Damp=F
 DIIS: error= 6.73D-06 at cycle   3 NSaved=   3.
 NSaved= 3 IEnMin= 3 EnMin= -2905.42977073907     IErMin= 3 ErrMin= 6.73D-06
 ErrMax= 6.73D-06 EMaxC= 1.00D-01 BMatC= 5.36D-09 BMatP= 2.73D-08
 IDIUse=1 WtCom= 1.00D+00 WtEn= 0.00D+00
 Coeff-Com: -0.588D-02 0.271D+00 0.734D+00
 Coeff:     -0.588D-02 0.271D+00 0.734D+00
 Gap=     0.430 Goal=   None    Shift=    0.000
 RMSDP=3.35D-07 MaxDP=8.55D-06 DE=-3.34D-08 OVMax= 2.88D-05

 Cycle   4  Pass 1  IDiag  1:
 RMSU=  1.95D-07    CP:  1.00D+00  1.12D+00  1.03D+00
 FoFJK:  IHMeth= 1 ICntrl=     0 DoSepK=T KAlg= 1 I1Cent= 0 FoldK=F
 E= -2905.42977074378     Delta-E=       -0.000000004711 Rises=F Damp=F
 DIIS: error= 1.98D-06 at cycle   4 NSaved=   4.
 NSaved= 4 IEnMin= 4 EnMin= -2905.42977074378     IErMin= 4 ErrMin= 1.98D-06
 ErrMax= 1.98D-06 EMaxC= 1.00D-01 BMatC= 7.59D-10 BMatP= 5.36D-09
 IDIUse=1 WtCom= 1.00D+00 WtEn= 0.00D+00
 Coeff-Com: -0.175D-02 0.295D-01 0.244D+00 0.729D+00
 Coeff:     -0.175D-02 0.295D-01 0.244D+00 0.729D+00
 Gap=     0.430 Goal=   None    Shift=    0.000
 RMSDP=1.58D-07 MaxDP=5.12D-06 DE=-4.71D-09 OVMax= 9.64D-06

 Cycle   5  Pass 1  IDiag  1:
 RMSU=  7.93D-08    CP:  1.00D+00  1.12D+00  1.12D+00  1.07D+00
 FoFJK:  IHMeth= 1 ICntrl=     0 DoSepK=T KAlg= 1 I1Cent= 0 FoldK=F
 E= -2905.42977074435     Delta-E=       -0.000000000567 Rises=F Damp=F
 DIIS: error= 1.26D-06 at cycle   5 NSaved=   5.
 NSaved= 5 IEnMin= 5 EnMin= -2905.42977074435     IErMin= 5 ErrMin= 1.26D-06
 ErrMax= 1.26D-06 EMaxC= 1.00D-01 BMatC= 2.57D-10 BMatP= 7.59D-10
 IDIUse=1 WtCom= 1.00D+00 WtEn= 0.00D+00
 Coeff-Com:  0.440D-03-0.495D-01-0.451D-01 0.392D+00 0.702D+00
 Coeff:      0.440D-03-0.495D-01-0.451D-01 0.392D+00 0.702D+00
 Gap=     0.430 Goal=   None    Shift=    0.000
 RMSDP=7.96D-08 MaxDP=2.68D-06 DE=-5.67D-10 OVMax= 5.38D-06

 Cycle   6  Pass 1  IDiag  1:
 RMSU=  2.76D-08    CP:  1.00D+00  1.12D+00  1.16D+00  1.22D+00  9.50D-01
 FoFJK:  IHMeth= 1 ICntrl=     0 DoSepK=T KAlg= 1 I1Cent= 0 FoldK=F
 E= -2905.42977074454     Delta-E=       -0.000000000196 Rises=F Damp=F
 DIIS: error= 1.14D-07 at cycle   6 NSaved=   6.
 NSaved= 6 IEnMin= 6 EnMin= -2905.42977074454     IErMin= 6 ErrMin= 1.14D-07
 ErrMax= 1.14D-07 EMaxC= 1.00D-01 BMatC= 5.41D-12 BMatP= 2.57D-10
 IDIUse=1 WtCom= 1.00D+00 WtEn= 0.00D+00
 Coeff-Com:  0.183D-03-0.126D-01-0.219D-01 0.607D-01 0.170D+00 0.803D+00
 Coeff:      0.183D-03-0.126D-01-0.219D-01 0.607D-01 0.170D+00 0.803D+00
 Gap=     0.430 Goal=   None    Shift=    0.000
 RMSDP=1.66D-08 MaxDP=5.92D-07 DE=-1.96D-10 OVMax= 1.19D-06

 Cycle   7  Pass 1  IDiag  1:
 RMSU=  7.84D-09    CP:  1.00D+00  1.12D+00  1.16D+00  1.25D+00  1.02D+00
                    CP:  1.16D+00
 FoFJK:  IHMeth= 1 ICntrl=     0 DoSepK=T KAlg= 1 I1Cent= 0 FoldK=F
 E= -2905.42977074454     Delta-E=       -0.000000000001 Rises=F Damp=F
 DIIS: error= 6.24D-08 at cycle   7 NSaved=   7.
 NSaved= 7 IEnMin= 7 EnMin= -2905.42977074454     IErMin= 7 ErrMin= 6.24D-08
 ErrMax= 6.24D-08 EMaxC= 1.00D-01 BMatC= 1.13D-12 BMatP= 5.41D-12
 IDIUse=1 WtCom= 1.00D+00 WtEn= 0.00D+00
 Coeff-Com: -0.231D-04 0.568D-02 0.734D-03-0.586D-01-0.816D-01 0.281D+00
 Coeff-Com:  0.853D+00
 Coeff:     -0.231D-04 0.568D-02 0.734D-03-0.586D-01-0.816D-01 0.281D+00
 Coeff:      0.853D+00
 Gap=     0.430 Goal=   None    Shift=    0.000
 RMSDP=9.08D-09 MaxDP=3.07D-07 DE=-1.36D-12 OVMax= 6.25D-07

 SCF Done:  E(RwB97XD) =  -2905.42977074     A.U. after    7 cycles
             Convg  =    0.9076D-08             -V/T =  2.0016
 KE= 2.900932782936D+03 PE=-7.151884079610D+03 EE= 1.238726571897D+03
 Leave Link  502 at Thu Apr 16 13:27:48 2020, MaxMem= 1073741824 cpu:     127.9
 (Enter /home/matheus/.gaussian/g09/l108.exe)
 Variable Step   Value    
 -------- ---- -----------
     1      20    9.448631
 Leave Link  108 at Thu Apr 16 13:27:48 2020, MaxMem= 1073741824 cpu:       0.0
 (Enter /home/matheus/.gaussian/g09/l202.exe)
 ---------------------------------------------------------------------------------------------------
                            Z-MATRIX (ANGSTROMS AND DEGREES)
   CD    Cent   Atom    N1       Length/X        N2       Alpha/Y        N3        Beta/Z          J
 ---------------------------------------------------------------------------------------------------
      1      1  O        0   0.000000          0.000000          0.725000
      2      2  O        0   0.000000          0.000000         -0.725000
      3      3  H        0  -0.863315          0.314221          1.023510
      4      4  H        0   0.000000          0.918721         -1.023510
      5      5  Kr       0   0.000000          5.000000          0.000000
 ---------------------------------------------------------------------------------------------------
                         Z-Matrix orientation:                         
 ---------------------------------------------------------------------
 Center     Atomic      Atomic             Coordinates (Angstroms)
 Number     Number       Type             X           Y           Z
 ---------------------------------------------------------------------
      1          8           0        0.000000    0.000000    0.725000
      2          8           0        0.000000    0.000000   -0.725000
      3          1           0       -0.863315    0.314221    1.023510
      4          1           0        0.000000    0.918721   -1.023510
      5         36           0        0.000000    5.000000    0.000000
 ---------------------------------------------------------------------
                    Distance matrix (angstroms):
                    1          2          3          4          5
     1  O    0.000000
     2  O    1.450000   0.000000
     3  H    0.966000   1.975180   0.000000
     4  H    1.975180   0.966000   2.302396   0.000000
     5  Kr   5.052289   5.052289   4.873337   4.207661   0.000000
 Stoichiometry    H2KrO2
 Framework group  C1[X(H2KrO2)]
 Deg. of freedom     9
 Full point group                 C1      NOp   1
 RotChk:  IX=0 Diff= 2.78D-04
 Largest Abelian subgroup         C1      NOp   1
 Largest concise Abelian subgroup C1      NOp   1
                         Standard orientation:                         
 ---------------------------------------------------------------------
 Center     Atomic      Atomic             Coordinates (Angstroms)
 Number     Number       Type             X           Y           Z
 ---------------------------------------------------------------------
      1          8           0       -3.357487   -0.710635   -0.109567
      2          8           0       -3.354268    0.733662    0.018863
      3          1           0       -3.051713   -1.085363    0.726637
      4          1           0       -2.434924    1.028235    0.053358
      5         36           0        1.643908   -0.003530   -0.001510
 ---------------------------------------------------------------------
 Rotational constants (GHZ):     25.7101440      0.8454446      0.8203569
 Leave Link  202 at Thu Apr 16 13:27:48 2020, MaxMem= 1073741824 cpu:       0.0
 (Enter /home/matheus/.gaussian/g09/l301.exe)
 Standard basis: Aug-CC-pVTZ (5D, 7F)
 Ernie: Thresh=  0.10000D-02 Tol=  0.10000D-05 Strict=F.
 Ernie:  38 primitive shells out of 205 were deleted.
 There are   197 symmetry adapted basis functions of A   symmetry.
 Integral buffers will be    131072 words long.
 Raffenetti 2 integral format.
 Two-electron integral symmetry is turned on.
   197 basis functions,   415 primitive gaussians,   229 cartesian basis functions
    27 alpha electrons       27 beta electrons
       nuclear repulsion energy       105.4050198831 Hartrees.
 IExCor= 4639 DFT=T Ex+Corr=wB97XD ExCW=0 ScaHFX=  1.000000
 ScaDFX=  1.000000  1.000000  1.000000  1.000000 ScalE2=  1.000000  1.000000
 IRadAn=      5 IRanWt=     -1 IRanGd=            0 ICorTp=0
  HFx wShort=  0.000000 wLong=  0.250000 cFull=  0.222036 cShort=  0.000000 cLong=  0.777964
  DFx wShort=  0.000000 wLong=  0.250000 cFull=  0.000000 cShort=  0.000000 cLong=  1.000000
 NAtoms=    5 NActive=    5 NUniq=    5 SFac= 1.00D+00 NAtFMM=   60 NAOKFM=F Big=F
 R6Disp: Dispersion energy =        -0.0005109601 Hartrees.
 Nuclear repulsion after empirical dispersion term =      105.4045089230 Hartrees.
 Leave Link  301 at Thu Apr 16 13:27:48 2020, MaxMem= 1073741824 cpu:       0.2
 (Enter /home/matheus/.gaussian/g09/l302.exe)
 NPDir=0 NMtPBC=     1 NCelOv=     1 NCel=       1 NClECP=     1 NCelD=      1
         NCelK=      1 NCelE2=     1 NClLst=     1 CellRange=     0.0.
 One-electron integrals computed using PRISM.
 NBasis=   197 RedAO= T  NBF=   197
 NBsUse=   197 1.00D-06 NBFU=   197
 Precomputing XC quadrature grid using
 IXCGrd= 2 IRadAn=           5 IRanWt=          -1 IRanGd=           0 AccXCQ= 0.00D+00.
 NRdTot=     427 NPtTot=      123814 NUsed=      126881 NTot=      126913
 NSgBfM=   228   228   229   229   229 NAtAll=     5     5.
 Leave Link  302 at Thu Apr 16 13:27:48 2020, MaxMem= 1073741824 cpu:       1.0
 (Enter /home/matheus/.gaussian/g09/l303.exe)
 DipDrv:  MaxL=1.
 Leave Link  303 at Thu Apr 16 13:27:49 2020, MaxMem= 1073741824 cpu:       0.2
 (Enter /home/matheus/.gaussian/g09/l401.exe)
 Initial guess read from the read-write file.
 B after Tr=     0.000000    0.000000    0.000000
         Rot=    1.000000    0.000000    0.000000    0.000000 Ang=   0.00 deg.
 Guess basis will be translated and rotated to current coordinates.
 Initial guess orbital symmetries:
       Occupied  (A) (A) (A) (A) (A) (A) (A) (A) (A) (A) (A) (A)
                 (A) (A) (A) (A) (A) (A) (A) (A) (A) (A) (A) (A)
                 (A) (A) (A)
       Virtual   (A) (A) (A) (A) (A) (A) (A) (A) (A) (A) (A) (A)
                 (A) (A) (A) (A) (A) (A) (A) (A) (A) (A) (A) (A)
                 (A) (A) (A) (A) (A) (A) (A) (A) (A) (A) (A) (A)
                 (A) (A) (A) (A) (A) (A) (A) (A) (A) (A) (A) (A)
                 (A) (A) (A) (A) (A) (A) (A) (A) (A) (A) (A) (A)
                 (A) (A) (A) (A) (A) (A) (A) (A) (A) (A) (A) (A)
                 (A) (A) (A) (A) (A) (A) (A) (A) (A) (A) (A) (A)
                 (A) (A) (A) (A) (A) (A) (A) (A) (A) (A) (A) (A)
                 (A) (A) (A) (A) (A) (A) (A) (A) (A) (A) (A) (A)
                 (A) (A) (A) (A) (A) (A) (A) (A) (A) (A) (A) (A)
                 (A) (A) (A) (A) (A) (A) (A) (A) (A) (A) (A) (A)
                 (A) (A) (A) (A) (A) (A) (A) (A) (A) (A) (A) (A)
                 (A) (A) (A) (A) (A) (A) (A) (A) (A) (A) (A) (A)
                 (A) (A) (A) (A) (A) (A) (A) (A) (A) (A) (A) (A)
                 (A) (A)
 The electronic state of the initial guess is 1-A.
 Generating alternative initial guess.
 Harris functional with IExCor= 4639 diagonalized for initial guess.
 ExpMin= 2.53D-02 ExpMax= 1.17D+07 ExpMxC= 1.33D+04 IAcc=3 IRadAn=         5 AccDes= 0.00D+00
 HarFok:  IExCor= 4639 AccDes= 0.00D+00 IRadAn=         5 IDoV= 1
 ScaDFX=  1.000000  1.000000  1.000000  1.000000
 FoFCou: FMM=F IPFlag=           0 FMFlag=      100000 FMFlg1=           0
         NFxFlg=           0 DoJE=T BraDBF=F KetDBF=T FulRan=T
         Omega=  0.000000  0.000000  1.000000  0.000000  0.000000 ICntrl=     500 IOpCl=  0
         NMat0=    1 NMatS0=    1 NMatT0=    0 NMatD0=    1 NMtDS0=    0 NMtDT0=    0
         I1Cent=           4 NGrid=           0.
 Petite list used in FoFCou.
 DSYEVD returned Info=         395 IAlg= 4 N=   197 NDim=   197 NE2=     5449925 trying DSYEV.
 Harris En= -2875.40553885731    
 Leave Link  401 at Thu Apr 16 13:27:49 2020, MaxMem= 1073741824 cpu:       4.0
 (Enter /home/matheus/.gaussian/g09/l502.exe)
 Closed shell SCF:
 Requested convergence on RMS density matrix=1.00D-08 within 128 cycles.
 Requested convergence on MAX density matrix=1.00D-06.
 Requested convergence on             energy=1.00D-06.
 No special actions if energy rises.
 Using DIIS extrapolation, IDIIS=  1040.
 Integral symmetry usage will be decided dynamically.
       126823 words used for storage of precomputed grid.
 IEnd=      305770 IEndB=      305770 NGot=  1073741824 MDV=  1073505365
 LenX=  1073505365 LenY=  1073452483
 Fock matrices will be formed incrementally for  20 cycles.

 Cycle   1  Pass 1  IDiag  1:
 FoFJK:  IHMeth= 1 ICntrl=     0 DoSepK=T KAlg= 1 I1Cent= 0 FoldK=F
 FoFCou: FMM=F IPFlag=           0 FMFlag=      100000 FMFlg1=           0
         NFxFlg=           0 DoJE=T BraDBF=F KetDBF=F FulRan=T
         Omega=  0.000000  0.000000  1.000000  0.000000  0.000000 ICntrl=     500 IOpCl=  0
         NMat0=    1 NMatS0=    1 NMatT0=    0 NMatD0=    1 NMtDS0=    0 NMtDT0=    0
         I1Cent=           0 NGrid=           0.
 Symmetry not used in FoFCou.
 E= -2905.42971739896    
 DIIS: error= 1.11D-04 at cycle   1 NSaved=   1.
 NSaved= 1 IEnMin= 1 EnMin= -2905.42971739896     IErMin= 1 ErrMin= 1.11D-04
 ErrMax= 1.11D-04 EMaxC= 1.00D-01 BMatC= 3.60D-06 BMatP= 3.60D-06
 IDIUse=3 WtCom= 9.99D-01 WtEn= 1.11D-03
 Coeff-Com:  0.100D+01
 Coeff-En:   0.100D+01
 Coeff:      0.100D+01
 Gap=     0.430 Goal=   None    Shift=    0.000
 RMSDP=1.49D-05 MaxDP=5.07D-04              OVMax= 4.22D-04

 Cycle   2  Pass 1  IDiag  1:
 RMSU=  1.05D-05    CP:  1.00D+00
 FoFJK:  IHMeth= 1 ICntrl=     0 DoSepK=T KAlg= 1 I1Cent= 0 FoldK=F
 E= -2905.42971826522     Delta-E=       -0.000000866257 Rises=F Damp=F
 DIIS: error= 1.34D-05 at cycle   2 NSaved=   2.
 NSaved= 2 IEnMin= 2 EnMin= -2905.42971826522     IErMin= 2 ErrMin= 1.34D-05
 ErrMax= 1.34D-05 EMaxC= 1.00D-01 BMatC= 2.27D-08 BMatP= 3.60D-06
 IDIUse=1 WtCom= 1.00D+00 WtEn= 0.00D+00
 Coeff-Com: -0.331D-02 0.100D+01
 Coeff:     -0.331D-02 0.100D+01
 Gap=     0.430 Goal=   None    Shift=    0.000
 RMSDP=1.85D-06 MaxDP=5.83D-05 DE=-8.66D-07 OVMax= 8.24D-05

 Cycle   3  Pass 1  IDiag  1:
 RMSU=  7.77D-07    CP:  1.00D+00  1.10D+00
 FoFJK:  IHMeth= 1 ICntrl=     0 DoSepK=T KAlg= 1 I1Cent= 0 FoldK=F
 E= -2905.42971829273     Delta-E=       -0.000000027511 Rises=F Damp=F
 DIIS: error= 5.82D-06 at cycle   3 NSaved=   3.
 NSaved= 3 IEnMin= 3 EnMin= -2905.42971829273     IErMin= 3 ErrMin= 5.82D-06
 ErrMax= 5.82D-06 EMaxC= 1.00D-01 BMatC= 4.42D-09 BMatP= 2.27D-08
 IDIUse=1 WtCom= 1.00D+00 WtEn= 0.00D+00
 Coeff-Com: -0.552D-02 0.272D+00 0.734D+00
 Coeff:     -0.552D-02 0.272D+00 0.734D+00
 Gap=     0.430 Goal=   None    Shift=    0.000
 RMSDP=3.01D-07 MaxDP=7.98D-06 DE=-2.75D-08 OVMax= 2.60D-05

 Cycle   4  Pass 1  IDiag  1:
 RMSU=  1.77D-07    CP:  1.00D+00  1.11D+00  1.04D+00
 FoFJK:  IHMeth= 1 ICntrl=     0 DoSepK=T KAlg= 1 I1Cent= 0 FoldK=F
 E= -2905.42971829662     Delta-E=       -0.000000003890 Rises=F Damp=F
 DIIS: error= 1.66D-06 at cycle   4 NSaved=   4.
 NSaved= 4 IEnMin= 4 EnMin= -2905.42971829662     IErMin= 4 ErrMin= 1.66D-06
 ErrMax= 1.66D-06 EMaxC= 1.00D-01 BMatC= 5.61D-10 BMatP= 4.42D-09
 IDIUse=1 WtCom= 1.00D+00 WtEn= 0.00D+00
 Coeff-Com: -0.155D-02 0.261D-01 0.229D+00 0.747D+00
 Coeff:     -0.155D-02 0.261D-01 0.229D+00 0.747D+00
 Gap=     0.430 Goal=   None    Shift=    0.000
 RMSDP=1.48D-07 MaxDP=4.72D-06 DE=-3.89D-09 OVMax= 8.46D-06

 Cycle   5  Pass 1  IDiag  1:
 RMSU=  7.14D-08    CP:  1.00D+00  1.11D+00  1.12D+00  1.10D+00
 FoFJK:  IHMeth= 1 ICntrl=     0 DoSepK=T KAlg= 1 I1Cent= 0 FoldK=F
 E= -2905.42971829704     Delta-E=       -0.000000000421 Rises=F Damp=F
 DIIS: error= 1.14D-06 at cycle   5 NSaved=   5.
 NSaved= 5 IEnMin= 5 EnMin= -2905.42971829704     IErMin= 5 ErrMin= 1.14D-06
 ErrMax= 1.14D-06 EMaxC= 1.00D-01 BMatC= 2.10D-10 BMatP= 5.61D-10
 IDIUse=1 WtCom= 1.00D+00 WtEn= 0.00D+00
 Coeff-Com:  0.407D-03-0.488D-01-0.452D-01 0.407D+00 0.687D+00
 Coeff:      0.407D-03-0.488D-01-0.452D-01 0.407D+00 0.687D+00
 Gap=     0.430 Goal=   None    Shift=    0.000
 RMSDP=7.04D-08 MaxDP=2.27D-06 DE=-4.21D-10 OVMax= 4.62D-06

 Cycle   6  Pass 1  IDiag  1:
 RMSU=  2.57D-08    CP:  1.00D+00  1.11D+00  1.16D+00  1.24D+00  9.50D-01
 FoFJK:  IHMeth= 1 ICntrl=     0 DoSepK=T KAlg= 1 I1Cent= 0 FoldK=F
 E= -2905.42971829720     Delta-E=       -0.000000000158 Rises=F Damp=F
 DIIS: error= 1.14D-07 at cycle   6 NSaved=   6.
 NSaved= 6 IEnMin= 6 EnMin= -2905.42971829720     IErMin= 6 ErrMin= 1.14D-07
 ErrMax= 1.14D-07 EMaxC= 1.00D-01 BMatC= 4.95D-12 BMatP= 2.10D-10
 IDIUse=1 WtCom= 1.00D+00 WtEn= 0.00D+00
 Coeff-Com:  0.182D-03-0.137D-01-0.231D-01 0.716D-01 0.184D+00 0.781D+00
 Coeff:      0.182D-03-0.137D-01-0.231D-01 0.716D-01 0.184D+00 0.781D+00
 Gap=     0.430 Goal=   None    Shift=    0.000
 RMSDP=1.51D-08 MaxDP=5.34D-07 DE=-1.58D-10 OVMax= 1.04D-06

 Cycle   7  Pass 1  IDiag  1:
 RMSU=  7.30D-09    CP:  1.00D+00  1.11D+00  1.16D+00  1.27D+00  1.02D+00
                    CP:  1.15D+00
 FoFJK:  IHMeth= 1 ICntrl=     0 DoSepK=T KAlg= 1 I1Cent= 0 FoldK=F
 E= -2905.42971829722     Delta-E=       -0.000000000021 Rises=F Damp=F
 DIIS: error= 5.67D-08 at cycle   7 NSaved=   7.
 NSaved= 7 IEnMin= 7 EnMin= -2905.42971829722     IErMin= 7 ErrMin= 5.67D-08
 ErrMax= 5.67D-08 EMaxC= 1.00D-01 BMatC= 9.17D-13 BMatP= 4.95D-12
 IDIUse=1 WtCom= 1.00D+00 WtEn= 0.00D+00
 Coeff-Com: -0.207D-04 0.554D-02 0.838D-03-0.602D-01-0.785D-01 0.259D+00
 Coeff-Com:  0.873D+00
 Coeff:     -0.207D-04 0.554D-02 0.838D-03-0.602D-01-0.785D-01 0.259D+00
 Coeff:      0.873D+00
 Gap=     0.430 Goal=   None    Shift=    0.000
 RMSDP=8.47D-09 MaxDP=2.93D-07 DE=-2.09D-11 OVMax= 5.75D-07

 SCF Done:  E(RwB97XD) =  -2905.42971830     A.U. after    7 cycles
             Convg  =    0.8475D-08             -V/T =  2.0015
 KE= 2.900933272945D+03 PE=-7.149116004604D+03 EE= 1.237348504439D+03
 Leave Link  502 at Thu Apr 16 13:28:05 2020, MaxMem= 1073741824 cpu:     127.1
 (Enter /home/matheus/.gaussian/g09/l108.exe)
 Scan completed.

 Summary of the potential surface scan:
   N      R1          SCF    
 ----  ---------  -----------
    1     3.0000  -2905.42590
    2     3.1000  -2905.42783
    3     3.2000  -2905.42909
    4     3.3000  -2905.42990
    5     3.4000  -2905.43038
    6     3.5000  -2905.43064
    7     3.6000  -2905.43075
    8     3.7000  -2905.43076
    9     3.8000  -2905.43072
   10     3.9000  -2905.43064
   11     4.0000  -2905.43054
   12     4.1000  -2905.43044
   13     4.2000  -2905.43034
   14     4.3000  -2905.43023
   15     4.4000  -2905.43014
   16     4.5000  -2905.43005
   17     4.6000  -2905.42997
   18     4.7000  -2905.42990
   19     4.8000  -2905.42983
   20     4.9000  -2905.42977
   21     5.0000  -2905.42972
 ----  ---------  -----------
  
 Leave Link  108 at Thu Apr 16 13:28:05 2020, MaxMem= 1073741824 cpu:       0.0
 (Enter /home/matheus/.gaussian/g09/l9999.exe)

 Test job not archived.
 1\1\GINC-REDGIANT\Scan\RwB97XD\Aug-CC-pVTZ\H2Kr1O2\ROOT\16-Apr-2020\1\
 \#p wb97xd/aug-cc-PVTz iop(3/107=0250000000) iop(3/108=0250000000) int
 =ultrafine Scan\\TCC\\0,1\O,0,0.,0.,0.725\O,0,0.,0.,-0.725\H,0,-0.8633
 149634,0.3142209495,1.0235104166\H,0,0.,0.9187205947,-1.0235104166\Kr,
 0,0.,R1,0.\\R1=3.,s,20,0.1\\Version=EM64L-G09RevC.01\State=1-A\HF=-290
 5.425905,-2905.4278276,-2905.4290921,-2905.4299003,-2905.4303755,-2905
 .4306367,-2905.4307451,-2905.4307619,-2905.4307189,-2905.4306398,-2905
 .4305437,-2905.4304405,-2905.4303363,-2905.4302337,-2905.4301392,-2905
 .4300516,-2905.4299692,-2905.4298954,-2905.4298303,-2905.4297707,-2905
 .4297183\RMSD=6.196e-09,5.964e-09,5.539e-09,9.521e-09,9.640e-09,9.716e
 -09,9.839e-09,9.932e-09,9.346e-09,8.424e-09,7.288e-09,6.172e-09,5.225e
 -09,4.335e-09,3.499e-09,2.959e-09,2.644e-09,2.251e-09,9.727e-09,9.076e
 -09,8.475e-09\PG=C01 [X(H2Kr1O2)]\\@


 ALL SCIENCE IS EITHER PHYSICS, OR STAMP COLLECTING.
   --ERNEST RUTHERFORD, 1871-1937.
 Job cpu time:  0 days  1 hours  2 minutes 59.0 seconds.
 File lengths (MBytes):  RWF=     27 Int=      0 D2E=      0 Chk=      4 Scr=      1
 Normal termination of Gaussian 09 at Thu Apr 16 13:28:05 2020.
