 Entering Gaussian System, Link 0=g09
 Input=/home/matheus/.tcc/Inputs-wb97xd/H2O2-Kr_32.com
 Output=/home/matheus/.tcc/Logs-wb97xd/H2O2-Kr_32.log
 Initial command:
 /home/matheus/.gaussian/g09/l1.exe /home/matheus/.gaussian/g09/scratch/Gau-30595.inp -scrdir=/home/matheus/.gaussian/g09/scratch/
 Entering Link 1 = /home/matheus/.gaussian/g09/l1.exe PID=     30598.
  
 Copyright (c) 1988,1990,1992,1993,1995,1998,2003,2009,2011,
            Gaussian, Inc.  All Rights Reserved.
  
 This is part of the Gaussian(R) 09 program.  It is based on
 the Gaussian(R) 03 system (copyright 2003, Gaussian, Inc.),
 the Gaussian(R) 98 system (copyright 1998, Gaussian, Inc.),
 the Gaussian(R) 94 system (copyright 1995, Gaussian, Inc.),
 the Gaussian 92(TM) system (copyright 1992, Gaussian, Inc.),
 the Gaussian 90(TM) system (copyright 1990, Gaussian, Inc.),
 the Gaussian 88(TM) system (copyright 1988, Gaussian, Inc.),
 the Gaussian 86(TM) system (copyright 1986, Carnegie Mellon
 University), and the Gaussian 82(TM) system (copyright 1983,
 Carnegie Mellon University). Gaussian is a federally registered
 trademark of Gaussian, Inc.
  
 This software contains proprietary and confidential information,
 including trade secrets, belonging to Gaussian, Inc.
  
 This software is provided under written license and may be
 used, copied, transmitted, or stored only in accord with that
 written license.
  
 The following legend is applicable only to US Government
 contracts under FAR:
  
                    RESTRICTED RIGHTS LEGEND
  
 Use, reproduction and disclosure by the US Government is
 subject to restrictions as set forth in subparagraphs (a)
 and (c) of the Commercial Computer Software - Restricted
 Rights clause in FAR 52.227-19.
  
 Gaussian, Inc.
 340 Quinnipiac St., Bldg. 40, Wallingford CT 06492
  
  
 ---------------------------------------------------------------
 Warning -- This program may not be used in any manner that
 competes with the business of Gaussian, Inc. or will provide
 assistance to any competitor of Gaussian, Inc.  The licensee
 of this program is prohibited from giving any competitor of
 Gaussian, Inc. access to this program.  By using this program,
 the user acknowledges that Gaussian, Inc. is engaged in the
 business of creating and licensing software in the field of
 computational chemistry and represents and warrants to the
 licensee that it is not a competitor of Gaussian, Inc. and that
 it will not use this program in any manner prohibited above.
 ---------------------------------------------------------------
  

 Cite this work as:
 Gaussian 09, Revision C.01,
 M. J. Frisch, G. W. Trucks, H. B. Schlegel, G. E. Scuseria, 
 M. A. Robb, J. R. Cheeseman, G. Scalmani, V. Barone, B. Mennucci, 
 G. A. Petersson, H. Nakatsuji, M. Caricato, X. Li, H. P. Hratchian, 
 A. F. Izmaylov, J. Bloino, G. Zheng, J. L. Sonnenberg, M. Hada, 
 M. Ehara, K. Toyota, R. Fukuda, J. Hasegawa, M. Ishida, T. Nakajima, 
 Y. Honda, O. Kitao, H. Nakai, T. Vreven, J. A. Montgomery, Jr., 
 J. E. Peralta, F. Ogliaro, M. Bearpark, J. J. Heyd, E. Brothers, 
 K. N. Kudin, V. N. Staroverov, T. Keith, R. Kobayashi, J. Normand, 
 K. Raghavachari, A. Rendell, J. C. Burant, S. S. Iyengar, J. Tomasi, 
 M. Cossi, N. Rega, J. M. Millam, M. Klene, J. E. Knox, J. B. Cross, 
 V. Bakken, C. Adamo, J. Jaramillo, R. Gomperts, R. E. Stratmann, 
 O. Yazyev, A. J. Austin, R. Cammi, C. Pomelli, J. W. Ochterski, 
 R. L. Martin, K. Morokuma, V. G. Zakrzewski, G. A. Voth, 
 P. Salvador, J. J. Dannenberg, S. Dapprich, A. D. Daniels, 
 O. Farkas, J. B. Foresman, J. V. Ortiz, J. Cioslowski, 
 and D. J. Fox, Gaussian, Inc., Wallingford CT, 2010.
 
 ******************************************
 Gaussian 09:  EM64L-G09RevC.01 23-Sep-2011
                16-Apr-2020 
 ******************************************
 %mem=8GB
 %nproc=8
 Will use up to    8 processors via shared memory.
 ----------------------------------------------------------------------
 #p wb97xd/aug-cc-PVTz iop(3/107=0250000000) iop(3/108=0250000000) int=
 ultrafine Scan
 ----------------------------------------------------------------------
 1/38=1,60=1/1,8;
 2/12=2,17=6,18=5,29=3,40=1/2;
 3/5=16,6=1,7=10,11=2,16=1,25=1,30=1,74=-58,75=-5,107=250000000,108=250000000/1,2,3;
 4//1;
 5/5=2,38=5/2;
 6/7=2,8=2,9=2,10=2,18=1,28=1/1;
 1/60=1/8(1);
 99/9=1/99;
 2/29=3/2;
 3/5=16,6=1,7=10,11=2,16=1,25=1,30=1,74=-58,75=-5,107=250000000,108=250000000/1,2,3;
 4/5=5,16=3/1;
 5/5=2,38=5/2;
 1/60=1/8(-4);
 99/9=1/99;
 Leave Link    1 at Thu Apr 16 13:44:17 2020, MaxMem= 1073741824 cpu:       0.1
 (Enter /home/matheus/.gaussian/g09/l101.exe)
 ---
 TCC
 ---
 Charge =  0 Multiplicity = 1
 Symbolic Z-Matrix:
 O                     0.        0.        0.725 
 O                     0.        0.       -0.725 
 H                    -0.59054   0.70378   1.02351 
 H                     0.        0.91872  -1.02351 
 Kr                    0.       R1        0. 
       Variables:
  R1                    3.     Scan 20    0.1    
 
 NAtoms=      5 NQM=        0 NQMF=       0 NMMI=      5 NMMIF=      0
                NMic=       0 NMicF=      0.
                    Isotopes and Nuclear Properties:
 (Nuclear quadrupole moments (NQMom) in fm**2, nuclear magnetic moments (NMagM)
  in nuclear magnetons)

  Atom         1           2           3           4           5
 IAtWgt=          16          16           1           1          84
 AtmWgt=  15.9949146  15.9949146   1.0078250   1.0078250  83.9115064
 NucSpn=           0           0           1           1           0
 AtZEff=   0.0000000   0.0000000   0.0000000   0.0000000   0.0000000
 NQMom=    0.0000000   0.0000000   0.0000000   0.0000000   0.0000000
 NMagM=    0.0000000   0.0000000   2.7928460   2.7928460   0.0000000
 Leave Link  101 at Thu Apr 16 13:44:17 2020, MaxMem= 1073741824 cpu:       0.3
 (Enter /home/matheus/.gaussian/g09/l108.exe)
 Scan the potential surface.
 Variable   Value     No. Steps Step-Size
 -------- ----------- --------- ---------
     1       3.000000      20      0.1000
 A total of     21 points will be computed.
 Leave Link  108 at Thu Apr 16 13:44:17 2020, MaxMem= 1073741824 cpu:       0.0
 (Enter /home/matheus/.gaussian/g09/l202.exe)
 ---------------------------------------------------------------------------------------------------
                            Z-MATRIX (ANGSTROMS AND DEGREES)
   CD    Cent   Atom    N1       Length/X        N2       Alpha/Y        N3        Beta/Z          J
 ---------------------------------------------------------------------------------------------------
      1      1  O        0   0.000000          0.000000          0.725000
      2      2  O        0   0.000000          0.000000         -0.725000
      3      3  H        0  -0.590542          0.703781          1.023510
      4      4  H        0   0.000000          0.918721         -1.023510
      5      5  Kr       0   0.000000          3.000000          0.000000
 ---------------------------------------------------------------------------------------------------
                         Z-Matrix orientation:                         
 ---------------------------------------------------------------------
 Center     Atomic      Atomic             Coordinates (Angstroms)
 Number     Number       Type             X           Y           Z
 ---------------------------------------------------------------------
      1          8           0        0.000000    0.000000    0.725000
      2          8           0        0.000000    0.000000   -0.725000
      3          1           0       -0.590542    0.703781    1.023510
      4          1           0        0.000000    0.918721   -1.023510
      5         36           0        0.000000    3.000000    0.000000
 ---------------------------------------------------------------------
                    Distance matrix (angstroms):
                    1          2          3          4          5
     1  O    0.000000
     2  O    1.450000   0.000000
     3  H    0.966000   1.975180   0.000000
     4  H    1.975180   0.966000   2.141316   0.000000
     5  Kr   3.086361   3.086361   2.582428   2.319331   0.000000
 Stoichiometry    H2KrO2
 Framework group  C1[X(H2KrO2)]
 Deg. of freedom     9
 Full point group                 C1      NOp   1
 Largest Abelian subgroup         C1      NOp   1
 Largest concise Abelian subgroup C1      NOp   1
                         Standard orientation:                         
 ---------------------------------------------------------------------
 Center     Atomic      Atomic             Coordinates (Angstroms)
 Number     Number       Type             X           Y           Z
 ---------------------------------------------------------------------
      1          8           0       -2.031661   -0.717244   -0.068894
      2          8           0       -2.028133    0.730229    0.016606
      3          1           0       -1.333152   -1.052071    0.508282
      4          1           0       -1.108715    1.025573    0.041099
      5         36           0        0.970006   -0.002150   -0.003641
 ---------------------------------------------------------------------
 Rotational constants (GHZ):     26.2249700      2.3786625      2.1869902
 Leave Link  202 at Thu Apr 16 13:44:17 2020, MaxMem= 1073741824 cpu:       0.0
 (Enter /home/matheus/.gaussian/g09/l301.exe)
 Standard basis: Aug-CC-pVTZ (5D, 7F)
 Ernie: Thresh=  0.10000D-02 Tol=  0.10000D-05 Strict=F.
 Ernie:  38 primitive shells out of 205 were deleted.
 There are   197 symmetry adapted basis functions of A   symmetry.
 Integral buffers will be    131072 words long.
 Raffenetti 2 integral format.
 Two-electron integral symmetry is turned on.
   197 basis functions,   415 primitive gaussians,   229 cartesian basis functions
    27 alpha electrons       27 beta electrons
       nuclear repulsion energy       151.0050746500 Hartrees.
 IExCor= 4639 DFT=T Ex+Corr=wB97XD ExCW=0 ScaHFX=  1.000000
 ScaDFX=  1.000000  1.000000  1.000000  1.000000 ScalE2=  1.000000  1.000000
 IRadAn=      5 IRanWt=     -1 IRanGd=            0 ICorTp=0
  HFx wShort=  0.000000 wLong=  0.250000 cFull=  0.222036 cShort=  0.000000 cLong=  0.777964
  DFx wShort=  0.000000 wLong=  0.250000 cFull=  0.000000 cShort=  0.000000 cLong=  1.000000
 NAtoms=    5 NActive=    5 NUniq=    5 SFac= 1.00D+00 NAtFMM=   60 NAOKFM=F Big=F
 R6Disp: Dispersion energy =        -0.0008317333 Hartrees.
 Nuclear repulsion after empirical dispersion term =      151.0042429167 Hartrees.
 Leave Link  301 at Thu Apr 16 13:44:17 2020, MaxMem= 1073741824 cpu:       0.2
 (Enter /home/matheus/.gaussian/g09/l302.exe)
 NPDir=0 NMtPBC=     1 NCelOv=     1 NCel=       1 NClECP=     1 NCelD=      1
         NCelK=      1 NCelE2=     1 NClLst=     1 CellRange=     0.0.
 One-electron integrals computed using PRISM.
 NBasis=   197 RedAO= T  NBF=   197
 NBsUse=   197 1.00D-06 NBFU=   197
 Precomputing XC quadrature grid using
 IXCGrd= 2 IRadAn=           5 IRanWt=          -1 IRanGd=           0 AccXCQ= 0.00D+00.
 NRdTot=     427 NPtTot=      123512 NUsed=      126579 NTot=      126611
 NSgBfM=   229   229   229   229   229 NAtAll=     5     5.
 Leave Link  302 at Thu Apr 16 13:44:17 2020, MaxMem= 1073741824 cpu:       1.0
 (Enter /home/matheus/.gaussian/g09/l303.exe)
 DipDrv:  MaxL=1.
 Leave Link  303 at Thu Apr 16 13:44:17 2020, MaxMem= 1073741824 cpu:       0.2
 (Enter /home/matheus/.gaussian/g09/l401.exe)
 Harris functional with IExCor= 4639 diagonalized for initial guess.
 ExpMin= 2.53D-02 ExpMax= 1.17D+07 ExpMxC= 1.33D+04 IAcc=3 IRadAn=         5 AccDes= 0.00D+00
 HarFok:  IExCor= 4639 AccDes= 0.00D+00 IRadAn=         5 IDoV= 1
 ScaDFX=  1.000000  1.000000  1.000000  1.000000
 FoFCou: FMM=F IPFlag=           0 FMFlag=      100000 FMFlg1=           0
         NFxFlg=           0 DoJE=T BraDBF=F KetDBF=T FulRan=T
         Omega=  0.000000  0.000000  1.000000  0.000000  0.000000 ICntrl=     500 IOpCl=  0
         NMat0=    1 NMatS0=    1 NMatT0=    0 NMatD0=    1 NMtDS0=    0 NMtDT0=    0
         I1Cent=           4 NGrid=           0.
 Petite list used in FoFCou.
 Harris En= -2875.39133946654    
 Initial guess orbital symmetries:
       Occupied  (A) (A) (A) (A) (A) (A) (A) (A) (A) (A) (A) (A)
                 (A) (A) (A) (A) (A) (A) (A) (A) (A) (A) (A) (A)
                 (A) (A) (A)
       Virtual   (A) (A) (A) (A) (A) (A) (A) (A) (A) (A) (A) (A)
                 (A) (A) (A) (A) (A) (A) (A) (A) (A) (A) (A) (A)
                 (A) (A) (A) (A) (A) (A) (A) (A) (A) (A) (A) (A)
                 (A) (A) (A) (A) (A) (A) (A) (A) (A) (A) (A) (A)
                 (A) (A) (A) (A) (A) (A) (A) (A) (A) (A) (A) (A)
                 (A) (A) (A) (A) (A) (A) (A) (A) (A) (A) (A) (A)
                 (A) (A) (A) (A) (A) (A) (A) (A) (A) (A) (A) (A)
                 (A) (A) (A) (A) (A) (A) (A) (A) (A) (A) (A) (A)
                 (A) (A) (A) (A) (A) (A) (A) (A) (A) (A) (A) (A)
                 (A) (A) (A) (A) (A) (A) (A) (A) (A) (A) (A) (A)
                 (A) (A) (A) (A) (A) (A) (A) (A) (A) (A) (A) (A)
                 (A) (A) (A) (A) (A) (A) (A) (A) (A) (A) (A) (A)
                 (A) (A) (A) (A) (A) (A) (A) (A) (A) (A) (A) (A)
                 (A) (A) (A) (A) (A) (A) (A) (A) (A) (A) (A) (A)
                 (A) (A)
 The electronic state of the initial guess is 1-A.
 Leave Link  401 at Thu Apr 16 13:44:18 2020, MaxMem= 1073741824 cpu:       3.9
 (Enter /home/matheus/.gaussian/g09/l502.exe)
 Closed shell SCF:
 Requested convergence on RMS density matrix=1.00D-08 within 128 cycles.
 Requested convergence on MAX density matrix=1.00D-06.
 Requested convergence on             energy=1.00D-06.
 No special actions if energy rises.
 Using DIIS extrapolation, IDIIS=  1040.
 Integral symmetry usage will be decided dynamically.
       126521 words used for storage of precomputed grid.
 IEnd=      305468 IEndB=      305468 NGot=  1073741824 MDV=  1073505667
 LenX=  1073505667 LenY=  1073452785
 Fock matrices will be formed incrementally for  20 cycles.

 Cycle   1  Pass 1  IDiag  1:
 FoFJK:  IHMeth= 1 ICntrl=     0 DoSepK=T KAlg= 1 I1Cent= 0 FoldK=F
 FoFCou: FMM=F IPFlag=           0 FMFlag=      100000 FMFlg1=           0
         NFxFlg=           0 DoJE=T BraDBF=F KetDBF=F FulRan=T
         Omega=  0.000000  0.000000  1.000000  0.000000  0.000000 ICntrl=     500 IOpCl=  0
         NMat0=    1 NMatS0=    1 NMatT0=    0 NMatD0=    1 NMtDS0=    0 NMtDT0=    0
         I1Cent=           0 NGrid=           0.
 Symmetry not used in FoFCou.
 E= -2904.89380372953    
 DIIS: error= 7.69D-02 at cycle   1 NSaved=   1.
 NSaved= 1 IEnMin= 1 EnMin= -2904.89380372953     IErMin= 1 ErrMin= 7.69D-02
 ErrMax= 7.69D-02 EMaxC= 1.00D-01 BMatC= 2.23D+00 BMatP= 2.23D+00
 IDIUse=3 WtCom= 2.31D-01 WtEn= 7.69D-01
 Coeff-Com:  0.100D+01
 Coeff-En:   0.100D+01
 Coeff:      0.100D+01
 Gap=     0.529 Goal=   None    Shift=    0.000
 GapD=    0.529 DampG=2.000 DampE=0.500 DampFc=1.0000 IDamp=-1.
 RMSDP=6.24D-03 MaxDP=3.75D-01              OVMax= 1.86D-01

 Cycle   2  Pass 1  IDiag  1:
 RMSU=  4.39D-03    CP:  1.03D+00
 FoFJK:  IHMeth= 1 ICntrl=     0 DoSepK=T KAlg= 1 I1Cent= 0 FoldK=F
 E= -2905.22017178593     Delta-E=       -0.326368056401 Rises=F Damp=F
 DIIS: error= 3.09D-02 at cycle   2 NSaved=   2.
 NSaved= 2 IEnMin= 2 EnMin= -2905.22017178593     IErMin= 2 ErrMin= 3.09D-02
 ErrMax= 3.09D-02 EMaxC= 1.00D-01 BMatC= 5.65D-01 BMatP= 2.23D+00
 IDIUse=3 WtCom= 6.91D-01 WtEn= 3.09D-01
 Coeff-Com:  0.327D+00 0.673D+00
 Coeff-En:   0.190D+00 0.810D+00
 Coeff:      0.285D+00 0.715D+00
 Gap=     0.477 Goal=   None    Shift=    0.000
 RMSDP=2.72D-03 MaxDP=1.61D-01 DE=-3.26D-01 OVMax= 7.32D-02

 Cycle   3  Pass 1  IDiag  1:
 RMSU=  5.74D-04    CP:  1.02D+00  5.83D-01
 FoFJK:  IHMeth= 1 ICntrl=     0 DoSepK=T KAlg= 1 I1Cent= 0 FoldK=F
 E= -2905.41218908985     Delta-E=       -0.192017303915 Rises=F Damp=F
 DIIS: error= 5.02D-03 at cycle   3 NSaved=   3.
 NSaved= 3 IEnMin= 3 EnMin= -2905.41218908985     IErMin= 3 ErrMin= 5.02D-03
 ErrMax= 5.02D-03 EMaxC= 1.00D-01 BMatC= 1.84D-02 BMatP= 5.65D-01
 IDIUse=3 WtCom= 9.50D-01 WtEn= 5.02D-02
 Coeff-Com:  0.319D-01 0.186D+00 0.782D+00
 Coeff-En:   0.000D+00 0.000D+00 0.100D+01
 Coeff:      0.303D-01 0.177D+00 0.793D+00
 Gap=     0.427 Goal=   None    Shift=    0.000
 RMSDP=4.91D-04 MaxDP=1.73D-02 DE=-1.92D-01 OVMax= 2.59D-02

 Cycle   4  Pass 1  IDiag  1:
 RMSU=  2.34D-04    CP:  1.02D+00  6.41D-01  9.24D-01
 FoFJK:  IHMeth= 1 ICntrl=     0 DoSepK=T KAlg= 1 I1Cent= 0 FoldK=F
 E= -2905.42043084226     Delta-E=       -0.008241752415 Rises=F Damp=F
 DIIS: error= 2.03D-03 at cycle   4 NSaved=   4.
 NSaved= 4 IEnMin= 4 EnMin= -2905.42043084226     IErMin= 4 ErrMin= 2.03D-03
 ErrMax= 2.03D-03 EMaxC= 1.00D-01 BMatC= 1.73D-03 BMatP= 1.84D-02
 IDIUse=3 WtCom= 9.80D-01 WtEn= 2.03D-02
 Coeff-Com: -0.272D-02 0.491D-01 0.371D+00 0.583D+00
 Coeff-En:   0.000D+00 0.000D+00 0.000D+00 0.100D+01
 Coeff:     -0.266D-02 0.481D-01 0.363D+00 0.591D+00
 Gap=     0.412 Goal=   None    Shift=    0.000
 RMSDP=1.24D-04 MaxDP=6.31D-03 DE=-8.24D-03 OVMax= 6.73D-03

 Cycle   5  Pass 1  IDiag  1:
 RMSU=  4.09D-05    CP:  1.02D+00  6.39D-01  9.62D-01  6.88D-01
 FoFJK:  IHMeth= 1 ICntrl=     0 DoSepK=T KAlg= 1 I1Cent= 0 FoldK=F
 E= -2905.42149025834     Delta-E=       -0.001059416073 Rises=F Damp=F
 DIIS: error= 1.34D-04 at cycle   5 NSaved=   5.
 NSaved= 5 IEnMin= 5 EnMin= -2905.42149025834     IErMin= 5 ErrMin= 1.34D-04
 ErrMax= 1.34D-04 EMaxC= 1.00D-01 BMatC= 8.82D-06 BMatP= 1.73D-03
 IDIUse=3 WtCom= 9.99D-01 WtEn= 1.34D-03
 Coeff-Com: -0.943D-03 0.375D-04 0.203D-01 0.486D-01 0.932D+00
 Coeff-En:   0.000D+00 0.000D+00 0.000D+00 0.000D+00 0.100D+01
 Coeff:     -0.942D-03 0.374D-04 0.203D-01 0.485D-01 0.932D+00
 Gap=     0.412 Goal=   None    Shift=    0.000
 RMSDP=2.23D-05 MaxDP=8.27D-04 DE=-1.06D-03 OVMax= 1.27D-03

 Cycle   6  Pass 1  IDiag  1:
 RMSU=  1.03D-05    CP:  1.02D+00  6.39D-01  9.74D-01  7.05D-01  1.21D+00
 FoFJK:  IHMeth= 1 ICntrl=     0 DoSepK=T KAlg= 1 I1Cent= 0 FoldK=F
 E= -2905.42149599557     Delta-E=       -0.000005737229 Rises=F Damp=F
 DIIS: error= 1.46D-04 at cycle   6 NSaved=   6.
 NSaved= 6 IEnMin= 6 EnMin= -2905.42149599557     IErMin= 5 ErrMin= 1.34D-04
 ErrMax= 1.46D-04 EMaxC= 1.00D-01 BMatC= 7.31D-06 BMatP= 8.82D-06
 IDIUse=3 WtCom= 9.99D-01 WtEn= 1.34D-03
 Coeff-Com: -0.253D-03-0.553D-02-0.293D-01-0.383D-01 0.522D+00 0.551D+00
 Coeff-En:   0.000D+00 0.000D+00 0.000D+00 0.000D+00 0.107D+00 0.893D+00
 Coeff:     -0.252D-03-0.552D-02-0.292D-01-0.382D-01 0.521D+00 0.552D+00
 Gap=     0.412 Goal=   None    Shift=    0.000
 RMSDP=8.95D-06 MaxDP=3.56D-04 DE=-5.74D-06 OVMax= 6.18D-04

 Cycle   7  Pass 1  IDiag  1:
 RMSU=  3.64D-06    CP:  1.02D+00  6.39D-01  9.78D-01  7.09D-01  1.30D+00
                    CP:  7.18D-01
 FoFJK:  IHMeth= 1 ICntrl=     0 DoSepK=T KAlg= 1 I1Cent= 0 FoldK=F
 E= -2905.42150097966     Delta-E=       -0.000004984092 Rises=F Damp=F
 DIIS: error= 2.28D-05 at cycle   7 NSaved=   7.
 NSaved= 7 IEnMin= 7 EnMin= -2905.42150097966     IErMin= 7 ErrMin= 2.28D-05
 ErrMax= 2.28D-05 EMaxC= 1.00D-01 BMatC= 1.85D-07 BMatP= 7.31D-06
 IDIUse=1 WtCom= 1.00D+00 WtEn= 0.00D+00
 Coeff-Com:  0.209D-04-0.146D-02-0.962D-02-0.142D-01 0.211D-01 0.140D+00
 Coeff-Com:  0.864D+00
 Coeff:      0.209D-04-0.146D-02-0.962D-02-0.142D-01 0.211D-01 0.140D+00
 Coeff:      0.864D+00
 Gap=     0.412 Goal=   None    Shift=    0.000
 RMSDP=2.78D-06 MaxDP=8.04D-05 DE=-4.98D-06 OVMax= 1.90D-04

 Cycle   8  Pass 1  IDiag  1:
 RMSU=  8.89D-07    CP:  1.02D+00  6.39D-01  9.79D-01  7.10D-01  1.33D+00
                    CP:  8.13D-01  1.14D+00
 FoFJK:  IHMeth= 1 ICntrl=     0 DoSepK=T KAlg= 1 I1Cent= 0 FoldK=F
 E= -2905.42150121150     Delta-E=       -0.000000231840 Rises=F Damp=F
 DIIS: error= 5.30D-06 at cycle   8 NSaved=   8.
 NSaved= 8 IEnMin= 8 EnMin= -2905.42150121150     IErMin= 8 ErrMin= 5.30D-06
 ErrMax= 5.30D-06 EMaxC= 1.00D-01 BMatC= 6.31D-09 BMatP= 1.85D-07
 IDIUse=1 WtCom= 1.00D+00 WtEn= 0.00D+00
 Coeff-Com:  0.188D-04 0.230D-03 0.107D-02 0.101D-02-0.330D-01-0.257D-01
 Coeff-Com:  0.452D-01 0.101D+01
 Coeff:      0.188D-04 0.230D-03 0.107D-02 0.101D-02-0.330D-01-0.257D-01
 Coeff:      0.452D-01 0.101D+01
 Gap=     0.412 Goal=   None    Shift=    0.000
 RMSDP=9.04D-07 MaxDP=2.26D-05 DE=-2.32D-07 OVMax= 7.96D-05

 Cycle   9  Pass 1  IDiag  1:
 RMSU=  2.84D-07    CP:  1.02D+00  6.39D-01  9.79D-01  7.10D-01  1.34D+00
                    CP:  8.31D-01  1.24D+00  1.29D+00
 FoFJK:  IHMeth= 1 ICntrl=     0 DoSepK=T KAlg= 1 I1Cent= 0 FoldK=F
 E= -2905.42150122821     Delta-E=       -0.000000016707 Rises=F Damp=F
 DIIS: error= 1.80D-06 at cycle   9 NSaved=   9.
 NSaved= 9 IEnMin= 9 EnMin= -2905.42150122821     IErMin= 9 ErrMin= 1.80D-06
 ErrMax= 1.80D-06 EMaxC= 1.00D-01 BMatC= 5.36D-10 BMatP= 6.31D-09
 IDIUse=1 WtCom= 1.00D+00 WtEn= 0.00D+00
 Coeff-Com: -0.111D-05 0.987D-04 0.642D-03 0.697D-03-0.117D-02-0.736D-02
 Coeff-Com: -0.504D-01-0.378D-01 0.110D+01
 Coeff:     -0.111D-05 0.987D-04 0.642D-03 0.697D-03-0.117D-02-0.736D-02
 Coeff:     -0.504D-01-0.378D-01 0.110D+01
 Gap=     0.412 Goal=   None    Shift=    0.000
 RMSDP=2.80D-07 MaxDP=7.72D-06 DE=-1.67D-08 OVMax= 3.04D-05

 Cycle  10  Pass 1  IDiag  1:
 RMSU=  8.35D-08    CP:  1.02D+00  6.39D-01  9.79D-01  7.09D-01  1.34D+00
                    CP:  8.34D-01  1.25D+00  1.40D+00  1.35D+00
 FoFJK:  IHMeth= 1 ICntrl=     0 DoSepK=T KAlg= 1 I1Cent= 0 FoldK=F
 E= -2905.42150122978     Delta-E=       -0.000000001578 Rises=F Damp=F
 DIIS: error= 4.81D-07 at cycle  10 NSaved=  10.
 NSaved=10 IEnMin=10 EnMin= -2905.42150122978     IErMin=10 ErrMin= 4.81D-07
 ErrMax= 4.81D-07 EMaxC= 1.00D-01 BMatC= 4.91D-11 BMatP= 5.36D-10
 IDIUse=1 WtCom= 1.00D+00 WtEn= 0.00D+00
 Coeff-Com: -0.114D-05-0.100D-04-0.401D-04-0.423D-04 0.276D-02 0.221D-02
 Coeff-Com: -0.425D-02-0.109D+00 0.131D+00 0.977D+00
 Coeff:     -0.114D-05-0.100D-04-0.401D-04-0.423D-04 0.276D-02 0.221D-02
 Coeff:     -0.425D-02-0.109D+00 0.131D+00 0.977D+00
 Gap=     0.412 Goal=   None    Shift=    0.000
 RMSDP=7.66D-08 MaxDP=1.80D-06 DE=-1.58D-09 OVMax= 9.11D-06

 Cycle  11  Pass 1  IDiag  1:
 RMSU=  2.09D-08    CP:  1.02D+00  6.39D-01  9.79D-01  7.09D-01  1.34D+00
                    CP:  8.34D-01  1.25D+00  1.42D+00  1.48D+00  1.24D+00
 FoFJK:  IHMeth= 1 ICntrl=     0 DoSepK=T KAlg= 1 I1Cent= 0 FoldK=F
 E= -2905.42150122992     Delta-E=       -0.000000000136 Rises=F Damp=F
 DIIS: error= 1.29D-07 at cycle  11 NSaved=  11.
 NSaved=11 IEnMin=11 EnMin= -2905.42150122992     IErMin=11 ErrMin= 1.29D-07
 ErrMax= 1.29D-07 EMaxC= 1.00D-01 BMatC= 3.42D-12 BMatP= 4.91D-11
 IDIUse=1 WtCom= 1.00D+00 WtEn= 0.00D+00
 Coeff-Com:  0.414D-06-0.522D-05-0.418D-04-0.235D-04-0.374D-03 0.250D-03
 Coeff-Com:  0.510D-02 0.118D-01-0.894D-01-0.127D+00 0.120D+01
 Coeff:      0.414D-06-0.522D-05-0.418D-04-0.235D-04-0.374D-03 0.250D-03
 Coeff:      0.510D-02 0.118D-01-0.894D-01-0.127D+00 0.120D+01
 Gap=     0.412 Goal=   None    Shift=    0.000
 RMSDP=2.41D-08 MaxDP=5.01D-07 DE=-1.36D-10 OVMax= 2.94D-06

 Cycle  12  Pass 1  IDiag  1:
 RMSU=  5.36D-09    CP:  1.02D+00  6.39D-01  9.79D-01  7.09D-01  1.34D+00
                    CP:  8.34D-01  1.25D+00  1.42D+00  1.51D+00  1.37D+00
                    CP:  1.34D+00
 FoFJK:  IHMeth= 1 ICntrl=     0 DoSepK=T KAlg= 1 I1Cent= 0 FoldK=F
 E= -2905.42150122992     Delta-E=        0.000000000003 Rises=F Damp=F
 DIIS: error= 2.74D-08 at cycle  12 NSaved=  12.
 NSaved=12 IEnMin=11 EnMin= -2905.42150122992     IErMin=12 ErrMin= 2.74D-08
 ErrMax= 2.74D-08 EMaxC= 1.00D-01 BMatC= 1.28D-13 BMatP= 3.42D-12
 IDIUse=1 WtCom= 1.00D+00 WtEn= 0.00D+00
 Coeff-Com: -0.394D-07 0.661D-06 0.539D-05-0.264D-05-0.694D-04-0.992D-04
 Coeff-Com: -0.278D-03 0.294D-02 0.678D-02-0.187D-01-0.195D+00 0.120D+01
 Coeff:     -0.394D-07 0.661D-06 0.539D-05-0.264D-05-0.694D-04-0.992D-04
 Coeff:     -0.278D-03 0.294D-02 0.678D-02-0.187D-01-0.195D+00 0.120D+01
 Gap=     0.412 Goal=   None    Shift=    0.000
 RMSDP=4.88D-09 MaxDP=1.69D-07 DE= 3.18D-12 OVMax= 5.15D-07

 SCF Done:  E(RwB97XD) =  -2905.42150123     A.U. after   12 cycles
             Convg  =    0.4879D-08             -V/T =  2.0015
 KE= 2.900956740842D+03 PE=-7.239555892199D+03 EE= 1.282173407210D+03
 Leave Link  502 at Thu Apr 16 13:44:54 2020, MaxMem= 1073741824 cpu:     290.2
 (Enter /home/matheus/.gaussian/g09/l601.exe)
 Copying SCF densities to generalized density rwf, IOpCl= 0 IROHF=0.

 **********************************************************************

            Population analysis using the SCF density.

 **********************************************************************

 Orbital symmetries:
       Occupied  (A) (A) (A) (A) (A) (A) (A) (A) (A) (A) (A) (A)
                 (A) (A) (A) (A) (A) (A) (A) (A) (A) (A) (A) (A)
                 (A) (A) (A)
       Virtual   (A) (A) (A) (A) (A) (A) (A) (A) (A) (A) (A) (A)
                 (A) (A) (A) (A) (A) (A) (A) (A) (A) (A) (A) (A)
                 (A) (A) (A) (A) (A) (A) (A) (A) (A) (A) (A) (A)
                 (A) (A) (A) (A) (A) (A) (A) (A) (A) (A) (A) (A)
                 (A) (A) (A) (A) (A) (A) (A) (A) (A) (A) (A) (A)
                 (A) (A) (A) (A) (A) (A) (A) (A) (A) (A) (A) (A)
                 (A) (A) (A) (A) (A) (A) (A) (A) (A) (A) (A) (A)
                 (A) (A) (A) (A) (A) (A) (A) (A) (A) (A) (A) (A)
                 (A) (A) (A) (A) (A) (A) (A) (A) (A) (A) (A) (A)
                 (A) (A) (A) (A) (A) (A) (A) (A) (A) (A) (A) (A)
                 (A) (A) (A) (A) (A) (A) (A) (A) (A) (A) (A) (A)
                 (A) (A) (A) (A) (A) (A) (A) (A) (A) (A) (A) (A)
                 (A) (A) (A) (A) (A) (A) (A) (A) (A) (A) (A) (A)
                 (A) (A) (A) (A) (A) (A) (A) (A) (A) (A) (A) (A)
                 (A) (A)
 The electronic state is 1-A.
 Alpha  occ. eigenvalues -- -513.11211 -67.38029 -60.92908 -60.92901 -60.92891
 Alpha  occ. eigenvalues --  -19.33842 -19.33620  -9.83353  -7.52678  -7.52654
 Alpha  occ. eigenvalues --   -7.52623  -3.39363  -3.39360  -3.39335  -3.39316
 Alpha  occ. eigenvalues --   -3.39312  -1.24649  -1.04196  -1.02947  -0.68823
 Alpha  occ. eigenvalues --   -0.55425  -0.54392  -0.51772  -0.51219  -0.50186
 Alpha  occ. eigenvalues --   -0.45963  -0.37702
 Alpha virt. eigenvalues --    0.03472   0.04444   0.08592   0.09236   0.09940
 Alpha virt. eigenvalues --    0.11875   0.12683   0.14999   0.17184   0.17705
 Alpha virt. eigenvalues --    0.18204   0.19216   0.20220   0.21859   0.23173
 Alpha virt. eigenvalues --    0.23941   0.24538   0.27565   0.30152   0.32867
 Alpha virt. eigenvalues --    0.34314   0.35137   0.37202   0.38228   0.39841
 Alpha virt. eigenvalues --    0.41639   0.43103   0.47275   0.51941   0.53377
 Alpha virt. eigenvalues --    0.57383   0.58783   0.60514   0.63392   0.66431
 Alpha virt. eigenvalues --    0.67249   0.69284   0.72450   0.73746   0.74572
 Alpha virt. eigenvalues --    0.75152   0.76058   0.78427   0.80629   0.83440
 Alpha virt. eigenvalues --    0.84885   0.85802   0.86857   0.88469   0.90065
 Alpha virt. eigenvalues --    0.90960   0.93939   0.95871   0.96939   1.00128
 Alpha virt. eigenvalues --    1.00849   1.01478   1.04438   1.05372   1.09396
 Alpha virt. eigenvalues --    1.11522   1.17367   1.18419   1.20896   1.23035
 Alpha virt. eigenvalues --    1.29220   1.33169   1.35693   1.38980   1.43820
 Alpha virt. eigenvalues --    1.45731   1.48225   1.50856   1.54132   1.58861
 Alpha virt. eigenvalues --    1.62221   1.67253   1.82613   1.87989   1.92416
 Alpha virt. eigenvalues --    1.98615   2.05273   2.08032   2.10666   2.12734
 Alpha virt. eigenvalues --    2.13221   2.18430   2.19514   2.20540   2.25701
 Alpha virt. eigenvalues --    2.27942   2.29188   2.30289   2.31559   2.31814
 Alpha virt. eigenvalues --    2.37131   2.38326   2.43256   2.45850   2.46535
 Alpha virt. eigenvalues --    2.49089   2.50442   2.53457   2.54871   2.56267
 Alpha virt. eigenvalues --    2.57654   2.64106   2.64448   2.68961   2.70746
 Alpha virt. eigenvalues --    2.72040   2.75510   2.79625   2.88114   2.89381
 Alpha virt. eigenvalues --    2.92251   3.01937   3.08935   3.10688   3.60972
 Alpha virt. eigenvalues --    3.64506   3.92443   3.98959   3.99852   4.03091
 Alpha virt. eigenvalues --    4.12453   4.14404   4.21031   4.22667   4.23446
 Alpha virt. eigenvalues --    4.44176   4.48090   4.60998   4.63975   4.65654
 Alpha virt. eigenvalues --    4.97156   5.00157   5.03810   5.05256   5.10736
 Alpha virt. eigenvalues --    5.15134   5.45835   5.83759   6.01736   6.08760
 Alpha virt. eigenvalues --    6.12449   6.32984   6.38877   6.42325   6.54510
 Alpha virt. eigenvalues --    6.66262   6.73489   6.78367   6.83731   6.84870
 Alpha virt. eigenvalues --    6.88278   6.89650   6.90649   6.91613   7.05879
 Alpha virt. eigenvalues --    7.12874   7.17398   7.23392   7.41173   7.52593
 Alpha virt. eigenvalues --    7.92374   8.02210   8.15431  13.97287  14.68608
          Condensed to atoms (all electrons):
              1          2          3          4          5
     1  O    8.238989  -0.199990   0.177382   0.025169  -0.022241
     2  O   -0.199990   8.256844   0.030698   0.179631  -0.018112
     3  H    0.177382   0.030698   0.582010  -0.010157   0.001496
     4  H    0.025169   0.179631  -0.010157   0.577610  -0.010265
     5  Kr  -0.022241  -0.018112   0.001496  -0.010265  36.037325
 Mulliken atomic charges:
              1
     1  O   -0.219309
     2  O   -0.249071
     3  H    0.218571
     4  H    0.238013
     5  Kr   0.011797
 Sum of Mulliken atomic charges =   0.00000
 Mulliken charges with hydrogens summed into heavy atoms:
              1
     1  O   -0.000739
     2  O   -0.011058
     5  Kr   0.011797
 Sum of Mulliken charges with hydrogens summed into heavy atoms =   0.00000
 Electronic spatial extent (au):  <R**2>=            477.2640
 Charge=              0.0000 electrons
 Dipole moment (field-independent basis, Debye):
    X=              3.1654    Y=             -0.1559    Z=              0.8632  Tot=              3.2846
 Quadrupole moment (field-independent basis, Debye-Ang):
   XX=            -38.1449   YY=            -28.0257   ZZ=            -29.8911
   XY=              0.5304   XZ=             -1.1402   YZ=             -1.1428
 Traceless Quadrupole moment (field-independent basis, Debye-Ang):
   XX=             -6.1243   YY=              3.9948   ZZ=              2.1295
   XY=              0.5304   XZ=             -1.1402   YZ=             -1.1428
 Octapole moment (field-independent basis, Debye-Ang**2):
  XXX=             43.5754  YYY=             -0.3944  ZZZ=              0.2240  XYY=              7.2465
  XXY=             -1.2795  XXZ=              0.5504  XZZ=              7.8260  YZZ=             -0.7734
  YYZ=              1.3447  XYZ=              1.4951
 Hexadecapole moment (field-independent basis, Debye-Ang**3):
 XXXX=           -458.2801 YYYY=            -63.1656 ZZZZ=            -29.6838 XXXY=              1.5199
 XXXZ=              0.4911 YYYX=              0.9941 YYYZ=             -1.6015 ZZZX=             -0.6271
 ZZZY=             -0.8555 XXYY=            -85.1692 XXZZ=            -75.2505 YYZZ=            -16.7930
 XXYZ=             -1.9318 YYXZ=             -1.7746 ZZXY=              1.0976
 N-N= 1.510042429167D+02 E-N=-7.239555891191D+03  KE= 2.900956740842D+03
 No NMR shielding tensors so no spin-rotation constants.
 Leave Link  601 at Thu Apr 16 13:44:54 2020, MaxMem= 1073741824 cpu:       0.7
 (Enter /home/matheus/.gaussian/g09/l108.exe)
 Variable Step   Value    
 -------- ---- -----------
     1       1    5.858151
 Leave Link  108 at Thu Apr 16 13:44:54 2020, MaxMem= 1073741824 cpu:       0.0
 (Enter /home/matheus/.gaussian/g09/l202.exe)
 ---------------------------------------------------------------------------------------------------
                            Z-MATRIX (ANGSTROMS AND DEGREES)
   CD    Cent   Atom    N1       Length/X        N2       Alpha/Y        N3        Beta/Z          J
 ---------------------------------------------------------------------------------------------------
      1      1  O        0   0.000000          0.000000          0.725000
      2      2  O        0   0.000000          0.000000         -0.725000
      3      3  H        0  -0.590542          0.703781          1.023510
      4      4  H        0   0.000000          0.918721         -1.023510
      5      5  Kr       0   0.000000          3.100000          0.000000
 ---------------------------------------------------------------------------------------------------
                         Z-Matrix orientation:                         
 ---------------------------------------------------------------------
 Center     Atomic      Atomic             Coordinates (Angstroms)
 Number     Number       Type             X           Y           Z
 ---------------------------------------------------------------------
      1          8           0        0.000000    0.000000    0.725000
      2          8           0        0.000000    0.000000   -0.725000
      3          1           0       -0.590542    0.703781    1.023510
      4          1           0        0.000000    0.918721   -1.023510
      5         36           0        0.000000    3.100000    0.000000
 ---------------------------------------------------------------------
                    Distance matrix (angstroms):
                    1          2          3          4          5
     1  O    0.000000
     2  O    1.450000   0.000000
     3  H    0.966000   1.975180   0.000000
     4  H    1.975180   0.966000   2.141316   0.000000
     5  Kr   3.183650   3.183650   2.671737   2.409472   0.000000
 Stoichiometry    H2KrO2
 Framework group  C1[X(H2KrO2)]
 Deg. of freedom     9
 Full point group                 C1      NOp   1
 RotChk:  IX=0 Diff= 3.15D-04
 Largest Abelian subgroup         C1      NOp   1
 Largest concise Abelian subgroup C1      NOp   1
                         Standard orientation:                         
 ---------------------------------------------------------------------
 Center     Atomic      Atomic             Coordinates (Angstroms)
 Number     Number       Type             X           Y           Z
 ---------------------------------------------------------------------
      1          8           0       -2.098204   -0.717435   -0.069128
      2          8           0       -2.094929    0.730039    0.016374
      3          1           0       -1.399560   -1.052135    0.507958
      4          1           0       -1.175562    1.025550    0.040751
      5         36           0        1.003338   -0.002062   -0.003519
 ---------------------------------------------------------------------
 Rotational constants (GHZ):     26.2250889      2.2264172      2.0576239
 Leave Link  202 at Thu Apr 16 13:44:54 2020, MaxMem= 1073741824 cpu:       0.0
 (Enter /home/matheus/.gaussian/g09/l301.exe)
 Standard basis: Aug-CC-pVTZ (5D, 7F)
 Ernie: Thresh=  0.10000D-02 Tol=  0.10000D-05 Strict=F.
 Ernie:  38 primitive shells out of 205 were deleted.
 There are   197 symmetry adapted basis functions of A   symmetry.
 Integral buffers will be    131072 words long.
 Raffenetti 2 integral format.
 Two-electron integral symmetry is turned on.
   197 basis functions,   415 primitive gaussians,   229 cartesian basis functions
    27 alpha electrons       27 beta electrons
       nuclear repulsion energy       147.4332435839 Hartrees.
 IExCor= 4639 DFT=T Ex+Corr=wB97XD ExCW=0 ScaHFX=  1.000000
 ScaDFX=  1.000000  1.000000  1.000000  1.000000 ScalE2=  1.000000  1.000000
 IRadAn=      5 IRanWt=     -1 IRanGd=            0 ICorTp=0
  HFx wShort=  0.000000 wLong=  0.250000 cFull=  0.222036 cShort=  0.000000 cLong=  0.777964
  DFx wShort=  0.000000 wLong=  0.250000 cFull=  0.000000 cShort=  0.000000 cLong=  1.000000
 NAtoms=    5 NActive=    5 NUniq=    5 SFac= 1.00D+00 NAtFMM=   60 NAOKFM=F Big=F
 R6Disp: Dispersion energy =        -0.0009225088 Hartrees.
 Nuclear repulsion after empirical dispersion term =      147.4323210750 Hartrees.
 Leave Link  301 at Thu Apr 16 13:44:54 2020, MaxMem= 1073741824 cpu:       0.2
 (Enter /home/matheus/.gaussian/g09/l302.exe)
 NPDir=0 NMtPBC=     1 NCelOv=     1 NCel=       1 NClECP=     1 NCelD=      1
         NCelK=      1 NCelE2=     1 NClLst=     1 CellRange=     0.0.
 One-electron integrals computed using PRISM.
 NBasis=   197 RedAO= T  NBF=   197
 NBsUse=   197 1.00D-06 NBFU=   197
 Precomputing XC quadrature grid using
 IXCGrd= 2 IRadAn=           5 IRanWt=          -1 IRanGd=           0 AccXCQ= 0.00D+00.
 NRdTot=     427 NPtTot=      123512 NUsed=      126579 NTot=      126611
 NSgBfM=   229   229   229   229   229 NAtAll=     5     5.
 Leave Link  302 at Thu Apr 16 13:44:55 2020, MaxMem= 1073741824 cpu:       1.0
 (Enter /home/matheus/.gaussian/g09/l303.exe)
 DipDrv:  MaxL=1.
 Leave Link  303 at Thu Apr 16 13:44:55 2020, MaxMem= 1073741824 cpu:       0.2
 (Enter /home/matheus/.gaussian/g09/l401.exe)
 Initial guess read from the read-write file.
 B after Tr=     0.000000    0.000000    0.000000
         Rot=    1.000000    0.000000    0.000000    0.000000 Ang=   0.00 deg.
 Guess basis will be translated and rotated to current coordinates.
 Initial guess orbital symmetries:
       Occupied  (A) (A) (A) (A) (A) (A) (A) (A) (A) (A) (A) (A)
                 (A) (A) (A) (A) (A) (A) (A) (A) (A) (A) (A) (A)
                 (A) (A) (A)
       Virtual   (A) (A) (A) (A) (A) (A) (A) (A) (A) (A) (A) (A)
                 (A) (A) (A) (A) (A) (A) (A) (A) (A) (A) (A) (A)
                 (A) (A) (A) (A) (A) (A) (A) (A) (A) (A) (A) (A)
                 (A) (A) (A) (A) (A) (A) (A) (A) (A) (A) (A) (A)
                 (A) (A) (A) (A) (A) (A) (A) (A) (A) (A) (A) (A)
                 (A) (A) (A) (A) (A) (A) (A) (A) (A) (A) (A) (A)
                 (A) (A) (A) (A) (A) (A) (A) (A) (A) (A) (A) (A)
                 (A) (A) (A) (A) (A) (A) (A) (A) (A) (A) (A) (A)
                 (A) (A) (A) (A) (A) (A) (A) (A) (A) (A) (A) (A)
                 (A) (A) (A) (A) (A) (A) (A) (A) (A) (A) (A) (A)
                 (A) (A) (A) (A) (A) (A) (A) (A) (A) (A) (A) (A)
                 (A) (A) (A) (A) (A) (A) (A) (A) (A) (A) (A) (A)
                 (A) (A) (A) (A) (A) (A) (A) (A) (A) (A) (A) (A)
                 (A) (A) (A) (A) (A) (A) (A) (A) (A) (A) (A) (A)
                 (A) (A)
 The electronic state of the initial guess is 1-A.
 Generating alternative initial guess.
 Harris functional with IExCor= 4639 diagonalized for initial guess.
 ExpMin= 2.53D-02 ExpMax= 1.17D+07 ExpMxC= 1.33D+04 IAcc=3 IRadAn=         5 AccDes= 0.00D+00
 HarFok:  IExCor= 4639 AccDes= 0.00D+00 IRadAn=         5 IDoV= 1
 ScaDFX=  1.000000  1.000000  1.000000  1.000000
 FoFCou: FMM=F IPFlag=           0 FMFlag=      100000 FMFlg1=           0
         NFxFlg=           0 DoJE=T BraDBF=F KetDBF=T FulRan=T
         Omega=  0.000000  0.000000  1.000000  0.000000  0.000000 ICntrl=     500 IOpCl=  0
         NMat0=    1 NMatS0=    1 NMatT0=    0 NMatD0=    1 NMtDS0=    0 NMtDT0=    0
         I1Cent=           4 NGrid=           0.
 Petite list used in FoFCou.
 Harris En= -2875.39549192749    
 Leave Link  401 at Thu Apr 16 13:44:55 2020, MaxMem= 1073741824 cpu:       4.3
 (Enter /home/matheus/.gaussian/g09/l502.exe)
 Closed shell SCF:
 Requested convergence on RMS density matrix=1.00D-08 within 128 cycles.
 Requested convergence on MAX density matrix=1.00D-06.
 Requested convergence on             energy=1.00D-06.
 No special actions if energy rises.
 Using DIIS extrapolation, IDIIS=  1040.
 Integral symmetry usage will be decided dynamically.
       126521 words used for storage of precomputed grid.
 IEnd=      305468 IEndB=      305468 NGot=  1073741824 MDV=  1073505667
 LenX=  1073505667 LenY=  1073452785
 Fock matrices will be formed incrementally for  20 cycles.

 Cycle   1  Pass 1  IDiag  1:
 FoFJK:  IHMeth= 1 ICntrl=     0 DoSepK=T KAlg= 1 I1Cent= 0 FoldK=F
 FoFCou: FMM=F IPFlag=           0 FMFlag=      100000 FMFlg1=           0
         NFxFlg=           0 DoJE=T BraDBF=F KetDBF=F FulRan=T
         Omega=  0.000000  0.000000  1.000000  0.000000  0.000000 ICntrl=     500 IOpCl=  0
         NMat0=    1 NMatS0=    1 NMatT0=    0 NMatD0=    1 NMtDS0=    0 NMtDT0=    0
         I1Cent=           0 NGrid=           0.
 Symmetry not used in FoFCou.
 E= -2905.42359634854    
 DIIS: error= 2.00D-03 at cycle   1 NSaved=   1.
 NSaved= 1 IEnMin= 1 EnMin= -2905.42359634854     IErMin= 1 ErrMin= 2.00D-03
 ErrMax= 2.00D-03 EMaxC= 1.00D-01 BMatC= 8.03D-04 BMatP= 8.03D-04
 IDIUse=3 WtCom= 9.80D-01 WtEn= 2.00D-02
 Coeff-Com:  0.100D+01
 Coeff-En:   0.100D+01
 Coeff:      0.100D+01
 Gap=     0.415 Goal=   None    Shift=    0.000
 GapD=    0.415 DampG=2.000 DampE=1.000 DampFc=2.0000 IDamp=-1.
 RMSDP=7.54D-05 MaxDP=2.09D-03              OVMax= 3.24D-03

 Cycle   2  Pass 1  IDiag  1:
 RMSU=  5.33D-05    CP:  1.00D+00
 FoFJK:  IHMeth= 1 ICntrl=     0 DoSepK=T KAlg= 1 I1Cent= 0 FoldK=F
 E= -2905.42371883193     Delta-E=       -0.000122483393 Rises=F Damp=F
 DIIS: error= 1.70D-04 at cycle   2 NSaved=   2.
 NSaved= 2 IEnMin= 2 EnMin= -2905.42371883193     IErMin= 2 ErrMin= 1.70D-04
 ErrMax= 1.70D-04 EMaxC= 1.00D-01 BMatC= 5.96D-06 BMatP= 8.03D-04
 IDIUse=3 WtCom= 9.98D-01 WtEn= 1.70D-03
 Coeff-Com: -0.839D-03 0.100D+01
 Coeff-En:   0.000D+00 0.100D+01
 Coeff:     -0.837D-03 0.100D+01
 Gap=     0.411 Goal=   None    Shift=    0.000
 RMSDP=1.70D-05 MaxDP=6.92D-04 DE=-1.22D-04 OVMax= 9.55D-04

 Cycle   3  Pass 1  IDiag  1:
 RMSU=  1.03D-05    CP:  1.00D+00  1.12D+00
 FoFJK:  IHMeth= 1 ICntrl=     0 DoSepK=T KAlg= 1 I1Cent= 0 FoldK=F
 E= -2905.42372254421     Delta-E=       -0.000003712282 Rises=F Damp=F
 DIIS: error= 8.55D-05 at cycle   3 NSaved=   3.
 NSaved= 3 IEnMin= 3 EnMin= -2905.42372254421     IErMin= 3 ErrMin= 8.55D-05
 ErrMax= 8.55D-05 EMaxC= 1.00D-01 BMatC= 3.90D-06 BMatP= 5.96D-06
 IDIUse=1 WtCom= 1.00D+00 WtEn= 0.00D+00
 Coeff-Com: -0.650D-02 0.444D+00 0.563D+00
 Coeff:     -0.650D-02 0.444D+00 0.563D+00
 Gap=     0.412 Goal=   None    Shift=    0.000
 RMSDP=6.34D-06 MaxDP=3.14D-04 DE=-3.71D-06 OVMax= 3.54D-04

 Cycle   4  Pass 1  IDiag  1:
 RMSU=  3.01D-06    CP:  1.00D+00  1.14D+00  6.99D-01
 FoFJK:  IHMeth= 1 ICntrl=     0 DoSepK=T KAlg= 1 I1Cent= 0 FoldK=F
 E= -2905.42372503856     Delta-E=       -0.000002494350 Rises=F Damp=F
 DIIS: error= 2.15D-05 at cycle   4 NSaved=   4.
 NSaved= 4 IEnMin= 4 EnMin= -2905.42372503856     IErMin= 4 ErrMin= 2.15D-05
 ErrMax= 2.15D-05 EMaxC= 1.00D-01 BMatC= 1.50D-07 BMatP= 3.90D-06
 IDIUse=1 WtCom= 1.00D+00 WtEn= 0.00D+00
 Coeff-Com: -0.151D-02 0.294D-01 0.146D+00 0.826D+00
 Coeff:     -0.151D-02 0.294D-01 0.146D+00 0.826D+00
 Gap=     0.412 Goal=   None    Shift=    0.000
 RMSDP=2.07D-06 MaxDP=7.67D-05 DE=-2.49D-06 OVMax= 1.23D-04

 Cycle   5  Pass 1  IDiag  1:
 RMSU=  1.09D-06    CP:  1.00D+00  1.15D+00  7.69D-01  1.13D+00
 FoFJK:  IHMeth= 1 ICntrl=     0 DoSepK=T KAlg= 1 I1Cent= 0 FoldK=F
 E= -2905.42372514127     Delta-E=       -0.000000102704 Rises=F Damp=F
 DIIS: error= 1.20D-05 at cycle   5 NSaved=   5.
 NSaved= 5 IEnMin= 5 EnMin= -2905.42372514127     IErMin= 5 ErrMin= 1.20D-05
 ErrMax= 1.20D-05 EMaxC= 1.00D-01 BMatC= 5.92D-08 BMatP= 1.50D-07
 IDIUse=1 WtCom= 1.00D+00 WtEn= 0.00D+00
 Coeff-Com:  0.167D-03-0.535D-01-0.676D-02 0.445D+00 0.615D+00
 Coeff:      0.167D-03-0.535D-01-0.676D-02 0.445D+00 0.615D+00
 Gap=     0.412 Goal=   None    Shift=    0.000
 RMSDP=8.39D-07 MaxDP=3.97D-05 DE=-1.03D-07 OVMax= 5.75D-05

 Cycle   6  Pass 1  IDiag  1:
 RMSU=  3.55D-07    CP:  1.00D+00  1.15D+00  7.92D-01  1.23D+00  7.94D-01
 FoFJK:  IHMeth= 1 ICntrl=     0 DoSepK=T KAlg= 1 I1Cent= 0 FoldK=F
 E= -2905.42372518299     Delta-E=       -0.000000041721 Rises=F Damp=F
 DIIS: error= 1.94D-06 at cycle   6 NSaved=   6.
 NSaved= 6 IEnMin= 6 EnMin= -2905.42372518299     IErMin= 6 ErrMin= 1.94D-06
 ErrMax= 1.94D-06 EMaxC= 1.00D-01 BMatC= 1.76D-09 BMatP= 5.92D-08
 IDIUse=1 WtCom= 1.00D+00 WtEn= 0.00D+00
 Coeff-Com:  0.161D-03-0.215D-01-0.118D-01 0.101D+00 0.211D+00 0.721D+00
 Coeff:      0.161D-03-0.215D-01-0.118D-01 0.101D+00 0.211D+00 0.721D+00
 Gap=     0.412 Goal=   None    Shift=    0.000
 RMSDP=2.07D-07 MaxDP=5.49D-06 DE=-4.17D-08 OVMax= 1.23D-05

 Cycle   7  Pass 1  IDiag  1:
 RMSU=  8.89D-08    CP:  1.00D+00  1.15D+00  7.97D-01  1.25D+00  8.55D-01
                    CP:  1.02D+00
 FoFJK:  IHMeth= 1 ICntrl=     0 DoSepK=T KAlg= 1 I1Cent= 0 FoldK=F
 E= -2905.42372518475     Delta-E=       -0.000000001768 Rises=F Damp=F
 DIIS: error= 6.42D-07 at cycle   7 NSaved=   7.
 NSaved= 7 IEnMin= 7 EnMin= -2905.42372518475     IErMin= 7 ErrMin= 6.42D-07
 ErrMax= 6.42D-07 EMaxC= 1.00D-01 BMatC= 6.88D-11 BMatP= 1.76D-09
 IDIUse=1 WtCom= 1.00D+00 WtEn= 0.00D+00
 Coeff-Com: -0.196D-04 0.609D-02 0.177D-02-0.474D-01-0.726D-01-0.300D-01
 Coeff-Com:  0.114D+01
 Coeff:     -0.196D-04 0.609D-02 0.177D-02-0.474D-01-0.726D-01-0.300D-01
 Coeff:      0.114D+01
 Gap=     0.412 Goal=   None    Shift=    0.000
 RMSDP=9.42D-08 MaxDP=3.48D-06 DE=-1.77D-09 OVMax= 7.53D-06

 Cycle   8  Pass 1  IDiag  1:
 RMSU=  2.77D-08    CP:  1.00D+00  1.15D+00  7.99D-01  1.26D+00  8.76D-01
                    CP:  1.14D+00  1.22D+00
 FoFJK:  IHMeth= 1 ICntrl=     0 DoSepK=T KAlg= 1 I1Cent= 0 FoldK=F
 E= -2905.42372518493     Delta-E=       -0.000000000175 Rises=F Damp=F
 DIIS: error= 8.63D-08 at cycle   8 NSaved=   8.
 NSaved= 8 IEnMin= 8 EnMin= -2905.42372518493     IErMin= 8 ErrMin= 8.63D-08
 ErrMax= 8.63D-08 EMaxC= 1.00D-01 BMatC= 3.60D-12 BMatP= 6.88D-11
 IDIUse=1 WtCom= 1.00D+00 WtEn= 0.00D+00
 Coeff-Com: -0.104D-04 0.187D-02 0.774D-03-0.115D-01-0.198D-01-0.319D-01
 Coeff-Com:  0.167D+00 0.894D+00
 Coeff:     -0.104D-04 0.187D-02 0.774D-03-0.115D-01-0.198D-01-0.319D-01
 Coeff:      0.167D+00 0.894D+00
 Gap=     0.412 Goal=   None    Shift=    0.000
 RMSDP=1.51D-08 MaxDP=3.62D-07 DE=-1.75D-10 OVMax= 1.88D-06

 Cycle   9  Pass 1  IDiag  1:
 RMSU=  6.20D-09    CP:  1.00D+00  1.15D+00  7.99D-01  1.26D+00  8.76D-01
                    CP:  1.14D+00  1.27D+00  1.24D+00
 FoFJK:  IHMeth= 1 ICntrl=     0 DoSepK=T KAlg= 1 I1Cent= 0 FoldK=F
 E= -2905.42372518495     Delta-E=       -0.000000000019 Rises=F Damp=F
 DIIS: error= 4.17D-08 at cycle   9 NSaved=   9.
 NSaved= 9 IEnMin= 9 EnMin= -2905.42372518495     IErMin= 9 ErrMin= 4.17D-08
 ErrMax= 4.17D-08 EMaxC= 1.00D-01 BMatC= 4.12D-13 BMatP= 3.60D-12
 IDIUse=1 WtCom= 1.00D+00 WtEn= 0.00D+00
 Coeff-Com:  0.226D-05-0.660D-03-0.205D-03 0.516D-02 0.771D-02 0.305D-02
 Coeff-Com: -0.126D+00 0.267D-01 0.108D+01
 Coeff:      0.226D-05-0.660D-03-0.205D-03 0.516D-02 0.771D-02 0.305D-02
 Coeff:     -0.126D+00 0.267D-01 0.108D+01
 Gap=     0.412 Goal=   None    Shift=    0.000
 RMSDP=8.78D-09 MaxDP=1.89D-07 DE=-1.86D-11 OVMax= 1.03D-06

 SCF Done:  E(RwB97XD) =  -2905.42372518     A.U. after    9 cycles
             Convg  =    0.8775D-08             -V/T =  2.0015
 KE= 2.900941896851D+03 PE=-7.232438149202D+03 EE= 1.278640206090D+03
 Leave Link  502 at Thu Apr 16 13:45:22 2020, MaxMem= 1073741824 cpu:     211.3
 (Enter /home/matheus/.gaussian/g09/l108.exe)
 Variable Step   Value    
 -------- ---- -----------
     1       2    6.047124
 Leave Link  108 at Thu Apr 16 13:45:22 2020, MaxMem= 1073741824 cpu:       0.0
 (Enter /home/matheus/.gaussian/g09/l202.exe)
 ---------------------------------------------------------------------------------------------------
                            Z-MATRIX (ANGSTROMS AND DEGREES)
   CD    Cent   Atom    N1       Length/X        N2       Alpha/Y        N3        Beta/Z          J
 ---------------------------------------------------------------------------------------------------
      1      1  O        0   0.000000          0.000000          0.725000
      2      2  O        0   0.000000          0.000000         -0.725000
      3      3  H        0  -0.590542          0.703781          1.023510
      4      4  H        0   0.000000          0.918721         -1.023510
      5      5  Kr       0   0.000000          3.200000          0.000000
 ---------------------------------------------------------------------------------------------------
                         Z-Matrix orientation:                         
 ---------------------------------------------------------------------
 Center     Atomic      Atomic             Coordinates (Angstroms)
 Number     Number       Type             X           Y           Z
 ---------------------------------------------------------------------
      1          8           0        0.000000    0.000000    0.725000
      2          8           0        0.000000    0.000000   -0.725000
      3          1           0       -0.590542    0.703781    1.023510
      4          1           0        0.000000    0.918721   -1.023510
      5         36           0        0.000000    3.200000    0.000000
 ---------------------------------------------------------------------
                    Distance matrix (angstroms):
                    1          2          3          4          5
     1  O    0.000000
     2  O    1.450000   0.000000
     3  H    0.966000   1.975180   0.000000
     4  H    1.975180   0.966000   2.141316   0.000000
     5  Kr   3.281101   3.281101   2.761779   2.500362   0.000000
 Stoichiometry    H2KrO2
 Framework group  C1[X(H2KrO2)]
 Deg. of freedom     9
 Full point group                 C1      NOp   1
 RotChk:  IX=0 Diff= 2.93D-04
 Largest Abelian subgroup         C1      NOp   1
 Largest concise Abelian subgroup C1      NOp   1
                         Standard orientation:                         
 ---------------------------------------------------------------------
 Center     Atomic      Atomic             Coordinates (Angstroms)
 Number     Number       Type             X           Y           Z
 ---------------------------------------------------------------------
      1          8           0       -2.164760   -0.717610   -0.069346
      2          8           0       -2.161711    0.729864    0.016159
      3          1           0       -1.465987   -1.052197    0.507650
      4          1           0       -1.242390    1.025526    0.040419
      5         36           0        1.036671   -0.001982   -0.003405
 ---------------------------------------------------------------------
 Rotational constants (GHZ):     26.2252031      2.0883037      1.9391001
 Leave Link  202 at Thu Apr 16 13:45:22 2020, MaxMem= 1073741824 cpu:       0.0
 (Enter /home/matheus/.gaussian/g09/l301.exe)
 Standard basis: Aug-CC-pVTZ (5D, 7F)
 Ernie: Thresh=  0.10000D-02 Tol=  0.10000D-05 Strict=F.
 Ernie:  38 primitive shells out of 205 were deleted.
 There are   197 symmetry adapted basis functions of A   symmetry.
 Integral buffers will be    131072 words long.
 Raffenetti 2 integral format.
 Two-electron integral symmetry is turned on.
   197 basis functions,   415 primitive gaussians,   229 cartesian basis functions
    27 alpha electrons       27 beta electrons
       nuclear repulsion energy       144.0697749215 Hartrees.
 IExCor= 4639 DFT=T Ex+Corr=wB97XD ExCW=0 ScaHFX=  1.000000
 ScaDFX=  1.000000  1.000000  1.000000  1.000000 ScalE2=  1.000000  1.000000
 IRadAn=      5 IRanWt=     -1 IRanGd=            0 ICorTp=0
  HFx wShort=  0.000000 wLong=  0.250000 cFull=  0.222036 cShort=  0.000000 cLong=  0.777964
  DFx wShort=  0.000000 wLong=  0.250000 cFull=  0.000000 cShort=  0.000000 cLong=  1.000000
 NAtoms=    5 NActive=    5 NUniq=    5 SFac= 1.00D+00 NAtFMM=   60 NAOKFM=F Big=F
 R6Disp: Dispersion energy =        -0.0010106856 Hartrees.
 Nuclear repulsion after empirical dispersion term =      144.0687642359 Hartrees.
 Leave Link  301 at Thu Apr 16 13:45:22 2020, MaxMem= 1073741824 cpu:       0.2
 (Enter /home/matheus/.gaussian/g09/l302.exe)
 NPDir=0 NMtPBC=     1 NCelOv=     1 NCel=       1 NClECP=     1 NCelD=      1
         NCelK=      1 NCelE2=     1 NClLst=     1 CellRange=     0.0.
 One-electron integrals computed using PRISM.
 NBasis=   197 RedAO= T  NBF=   197
 NBsUse=   197 1.00D-06 NBFU=   197
 Precomputing XC quadrature grid using
 IXCGrd= 2 IRadAn=           5 IRanWt=          -1 IRanGd=           0 AccXCQ= 0.00D+00.
 NRdTot=     427 NPtTot=      123512 NUsed=      126579 NTot=      126611
 NSgBfM=   229   229   229   229   229 NAtAll=     5     5.
 Leave Link  302 at Thu Apr 16 13:45:22 2020, MaxMem= 1073741824 cpu:       1.0
 (Enter /home/matheus/.gaussian/g09/l303.exe)
 DipDrv:  MaxL=1.
 Leave Link  303 at Thu Apr 16 13:45:22 2020, MaxMem= 1073741824 cpu:       0.2
 (Enter /home/matheus/.gaussian/g09/l401.exe)
 Initial guess read from the read-write file.
 B after Tr=     0.000000    0.000000    0.000000
         Rot=    1.000000    0.000000    0.000000    0.000000 Ang=   0.00 deg.
 Guess basis will be translated and rotated to current coordinates.
 Initial guess orbital symmetries:
       Occupied  (A) (A) (A) (A) (A) (A) (A) (A) (A) (A) (A) (A)
                 (A) (A) (A) (A) (A) (A) (A) (A) (A) (A) (A) (A)
                 (A) (A) (A)
       Virtual   (A) (A) (A) (A) (A) (A) (A) (A) (A) (A) (A) (A)
                 (A) (A) (A) (A) (A) (A) (A) (A) (A) (A) (A) (A)
                 (A) (A) (A) (A) (A) (A) (A) (A) (A) (A) (A) (A)
                 (A) (A) (A) (A) (A) (A) (A) (A) (A) (A) (A) (A)
                 (A) (A) (A) (A) (A) (A) (A) (A) (A) (A) (A) (A)
                 (A) (A) (A) (A) (A) (A) (A) (A) (A) (A) (A) (A)
                 (A) (A) (A) (A) (A) (A) (A) (A) (A) (A) (A) (A)
                 (A) (A) (A) (A) (A) (A) (A) (A) (A) (A) (A) (A)
                 (A) (A) (A) (A) (A) (A) (A) (A) (A) (A) (A) (A)
                 (A) (A) (A) (A) (A) (A) (A) (A) (A) (A) (A) (A)
                 (A) (A) (A) (A) (A) (A) (A) (A) (A) (A) (A) (A)
                 (A) (A) (A) (A) (A) (A) (A) (A) (A) (A) (A) (A)
                 (A) (A) (A) (A) (A) (A) (A) (A) (A) (A) (A) (A)
                 (A) (A) (A) (A) (A) (A) (A) (A) (A) (A) (A) (A)
                 (A) (A)
 The electronic state of the initial guess is 1-A.
 Generating alternative initial guess.
 Harris functional with IExCor= 4639 diagonalized for initial guess.
 ExpMin= 2.53D-02 ExpMax= 1.17D+07 ExpMxC= 1.33D+04 IAcc=3 IRadAn=         5 AccDes= 0.00D+00
 HarFok:  IExCor= 4639 AccDes= 0.00D+00 IRadAn=         5 IDoV= 1
 ScaDFX=  1.000000  1.000000  1.000000  1.000000
 FoFCou: FMM=F IPFlag=           0 FMFlag=      100000 FMFlg1=           0
         NFxFlg=           0 DoJE=T BraDBF=F KetDBF=T FulRan=T
         Omega=  0.000000  0.000000  1.000000  0.000000  0.000000 ICntrl=     500 IOpCl=  0
         NMat0=    1 NMatS0=    1 NMatT0=    0 NMatD0=    1 NMtDS0=    0 NMtDT0=    0
         I1Cent=           4 NGrid=           0.
 Petite list used in FoFCou.
 Harris En= -2875.39856702133    
 Leave Link  401 at Thu Apr 16 13:45:22 2020, MaxMem= 1073741824 cpu:       4.2
 (Enter /home/matheus/.gaussian/g09/l502.exe)
 Closed shell SCF:
 Requested convergence on RMS density matrix=1.00D-08 within 128 cycles.
 Requested convergence on MAX density matrix=1.00D-06.
 Requested convergence on             energy=1.00D-06.
 No special actions if energy rises.
 Using DIIS extrapolation, IDIIS=  1040.
 Integral symmetry usage will be decided dynamically.
       126521 words used for storage of precomputed grid.
 IEnd=      305468 IEndB=      305468 NGot=  1073741824 MDV=  1073505667
 LenX=  1073505667 LenY=  1073452785
 Fock matrices will be formed incrementally for  20 cycles.

 Cycle   1  Pass 1  IDiag  1:
 FoFJK:  IHMeth= 1 ICntrl=     0 DoSepK=T KAlg= 1 I1Cent= 0 FoldK=F
 FoFCou: FMM=F IPFlag=           0 FMFlag=      100000 FMFlg1=           0
         NFxFlg=           0 DoJE=T BraDBF=F KetDBF=F FulRan=T
         Omega=  0.000000  0.000000  1.000000  0.000000  0.000000 ICntrl=     500 IOpCl=  0
         NMat0=    1 NMatS0=    1 NMatT0=    0 NMatD0=    1 NMtDS0=    0 NMtDT0=    0
         I1Cent=           0 NGrid=           0.
 Symmetry not used in FoFCou.
 E= -2905.42510117264    
 DIIS: error= 1.71D-03 at cycle   1 NSaved=   1.
 NSaved= 1 IEnMin= 1 EnMin= -2905.42510117264     IErMin= 1 ErrMin= 1.71D-03
 ErrMax= 1.71D-03 EMaxC= 1.00D-01 BMatC= 6.30D-04 BMatP= 6.30D-04
 IDIUse=3 WtCom= 9.83D-01 WtEn= 1.71D-02
 Coeff-Com:  0.100D+01
 Coeff-En:   0.100D+01
 Coeff:      0.100D+01
 Gap=     0.415 Goal=   None    Shift=    0.000
 GapD=    0.415 DampG=2.000 DampE=1.000 DampFc=2.0000 IDamp=-1.
 RMSDP=6.99D-05 MaxDP=1.91D-03              OVMax= 2.95D-03

 Cycle   2  Pass 1  IDiag  1:
 RMSU=  4.95D-05    CP:  1.00D+00
 FoFJK:  IHMeth= 1 ICntrl=     0 DoSepK=T KAlg= 1 I1Cent= 0 FoldK=F
 E= -2905.42519481662     Delta-E=       -0.000093643982 Rises=F Damp=F
 DIIS: error= 1.36D-04 at cycle   2 NSaved=   2.
 NSaved= 2 IEnMin= 2 EnMin= -2905.42519481662     IErMin= 2 ErrMin= 1.36D-04
 ErrMax= 1.36D-04 EMaxC= 1.00D-01 BMatC= 3.83D-06 BMatP= 6.30D-04
 IDIUse=3 WtCom= 9.99D-01 WtEn= 1.36D-03
 Coeff-Com: -0.300D-02 0.100D+01
 Coeff-En:   0.000D+00 0.100D+01
 Coeff:     -0.299D-02 0.100D+01
 Gap=     0.412 Goal=   None    Shift=    0.000
 RMSDP=1.45D-05 MaxDP=5.34D-04 DE=-9.36D-05 OVMax= 8.10D-04

 Cycle   3  Pass 1  IDiag  1:
 RMSU=  8.32D-06    CP:  1.00D+00  1.12D+00
 FoFJK:  IHMeth= 1 ICntrl=     0 DoSepK=T KAlg= 1 I1Cent= 0 FoldK=F
 E= -2905.42519757389     Delta-E=       -0.000002757272 Rises=F Damp=F
 DIIS: error= 7.44D-05 at cycle   3 NSaved=   3.
 NSaved= 3 IEnMin= 3 EnMin= -2905.42519757389     IErMin= 3 ErrMin= 7.44D-05
 ErrMax= 7.44D-05 EMaxC= 1.00D-01 BMatC= 2.41D-06 BMatP= 3.83D-06
 IDIUse=1 WtCom= 1.00D+00 WtEn= 0.00D+00
 Coeff-Com: -0.623D-02 0.438D+00 0.569D+00
 Coeff:     -0.623D-02 0.438D+00 0.569D+00
 Gap=     0.412 Goal=   None    Shift=    0.000
 RMSDP=5.13D-06 MaxDP=2.53D-04 DE=-2.76D-06 OVMax= 2.89D-04

 Cycle   4  Pass 1  IDiag  1:
 RMSU=  2.65D-06    CP:  1.00D+00  1.14D+00  7.38D-01
 FoFJK:  IHMeth= 1 ICntrl=     0 DoSepK=T KAlg= 1 I1Cent= 0 FoldK=F
 E= -2905.42519912677     Delta-E=       -0.000001552879 Rises=F Damp=F
 DIIS: error= 1.98D-05 at cycle   4 NSaved=   4.
 NSaved= 4 IEnMin= 4 EnMin= -2905.42519912677     IErMin= 4 ErrMin= 1.98D-05
 ErrMax= 1.98D-05 EMaxC= 1.00D-01 BMatC= 1.17D-07 BMatP= 2.41D-06
 IDIUse=1 WtCom= 1.00D+00 WtEn= 0.00D+00
 Coeff-Com: -0.130D-02 0.179D-01 0.155D+00 0.828D+00
 Coeff:     -0.130D-02 0.179D-01 0.155D+00 0.828D+00
 Gap=     0.412 Goal=   None    Shift=    0.000
 RMSDP=1.89D-06 MaxDP=6.57D-05 DE=-1.55D-06 OVMax= 1.06D-04

 Cycle   5  Pass 1  IDiag  1:
 RMSU=  9.28D-07    CP:  1.00D+00  1.16D+00  8.24D-01  1.13D+00
 FoFJK:  IHMeth= 1 ICntrl=     0 DoSepK=T KAlg= 1 I1Cent= 0 FoldK=F
 E= -2905.42519920906     Delta-E=       -0.000000082292 Rises=F Damp=F
 DIIS: error= 1.18D-05 at cycle   5 NSaved=   5.
 NSaved= 5 IEnMin= 5 EnMin= -2905.42519920906     IErMin= 5 ErrMin= 1.18D-05
 ErrMax= 1.18D-05 EMaxC= 1.00D-01 BMatC= 4.20D-08 BMatP= 1.17D-07
 IDIUse=1 WtCom= 1.00D+00 WtEn= 0.00D+00
 Coeff-Com:  0.203D-03-0.560D-01 0.901D-03 0.443D+00 0.611D+00
 Coeff:      0.203D-03-0.560D-01 0.901D-03 0.443D+00 0.611D+00
 Gap=     0.412 Goal=   None    Shift=    0.000
 RMSDP=7.34D-07 MaxDP=3.43D-05 DE=-8.23D-08 OVMax= 4.95D-05

 Cycle   6  Pass 1  IDiag  1:
 RMSU=  2.99D-07    CP:  1.00D+00  1.16D+00  8.52D-01  1.23D+00  7.90D-01
 FoFJK:  IHMeth= 1 ICntrl=     0 DoSepK=T KAlg= 1 I1Cent= 0 FoldK=F
 E= -2905.42519923888     Delta-E=       -0.000000029813 Rises=F Damp=F
 DIIS: error= 1.95D-06 at cycle   6 NSaved=   6.
 NSaved= 6 IEnMin= 6 EnMin= -2905.42519923888     IErMin= 6 ErrMin= 1.95D-06
 ErrMax= 1.95D-06 EMaxC= 1.00D-01 BMatC= 1.18D-09 BMatP= 4.20D-08
 IDIUse=1 WtCom= 1.00D+00 WtEn= 0.00D+00
 Coeff-Com:  0.155D-03-0.208D-01-0.940D-02 0.947D-01 0.202D+00 0.734D+00
 Coeff:      0.155D-03-0.208D-01-0.940D-02 0.947D-01 0.202D+00 0.734D+00
 Gap=     0.412 Goal=   None    Shift=    0.000
 RMSDP=1.76D-07 MaxDP=5.22D-06 DE=-2.98D-08 OVMax= 1.01D-05

 Cycle   7  Pass 1  IDiag  1:
 RMSU=  7.30D-08    CP:  1.00D+00  1.16D+00  8.57D-01  1.25D+00  8.49D-01
                    CP:  1.02D+00
 FoFJK:  IHMeth= 1 ICntrl=     0 DoSepK=T KAlg= 1 I1Cent= 0 FoldK=F
 E= -2905.42519924012     Delta-E=       -0.000000001241 Rises=F Damp=F
 DIIS: error= 5.88D-07 at cycle   7 NSaved=   7.
 NSaved= 7 IEnMin= 7 EnMin= -2905.42519924012     IErMin= 7 ErrMin= 5.88D-07
 ErrMax= 5.88D-07 EMaxC= 1.00D-01 BMatC= 5.03D-11 BMatP= 1.18D-09
 IDIUse=1 WtCom= 1.00D+00 WtEn= 0.00D+00
 Coeff-Com: -0.228D-04 0.643D-02 0.840D-03-0.488D-01-0.727D-01-0.191D-01
 Coeff-Com:  0.113D+01
 Coeff:     -0.228D-04 0.643D-02 0.840D-03-0.488D-01-0.727D-01-0.191D-01
 Coeff:      0.113D+01
 Gap=     0.412 Goal=   None    Shift=    0.000
 RMSDP=7.75D-08 MaxDP=2.96D-06 DE=-1.24D-09 OVMax= 6.05D-06

 Cycle   8  Pass 1  IDiag  1:
 RMSU=  2.34D-08    CP:  1.00D+00  1.16D+00  8.60D-01  1.26D+00  8.67D-01
                    CP:  1.13D+00  1.22D+00
 FoFJK:  IHMeth= 1 ICntrl=     0 DoSepK=T KAlg= 1 I1Cent= 0 FoldK=F
 E= -2905.42519924025     Delta-E=       -0.000000000133 Rises=F Damp=F
 DIIS: error= 7.31D-08 at cycle   8 NSaved=   8.
 NSaved= 8 IEnMin= 8 EnMin= -2905.42519924025     IErMin= 8 ErrMin= 7.31D-08
 ErrMax= 7.31D-08 EMaxC= 1.00D-01 BMatC= 2.16D-12 BMatP= 5.03D-11
 IDIUse=1 WtCom= 1.00D+00 WtEn= 0.00D+00
 Coeff-Com: -0.935D-05 0.169D-02 0.449D-03-0.104D-01-0.173D-01-0.263D-01
 Coeff-Com:  0.154D+00 0.898D+00
 Coeff:     -0.935D-05 0.169D-02 0.449D-03-0.104D-01-0.173D-01-0.263D-01
 Coeff:      0.154D+00 0.898D+00
 Gap=     0.412 Goal=   None    Shift=    0.000
 RMSDP=1.21D-08 MaxDP=2.96D-07 DE=-1.33D-10 OVMax= 1.43D-06

 Cycle   9  Pass 1  IDiag  1:
 RMSU=  4.81D-09    CP:  1.00D+00  1.16D+00  8.60D-01  1.26D+00  8.66D-01
                    CP:  1.14D+00  1.27D+00  1.23D+00
 FoFJK:  IHMeth= 1 ICntrl=     0 DoSepK=T KAlg= 1 I1Cent= 0 FoldK=F
 E= -2905.42519924025     Delta-E=       -0.000000000003 Rises=F Damp=F
 DIIS: error= 3.07D-08 at cycle   9 NSaved=   9.
 NSaved= 9 IEnMin= 9 EnMin= -2905.42519924025     IErMin= 9 ErrMin= 3.07D-08
 ErrMax= 3.07D-08 EMaxC= 1.00D-01 BMatC= 2.58D-13 BMatP= 2.16D-12
 IDIUse=1 WtCom= 1.00D+00 WtEn= 0.00D+00
 Coeff-Com:  0.233D-05-0.659D-03-0.927D-04 0.507D-02 0.739D-02 0.111D-02
 Coeff-Com: -0.122D+00 0.483D-01 0.106D+01
 Coeff:      0.233D-05-0.659D-03-0.927D-04 0.507D-02 0.739D-02 0.111D-02
 Coeff:     -0.122D+00 0.483D-01 0.106D+01
 Gap=     0.412 Goal=   None    Shift=    0.000
 RMSDP=6.80D-09 MaxDP=1.85D-07 DE=-2.73D-12 OVMax= 7.81D-07

 SCF Done:  E(RwB97XD) =  -2905.42519924     A.U. after    9 cycles
             Convg  =    0.6798D-08             -V/T =  2.0015
 KE= 2.900932364733D+03 PE=-7.225742362338D+03 EE= 1.275316034129D+03
 Leave Link  502 at Thu Apr 16 13:45:48 2020, MaxMem= 1073741824 cpu:     207.1
 (Enter /home/matheus/.gaussian/g09/l108.exe)
 Variable Step   Value    
 -------- ---- -----------
     1       3    6.236096
 Leave Link  108 at Thu Apr 16 13:45:48 2020, MaxMem= 1073741824 cpu:       0.0
 (Enter /home/matheus/.gaussian/g09/l202.exe)
 ---------------------------------------------------------------------------------------------------
                            Z-MATRIX (ANGSTROMS AND DEGREES)
   CD    Cent   Atom    N1       Length/X        N2       Alpha/Y        N3        Beta/Z          J
 ---------------------------------------------------------------------------------------------------
      1      1  O        0   0.000000          0.000000          0.725000
      2      2  O        0   0.000000          0.000000         -0.725000
      3      3  H        0  -0.590542          0.703781          1.023510
      4      4  H        0   0.000000          0.918721         -1.023510
      5      5  Kr       0   0.000000          3.300000          0.000000
 ---------------------------------------------------------------------------------------------------
                         Z-Matrix orientation:                         
 ---------------------------------------------------------------------
 Center     Atomic      Atomic             Coordinates (Angstroms)
 Number     Number       Type             X           Y           Z
 ---------------------------------------------------------------------
      1          8           0        0.000000    0.000000    0.725000
      2          8           0        0.000000    0.000000   -0.725000
      3          1           0       -0.590542    0.703781    1.023510
      4          1           0        0.000000    0.918721   -1.023510
      5         36           0        0.000000    3.300000    0.000000
 ---------------------------------------------------------------------
                    Distance matrix (angstroms):
                    1          2          3          4          5
     1  O    0.000000
     2  O    1.450000   0.000000
     3  H    0.966000   1.975180   0.000000
     4  H    1.975180   0.966000   2.141316   0.000000
     5  Kr   3.378702   3.378702   2.852484   2.591923   0.000000
 Stoichiometry    H2KrO2
 Framework group  C1[X(H2KrO2)]
 Deg. of freedom     9
 Full point group                 C1      NOp   1
 RotChk:  IX=0 Diff= 2.74D-04
 Largest Abelian subgroup         C1      NOp   1
 Largest concise Abelian subgroup C1      NOp   1
                         Standard orientation:                         
 ---------------------------------------------------------------------
 Center     Atomic      Atomic             Coordinates (Angstroms)
 Number     Number       Type             X           Y           Z
 ---------------------------------------------------------------------
      1          8           0       -2.231327   -0.717770   -0.069550
      2          8           0       -2.228481    0.729703    0.015957
      3          1           0       -1.532433   -1.052255    0.507358
      4          1           0       -1.309201    1.025501    0.040102
      5         36           0        1.070003   -0.001909   -0.003298
 ---------------------------------------------------------------------
 Rotational constants (GHZ):     26.2253129      1.9626290      1.8302734
 Leave Link  202 at Thu Apr 16 13:45:48 2020, MaxMem= 1073741824 cpu:       0.0
 (Enter /home/matheus/.gaussian/g09/l301.exe)
 Standard basis: Aug-CC-pVTZ (5D, 7F)
 Ernie: Thresh=  0.10000D-02 Tol=  0.10000D-05 Strict=F.
 Ernie:  38 primitive shells out of 205 were deleted.
 There are   197 symmetry adapted basis functions of A   symmetry.
 Integral buffers will be    131072 words long.
 Raffenetti 2 integral format.
 Two-electron integral symmetry is turned on.
   197 basis functions,   415 primitive gaussians,   229 cartesian basis functions
    27 alpha electrons       27 beta electrons
       nuclear repulsion energy       140.8977561815 Hartrees.
 IExCor= 4639 DFT=T Ex+Corr=wB97XD ExCW=0 ScaHFX=  1.000000
 ScaDFX=  1.000000  1.000000  1.000000  1.000000 ScalE2=  1.000000  1.000000
 IRadAn=      5 IRanWt=     -1 IRanGd=            0 ICorTp=0
  HFx wShort=  0.000000 wLong=  0.250000 cFull=  0.222036 cShort=  0.000000 cLong=  0.777964
  DFx wShort=  0.000000 wLong=  0.250000 cFull=  0.000000 cShort=  0.000000 cLong=  1.000000
 NAtoms=    5 NActive=    5 NUniq=    5 SFac= 1.00D+00 NAtFMM=   60 NAOKFM=F Big=F
 R6Disp: Dispersion energy =        -0.0010901788 Hartrees.
 Nuclear repulsion after empirical dispersion term =      140.8966660026 Hartrees.
 Leave Link  301 at Thu Apr 16 13:45:48 2020, MaxMem= 1073741824 cpu:       0.2
 (Enter /home/matheus/.gaussian/g09/l302.exe)
 NPDir=0 NMtPBC=     1 NCelOv=     1 NCel=       1 NClECP=     1 NCelD=      1
         NCelK=      1 NCelE2=     1 NClLst=     1 CellRange=     0.0.
 One-electron integrals computed using PRISM.
 NBasis=   197 RedAO= T  NBF=   197
 NBsUse=   197 1.00D-06 NBFU=   197
 Precomputing XC quadrature grid using
 IXCGrd= 2 IRadAn=           5 IRanWt=          -1 IRanGd=           0 AccXCQ= 0.00D+00.
 NRdTot=     427 NPtTot=      123512 NUsed=      126579 NTot=      126611
 NSgBfM=   229   229   229   229   229 NAtAll=     5     5.
 Leave Link  302 at Thu Apr 16 13:45:48 2020, MaxMem= 1073741824 cpu:       1.0
 (Enter /home/matheus/.gaussian/g09/l303.exe)
 DipDrv:  MaxL=1.
 Leave Link  303 at Thu Apr 16 13:45:49 2020, MaxMem= 1073741824 cpu:       0.2
 (Enter /home/matheus/.gaussian/g09/l401.exe)
 Initial guess read from the read-write file.
 B after Tr=     0.000000    0.000000    0.000000
         Rot=    1.000000    0.000000    0.000000    0.000000 Ang=   0.00 deg.
 Guess basis will be translated and rotated to current coordinates.
 Initial guess orbital symmetries:
       Occupied  (A) (A) (A) (A) (A) (A) (A) (A) (A) (A) (A) (A)
                 (A) (A) (A) (A) (A) (A) (A) (A) (A) (A) (A) (A)
                 (A) (A) (A)
       Virtual   (A) (A) (A) (A) (A) (A) (A) (A) (A) (A) (A) (A)
                 (A) (A) (A) (A) (A) (A) (A) (A) (A) (A) (A) (A)
                 (A) (A) (A) (A) (A) (A) (A) (A) (A) (A) (A) (A)
                 (A) (A) (A) (A) (A) (A) (A) (A) (A) (A) (A) (A)
                 (A) (A) (A) (A) (A) (A) (A) (A) (A) (A) (A) (A)
                 (A) (A) (A) (A) (A) (A) (A) (A) (A) (A) (A) (A)
                 (A) (A) (A) (A) (A) (A) (A) (A) (A) (A) (A) (A)
                 (A) (A) (A) (A) (A) (A) (A) (A) (A) (A) (A) (A)
                 (A) (A) (A) (A) (A) (A) (A) (A) (A) (A) (A) (A)
                 (A) (A) (A) (A) (A) (A) (A) (A) (A) (A) (A) (A)
                 (A) (A) (A) (A) (A) (A) (A) (A) (A) (A) (A) (A)
                 (A) (A) (A) (A) (A) (A) (A) (A) (A) (A) (A) (A)
                 (A) (A) (A) (A) (A) (A) (A) (A) (A) (A) (A) (A)
                 (A) (A) (A) (A) (A) (A) (A) (A) (A) (A) (A) (A)
                 (A) (A)
 The electronic state of the initial guess is 1-A.
 Generating alternative initial guess.
 Harris functional with IExCor= 4639 diagonalized for initial guess.
 ExpMin= 2.53D-02 ExpMax= 1.17D+07 ExpMxC= 1.33D+04 IAcc=3 IRadAn=         5 AccDes= 0.00D+00
 HarFok:  IExCor= 4639 AccDes= 0.00D+00 IRadAn=         5 IDoV= 1
 ScaDFX=  1.000000  1.000000  1.000000  1.000000
 FoFCou: FMM=F IPFlag=           0 FMFlag=      100000 FMFlg1=           0
         NFxFlg=           0 DoJE=T BraDBF=F KetDBF=T FulRan=T
         Omega=  0.000000  0.000000  1.000000  0.000000  0.000000 ICntrl=     500 IOpCl=  0
         NMat0=    1 NMatS0=    1 NMatT0=    0 NMatD0=    1 NMtDS0=    0 NMtDT0=    0
         I1Cent=           4 NGrid=           0.
 Petite list used in FoFCou.
 Harris En= -2875.40082510511    
 Leave Link  401 at Thu Apr 16 13:45:49 2020, MaxMem= 1073741824 cpu:       4.3
 (Enter /home/matheus/.gaussian/g09/l502.exe)
 Closed shell SCF:
 Requested convergence on RMS density matrix=1.00D-08 within 128 cycles.
 Requested convergence on MAX density matrix=1.00D-06.
 Requested convergence on             energy=1.00D-06.
 No special actions if energy rises.
 Using DIIS extrapolation, IDIIS=  1040.
 Integral symmetry usage will be decided dynamically.
       126521 words used for storage of precomputed grid.
 IEnd=      305468 IEndB=      305468 NGot=  1073741824 MDV=  1073505667
 LenX=  1073505667 LenY=  1073452785
 Fock matrices will be formed incrementally for  20 cycles.

 Cycle   1  Pass 1  IDiag  1:
 FoFJK:  IHMeth= 1 ICntrl=     0 DoSepK=T KAlg= 1 I1Cent= 0 FoldK=F
 FoFCou: FMM=F IPFlag=           0 FMFlag=      100000 FMFlg1=           0
         NFxFlg=           0 DoJE=T BraDBF=F KetDBF=F FulRan=T
         Omega=  0.000000  0.000000  1.000000  0.000000  0.000000 ICntrl=     500 IOpCl=  0
         NMat0=    1 NMatS0=    1 NMatT0=    0 NMatD0=    1 NMtDS0=    0 NMtDT0=    0
         I1Cent=           0 NGrid=           0.
 Symmetry not used in FoFCou.
 E= -2905.42607737942    
 DIIS: error= 1.48D-03 at cycle   1 NSaved=   1.
 NSaved= 1 IEnMin= 1 EnMin= -2905.42607737942     IErMin= 1 ErrMin= 1.48D-03
 ErrMax= 1.48D-03 EMaxC= 1.00D-01 BMatC= 4.78D-04 BMatP= 4.78D-04
 IDIUse=3 WtCom= 9.85D-01 WtEn= 1.48D-02
 Coeff-Com:  0.100D+01
 Coeff-En:   0.100D+01
 Coeff:      0.100D+01
 Gap=     0.415 Goal=   None    Shift=    0.000
 GapD=    0.415 DampG=2.000 DampE=1.000 DampFc=2.0000 IDamp=-1.
 RMSDP=6.46D-05 MaxDP=1.71D-03              OVMax= 2.59D-03

 Cycle   2  Pass 1  IDiag  1:
 RMSU=  4.57D-05    CP:  1.00D+00
 FoFJK:  IHMeth= 1 ICntrl=     0 DoSepK=T KAlg= 1 I1Cent= 0 FoldK=F
 E= -2905.42614868091     Delta-E=       -0.000071301485 Rises=F Damp=F
 DIIS: error= 1.06D-04 at cycle   2 NSaved=   2.
 NSaved= 2 IEnMin= 2 EnMin= -2905.42614868091     IErMin= 2 ErrMin= 1.06D-04
 ErrMax= 1.06D-04 EMaxC= 1.00D-01 BMatC= 2.51D-06 BMatP= 4.78D-04
 IDIUse=3 WtCom= 9.99D-01 WtEn= 1.06D-03
 Coeff-Com: -0.458D-02 0.100D+01
 Coeff-En:   0.000D+00 0.100D+01
 Coeff:     -0.458D-02 0.100D+01
 Gap=     0.412 Goal=   None    Shift=    0.000
 RMSDP=1.25D-05 MaxDP=4.22D-04 DE=-7.13D-05 OVMax= 6.78D-04

 Cycle   3  Pass 1  IDiag  1:
 RMSU=  6.77D-06    CP:  1.00D+00  1.12D+00
 FoFJK:  IHMeth= 1 ICntrl=     0 DoSepK=T KAlg= 1 I1Cent= 0 FoldK=F
 E= -2905.42615071469     Delta-E=       -0.000002033782 Rises=F Damp=F
 DIIS: error= 5.84D-05 at cycle   3 NSaved=   3.
 NSaved= 3 IEnMin= 3 EnMin= -2905.42615071469     IErMin= 3 ErrMin= 5.84D-05
 ErrMax= 5.84D-05 EMaxC= 1.00D-01 BMatC= 1.53D-06 BMatP= 2.51D-06
 IDIUse=1 WtCom= 1.00D+00 WtEn= 0.00D+00
 Coeff-Com: -0.613D-02 0.432D+00 0.574D+00
 Coeff:     -0.613D-02 0.432D+00 0.574D+00
 Gap=     0.413 Goal=   None    Shift=    0.000
 RMSDP=4.18D-06 MaxDP=2.06D-04 DE=-2.03D-06 OVMax= 2.46D-04

 Cycle   4  Pass 1  IDiag  1:
 RMSU=  2.34D-06    CP:  1.00D+00  1.14D+00  7.72D-01
 FoFJK:  IHMeth= 1 ICntrl=     0 DoSepK=T KAlg= 1 I1Cent= 0 FoldK=F
 E= -2905.42615170028     Delta-E=       -0.000000985592 Rises=F Damp=F
 DIIS: error= 1.92D-05 at cycle   4 NSaved=   4.
 NSaved= 4 IEnMin= 4 EnMin= -2905.42615170028     IErMin= 4 ErrMin= 1.92D-05
 ErrMax= 1.92D-05 EMaxC= 1.00D-01 BMatC= 9.28D-08 BMatP= 1.53D-06
 IDIUse=1 WtCom= 1.00D+00 WtEn= 0.00D+00
 Coeff-Com: -0.119D-02 0.102D-01 0.169D+00 0.822D+00
 Coeff:     -0.119D-02 0.102D-01 0.169D+00 0.822D+00
 Gap=     0.412 Goal=   None    Shift=    0.000
 RMSDP=1.69D-06 MaxDP=5.57D-05 DE=-9.86D-07 OVMax= 8.90D-05

 Cycle   5  Pass 1  IDiag  1:
 RMSU=  7.86D-07    CP:  1.00D+00  1.16D+00  8.73D-01  1.13D+00
 FoFJK:  IHMeth= 1 ICntrl=     0 DoSepK=T KAlg= 1 I1Cent= 0 FoldK=F
 E= -2905.42615176610     Delta-E=       -0.000000065821 Rises=F Damp=F
 DIIS: error= 1.06D-05 at cycle   5 NSaved=   5.
 NSaved= 5 IEnMin= 5 EnMin= -2905.42615176610     IErMin= 5 ErrMin= 1.06D-05
 ErrMax= 1.06D-05 EMaxC= 1.00D-01 BMatC= 2.91D-08 BMatP= 9.28D-08
 IDIUse=1 WtCom= 1.00D+00 WtEn= 0.00D+00
 Coeff-Com:  0.223D-03-0.568D-01 0.987D-02 0.434D+00 0.613D+00
 Coeff:      0.223D-03-0.568D-01 0.987D-02 0.434D+00 0.613D+00
 Gap=     0.412 Goal=   None    Shift=    0.000
 RMSDP=6.34D-07 MaxDP=2.94D-05 DE=-6.58D-08 OVMax= 4.16D-05

 Cycle   6  Pass 1  IDiag  1:
 RMSU=  2.51D-07    CP:  1.00D+00  1.16D+00  9.04D-01  1.22D+00  7.89D-01
 FoFJK:  IHMeth= 1 ICntrl=     0 DoSepK=T KAlg= 1 I1Cent= 0 FoldK=F
 E= -2905.42615178691     Delta-E=       -0.000000020806 Rises=F Damp=F
 DIIS: error= 1.73D-06 at cycle   6 NSaved=   6.
 NSaved= 6 IEnMin= 6 EnMin= -2905.42615178691     IErMin= 6 ErrMin= 1.73D-06
 ErrMax= 1.73D-06 EMaxC= 1.00D-01 BMatC= 8.02D-10 BMatP= 2.91D-08
 IDIUse=1 WtCom= 1.00D+00 WtEn= 0.00D+00
 Coeff-Com:  0.152D-03-0.198D-01-0.723D-02 0.869D-01 0.196D+00 0.744D+00
 Coeff:      0.152D-03-0.198D-01-0.723D-02 0.869D-01 0.196D+00 0.744D+00
 Gap=     0.412 Goal=   None    Shift=    0.000
 RMSDP=1.51D-07 MaxDP=5.06D-06 DE=-2.08D-08 OVMax= 8.41D-06

 Cycle   7  Pass 1  IDiag  1:
 RMSU=  6.04D-08    CP:  1.00D+00  1.16D+00  9.11D-01  1.24D+00  8.46D-01
                    CP:  1.02D+00
 FoFJK:  IHMeth= 1 ICntrl=     0 DoSepK=T KAlg= 1 I1Cent= 0 FoldK=F
 E= -2905.42615178779     Delta-E=       -0.000000000881 Rises=F Damp=F
 DIIS: error= 5.22D-07 at cycle   7 NSaved=   7.
 NSaved= 7 IEnMin= 7 EnMin= -2905.42615178779     IErMin= 7 ErrMin= 5.22D-07
 ErrMax= 5.22D-07 EMaxC= 1.00D-01 BMatC= 3.57D-11 BMatP= 8.02D-10
 IDIUse=1 WtCom= 1.00D+00 WtEn= 0.00D+00
 Coeff-Com: -0.263D-04 0.677D-02-0.179D-03-0.495D-01-0.746D-01-0.170D-01
 Coeff-Com:  0.113D+01
 Coeff:     -0.263D-04 0.677D-02-0.179D-03-0.495D-01-0.746D-01-0.170D-01
 Coeff:      0.113D+01
 Gap=     0.412 Goal=   None    Shift=    0.000
 RMSDP=6.46D-08 MaxDP=2.56D-06 DE=-8.81D-10 OVMax= 5.03D-06

 Cycle   8  Pass 1  IDiag  1:
 RMSU=  1.98D-08    CP:  1.00D+00  1.16D+00  9.13D-01  1.25D+00  8.63D-01
                    CP:  1.13D+00  1.24D+00
 FoFJK:  IHMeth= 1 ICntrl=     0 DoSepK=T KAlg= 1 I1Cent= 0 FoldK=F
 E= -2905.42615178788     Delta-E=       -0.000000000092 Rises=F Damp=F
 DIIS: error= 5.51D-08 at cycle   8 NSaved=   8.
 NSaved= 8 IEnMin= 8 EnMin= -2905.42615178788     IErMin= 8 ErrMin= 5.51D-08
 ErrMax= 5.51D-08 EMaxC= 1.00D-01 BMatC= 1.16D-12 BMatP= 3.57D-11
 IDIUse=1 WtCom= 1.00D+00 WtEn= 0.00D+00
 Coeff-Com: -0.732D-05 0.124D-02 0.170D-03-0.727D-02-0.125D-01-0.212D-01
 Coeff-Com:  0.103D+00 0.937D+00
 Coeff:     -0.732D-05 0.124D-02 0.170D-03-0.727D-02-0.125D-01-0.212D-01
 Coeff:      0.103D+00 0.937D+00
 Gap=     0.412 Goal=   None    Shift=    0.000
 RMSDP=1.05D-08 MaxDP=2.89D-07 DE=-9.23D-11 OVMax= 1.17D-06

 Cycle   9  Pass 1  IDiag  1:
 RMSU=  3.63D-09    CP:  1.00D+00  1.16D+00  9.13D-01  1.25D+00  8.62D-01
                    CP:  1.13D+00  1.28D+00  1.25D+00
 FoFJK:  IHMeth= 1 ICntrl=     0 DoSepK=T KAlg= 1 I1Cent= 0 FoldK=F
 E= -2905.42615178787     Delta-E=        0.000000000016 Rises=F Damp=F
 DIIS: error= 2.13D-08 at cycle   9 NSaved=   9.
 NSaved= 9 IEnMin= 8 EnMin= -2905.42615178788     IErMin= 9 ErrMin= 2.13D-08
 ErrMax= 2.13D-08 EMaxC= 1.00D-01 BMatC= 1.63D-13 BMatP= 1.16D-12
 IDIUse=1 WtCom= 1.00D+00 WtEn= 0.00D+00
 Coeff-Com:  0.248D-05-0.666D-03 0.212D-04 0.501D-02 0.739D-02 0.422D-04
 Coeff-Com: -0.121D+00 0.892D-01 0.102D+01
 Coeff:      0.248D-05-0.666D-03 0.212D-04 0.501D-02 0.739D-02 0.422D-04
 Coeff:     -0.121D+00 0.892D-01 0.102D+01
 Gap=     0.412 Goal=   None    Shift=    0.000
 RMSDP=5.21D-09 MaxDP=1.67D-07 DE= 1.59D-11 OVMax= 6.14D-07

 SCF Done:  E(RwB97XD) =  -2905.42615179     A.U. after    9 cycles
             Convg  =    0.5214D-08             -V/T =  2.0016
 KE= 2.900926773327D+03 PE=-7.219432666963D+03 EE= 1.272183075845D+03
 Leave Link  502 at Thu Apr 16 13:46:14 2020, MaxMem= 1073741824 cpu:     202.3
 (Enter /home/matheus/.gaussian/g09/l108.exe)
 Variable Step   Value    
 -------- ---- -----------
     1       4    6.425069
 Leave Link  108 at Thu Apr 16 13:46:14 2020, MaxMem= 1073741824 cpu:       0.0
 (Enter /home/matheus/.gaussian/g09/l202.exe)
 ---------------------------------------------------------------------------------------------------
                            Z-MATRIX (ANGSTROMS AND DEGREES)
   CD    Cent   Atom    N1       Length/X        N2       Alpha/Y        N3        Beta/Z          J
 ---------------------------------------------------------------------------------------------------
      1      1  O        0   0.000000          0.000000          0.725000
      2      2  O        0   0.000000          0.000000         -0.725000
      3      3  H        0  -0.590542          0.703781          1.023510
      4      4  H        0   0.000000          0.918721         -1.023510
      5      5  Kr       0   0.000000          3.400000          0.000000
 ---------------------------------------------------------------------------------------------------
                         Z-Matrix orientation:                         
 ---------------------------------------------------------------------
 Center     Atomic      Atomic             Coordinates (Angstroms)
 Number     Number       Type             X           Y           Z
 ---------------------------------------------------------------------
      1          8           0        0.000000    0.000000    0.725000
      2          8           0        0.000000    0.000000   -0.725000
      3          1           0       -0.590542    0.703781    1.023510
      4          1           0        0.000000    0.918721   -1.023510
      5         36           0        0.000000    3.400000    0.000000
 ---------------------------------------------------------------------
                    Distance matrix (angstroms):
[...]

 Cycle   4  Pass 1  IDiag  1:
 RMSU=  2.17D-07    CP:  1.00D+00  1.11D+00  9.99D-01
 FoFJK:  IHMeth= 1 ICntrl=     0 DoSepK=T KAlg= 1 I1Cent= 0 FoldK=F
 E= -2905.42609359982     Delta-E=       -0.000000007098 Rises=F Damp=F
 DIIS: error= 1.10D-06 at cycle   4 NSaved=   4.
 NSaved= 4 IEnMin= 4 EnMin= -2905.42609359982     IErMin= 4 ErrMin= 1.10D-06
 ErrMax= 1.10D-06 EMaxC= 1.00D-01 BMatC= 4.45D-10 BMatP= 7.35D-09
 IDIUse=1 WtCom= 1.00D+00 WtEn= 0.00D+00
 Coeff-Com: -0.103D-02-0.860D-02 0.105D+00 0.904D+00
 Coeff:     -0.103D-02-0.860D-02 0.105D+00 0.904D+00
 Gap=     0.410 Goal=   None    Shift=    0.000
 RMSDP=1.75D-07 MaxDP=7.45D-06 DE=-7.10D-09 OVMax= 1.33D-05

 Cycle   5  Pass 1  IDiag  1:
 RMSU=  7.83D-08    CP:  1.00D+00  1.11D+00  1.09D+00  1.21D+00
 FoFJK:  IHMeth= 1 ICntrl=     0 DoSepK=T KAlg= 1 I1Cent= 0 FoldK=F
 E= -2905.42609360029     Delta-E=       -0.000000000470 Rises=F Damp=F
 DIIS: error= 1.13D-06 at cycle   5 NSaved=   5.
 NSaved= 5 IEnMin= 5 EnMin= -2905.42609360029     IErMin= 4 ErrMin= 1.10D-06
 ErrMax= 1.13D-06 EMaxC= 1.00D-01 BMatC= 2.86D-10 BMatP= 4.45D-10
 IDIUse=1 WtCom= 1.00D+00 WtEn= 0.00D+00
 Coeff-Com:  0.494D-03-0.495D-01-0.643D-01 0.509D+00 0.604D+00
 Coeff:      0.494D-03-0.495D-01-0.643D-01 0.509D+00 0.604D+00
 Gap=     0.410 Goal=   None    Shift=    0.000
 RMSDP=6.82D-08 MaxDP=2.94D-06 DE=-4.70D-10 OVMax= 5.00D-06

 Cycle   6  Pass 1  IDiag  1:
 RMSU=  2.73D-08    CP:  1.00D+00  1.11D+00  1.11D+00  1.34D+00  8.94D-01
 FoFJK:  IHMeth= 1 ICntrl=     0 DoSepK=T KAlg= 1 I1Cent= 0 FoldK=F
 E= -2905.42609360048     Delta-E=       -0.000000000195 Rises=F Damp=F
 DIIS: error= 1.57D-07 at cycle   6 NSaved=   6.
 NSaved= 6 IEnMin= 6 EnMin= -2905.42609360048     IErMin= 6 ErrMin= 1.57D-07
 ErrMax= 1.57D-07 EMaxC= 1.00D-01 BMatC= 8.38D-12 BMatP= 2.86D-10
 IDIUse=1 WtCom= 1.00D+00 WtEn= 0.00D+00
 Coeff-Com:  0.223D-03-0.146D-01-0.273D-01 0.103D+00 0.192D+00 0.747D+00
 Coeff:      0.223D-03-0.146D-01-0.273D-01 0.103D+00 0.192D+00 0.747D+00
 Gap=     0.410 Goal=   None    Shift=    0.000
 RMSDP=1.81D-08 MaxDP=8.33D-07 DE=-1.95D-10 OVMax= 1.38D-06

 Cycle   7  Pass 1  IDiag  1:
 RMSU=  8.63D-09    CP:  1.00D+00  1.11D+00  1.12D+00  1.37D+00  9.66D-01
                    CP:  1.11D+00
 FoFJK:  IHMeth= 1 ICntrl=     0 DoSepK=T KAlg= 1 I1Cent= 0 FoldK=F
 E= -2905.42609360050     Delta-E=       -0.000000000015 Rises=F Damp=F
 DIIS: error= 6.91D-08 at cycle   7 NSaved=   7.
 NSaved= 7 IEnMin= 7 EnMin= -2905.42609360050     IErMin= 7 ErrMin= 6.91D-08
 ErrMax= 6.91D-08 EMaxC= 1.00D-01 BMatC= 1.43D-12 BMatP= 8.38D-12
 IDIUse=1 WtCom= 1.00D+00 WtEn= 0.00D+00
 Coeff-Com: -0.179D-04 0.499D-02 0.262D-02-0.677D-01-0.537D-01 0.274D+00
 Coeff-Com:  0.840D+00
 Coeff:     -0.179D-04 0.499D-02 0.262D-02-0.677D-01-0.537D-01 0.274D+00
 Coeff:      0.840D+00
 Gap=     0.410 Goal=   None    Shift=    0.000
 RMSDP=1.00D-08 MaxDP=4.57D-07 DE=-1.46D-11 OVMax= 7.59D-07

 Cycle   8  Pass 1  IDiag  1:
 RMSU=  2.24D-09    CP:  1.00D+00  1.11D+00  1.12D+00  1.38D+00  1.01D+00
                    CP:  1.27D+00  1.01D+00
 FoFJK:  IHMeth= 1 ICntrl=     0 DoSepK=T KAlg= 1 I1Cent= 0 FoldK=F
 E= -2905.42609360051     Delta-E=       -0.000000000007 Rises=F Damp=F
 DIIS: error= 1.25D-08 at cycle   8 NSaved=   8.
 NSaved= 8 IEnMin= 8 EnMin= -2905.42609360051     IErMin= 8 ErrMin= 1.25D-08
 ErrMax= 1.25D-08 EMaxC= 1.00D-01 BMatC= 2.33D-14 BMatP= 1.43D-12
 IDIUse=1 WtCom= 1.00D+00 WtEn= 0.00D+00
 Coeff-Com: -0.105D-04 0.132D-02 0.123D-02-0.146D-01-0.154D-01 0.210D-01
 Coeff-Com:  0.141D+00 0.865D+00
 Coeff:     -0.105D-04 0.132D-02 0.123D-02-0.146D-01-0.154D-01 0.210D-01
 Coeff:      0.141D+00 0.865D+00
 Gap=     0.410 Goal=   None    Shift=    0.000
 RMSDP=1.29D-09 MaxDP=5.35D-08 DE=-7.28D-12 OVMax= 1.47D-07

 SCF Done:  E(RwB97XD) =  -2905.42609360     A.U. after    8 cycles
             Convg  =    0.1288D-08             -V/T =  2.0015
 KE= 2.900942699570D+03 PE=-7.152532011152D+03 EE= 1.238968771101D+03
 Leave Link  502 at Thu Apr 16 13:52:09 2020, MaxMem= 1073741824 cpu:     152.4
 (Enter /home/matheus/.gaussian/g09/l108.exe)
 Variable Step   Value    
 -------- ---- -----------
     1      20    9.448631
 Leave Link  108 at Thu Apr 16 13:52:09 2020, MaxMem= 1073741824 cpu:       0.0
 (Enter /home/matheus/.gaussian/g09/l202.exe)
 ---------------------------------------------------------------------------------------------------
                            Z-MATRIX (ANGSTROMS AND DEGREES)
   CD    Cent   Atom    N1       Length/X        N2       Alpha/Y        N3        Beta/Z          J
 ---------------------------------------------------------------------------------------------------
      1      1  O        0   0.000000          0.000000          0.725000
      2      2  O        0   0.000000          0.000000         -0.725000
      3      3  H        0  -0.590542          0.703781          1.023510
      4      4  H        0   0.000000          0.918721         -1.023510
      5      5  Kr       0   0.000000          5.000000          0.000000
 ---------------------------------------------------------------------------------------------------
                         Z-Matrix orientation:                         
 ---------------------------------------------------------------------
 Center     Atomic      Atomic             Coordinates (Angstroms)
 Number     Number       Type             X           Y           Z
 ---------------------------------------------------------------------
      1          8           0        0.000000    0.000000    0.725000
      2          8           0        0.000000    0.000000   -0.725000
      3          1           0       -0.590542    0.703781    1.023510
      4          1           0        0.000000    0.918721   -1.023510
      5         36           0        0.000000    5.000000    0.000000
 ---------------------------------------------------------------------
                    Distance matrix (angstroms):
                    1          2          3          4          5
     1  O    0.000000
     2  O    1.450000   0.000000
     3  H    0.966000   1.975180   0.000000
     4  H    1.975180   0.966000   2.141316   0.000000
     5  Kr   5.052289   5.052289   4.455762   4.207661   0.000000
 Stoichiometry    H2KrO2
 Framework group  C1[X(H2KrO2)]
 Deg. of freedom     9
 Full point group                 C1      NOp   1
 RotChk:  IX=0 Diff= 1.31D-04
 Largest Abelian subgroup         C1      NOp   1
 Largest concise Abelian subgroup C1      NOp   1
                         Standard orientation:                         
 ---------------------------------------------------------------------
 Center     Atomic      Atomic             Coordinates (Angstroms)
 Number     Number       Type             X           Y           Z
 ---------------------------------------------------------------------
      1          8           0       -3.363848   -0.719340   -0.071712
      2          8           0       -3.362692    0.728134    0.013834
      3          1           0       -2.663514   -1.052953    0.503953
      4          1           0       -2.443747    1.025099    0.036368
      5         36           0        1.636655   -0.001181   -0.002147
 ---------------------------------------------------------------------
 Rotational constants (GHZ):     26.2266545      0.8493910      0.8236131
 Leave Link  202 at Thu Apr 16 13:52:09 2020, MaxMem= 1073741824 cpu:       0.0
 (Enter /home/matheus/.gaussian/g09/l301.exe)
 Standard basis: Aug-CC-pVTZ (5D, 7F)
 Ernie: Thresh=  0.10000D-02 Tol=  0.10000D-05 Strict=F.
 Ernie:  38 primitive shells out of 205 were deleted.
 There are   197 symmetry adapted basis functions of A   symmetry.
 Integral buffers will be    131072 words long.
 Raffenetti 2 integral format.
 Two-electron integral symmetry is turned on.
   197 basis functions,   415 primitive gaussians,   229 cartesian basis functions
    27 alpha electrons       27 beta electrons
       nuclear repulsion energy       105.7886539400 Hartrees.
 IExCor= 4639 DFT=T Ex+Corr=wB97XD ExCW=0 ScaHFX=  1.000000
 ScaDFX=  1.000000  1.000000  1.000000  1.000000 ScalE2=  1.000000  1.000000
 IRadAn=      5 IRanWt=     -1 IRanGd=            0 ICorTp=0
  HFx wShort=  0.000000 wLong=  0.250000 cFull=  0.222036 cShort=  0.000000 cLong=  0.777964
  DFx wShort=  0.000000 wLong=  0.250000 cFull=  0.000000 cShort=  0.000000 cLong=  1.000000
 NAtoms=    5 NActive=    5 NUniq=    5 SFac= 1.00D+00 NAtFMM=   60 NAOKFM=F Big=F
 R6Disp: Dispersion energy =        -0.0005180513 Hartrees.
 Nuclear repulsion after empirical dispersion term =      105.7881358887 Hartrees.
 Leave Link  301 at Thu Apr 16 13:52:09 2020, MaxMem= 1073741824 cpu:       0.2
 (Enter /home/matheus/.gaussian/g09/l302.exe)
 NPDir=0 NMtPBC=     1 NCelOv=     1 NCel=       1 NClECP=     1 NCelD=      1
         NCelK=      1 NCelE2=     1 NClLst=     1 CellRange=     0.0.
 One-electron integrals computed using PRISM.
 NBasis=   197 RedAO= T  NBF=   197
 NBsUse=   197 1.00D-06 NBFU=   197
 Precomputing XC quadrature grid using
 IXCGrd= 2 IRadAn=           5 IRanWt=          -1 IRanGd=           0 AccXCQ= 0.00D+00.
 NRdTot=     427 NPtTot=      123814 NUsed=      126881 NTot=      126913
 NSgBfM=   228   228   229   229   229 NAtAll=     5     5.
 Leave Link  302 at Thu Apr 16 13:52:10 2020, MaxMem= 1073741824 cpu:       0.9
 (Enter /home/matheus/.gaussian/g09/l303.exe)
 DipDrv:  MaxL=1.
 Leave Link  303 at Thu Apr 16 13:52:10 2020, MaxMem= 1073741824 cpu:       0.2
 (Enter /home/matheus/.gaussian/g09/l401.exe)
 Initial guess read from the read-write file.
 B after Tr=     0.000000    0.000000    0.000000
         Rot=    1.000000    0.000000    0.000000    0.000000 Ang=   0.00 deg.
 Guess basis will be translated and rotated to current coordinates.
 Initial guess orbital symmetries:
       Occupied  (A) (A) (A) (A) (A) (A) (A) (A) (A) (A) (A) (A)
                 (A) (A) (A) (A) (A) (A) (A) (A) (A) (A) (A) (A)
                 (A) (A) (A)
       Virtual   (A) (A) (A) (A) (A) (A) (A) (A) (A) (A) (A) (A)
                 (A) (A) (A) (A) (A) (A) (A) (A) (A) (A) (A) (A)
                 (A) (A) (A) (A) (A) (A) (A) (A) (A) (A) (A) (A)
                 (A) (A) (A) (A) (A) (A) (A) (A) (A) (A) (A) (A)
                 (A) (A) (A) (A) (A) (A) (A) (A) (A) (A) (A) (A)
                 (A) (A) (A) (A) (A) (A) (A) (A) (A) (A) (A) (A)
                 (A) (A) (A) (A) (A) (A) (A) (A) (A) (A) (A) (A)
                 (A) (A) (A) (A) (A) (A) (A) (A) (A) (A) (A) (A)
                 (A) (A) (A) (A) (A) (A) (A) (A) (A) (A) (A) (A)
                 (A) (A) (A) (A) (A) (A) (A) (A) (A) (A) (A) (A)
                 (A) (A) (A) (A) (A) (A) (A) (A) (A) (A) (A) (A)
                 (A) (A) (A) (A) (A) (A) (A) (A) (A) (A) (A) (A)
                 (A) (A) (A) (A) (A) (A) (A) (A) (A) (A) (A) (A)
                 (A) (A) (A) (A) (A) (A) (A) (A) (A) (A) (A) (A)
                 (A) (A)
 The electronic state of the initial guess is 1-A.
 Generating alternative initial guess.
 Harris functional with IExCor= 4639 diagonalized for initial guess.
 ExpMin= 2.53D-02 ExpMax= 1.17D+07 ExpMxC= 1.33D+04 IAcc=3 IRadAn=         5 AccDes= 0.00D+00
 HarFok:  IExCor= 4639 AccDes= 0.00D+00 IRadAn=         5 IDoV= 1
 ScaDFX=  1.000000  1.000000  1.000000  1.000000
 FoFCou: FMM=F IPFlag=           0 FMFlag=      100000 FMFlg1=           0
         NFxFlg=           0 DoJE=T BraDBF=F KetDBF=T FulRan=T
         Omega=  0.000000  0.000000  1.000000  0.000000  0.000000 ICntrl=     500 IOpCl=  0
         NMat0=    1 NMatS0=    1 NMatT0=    0 NMatD0=    1 NMtDS0=    0 NMtDT0=    0
         I1Cent=           4 NGrid=           0.
 Petite list used in FoFCou.
 Harris En= -2875.40303866719    
 Leave Link  401 at Thu Apr 16 13:52:10 2020, MaxMem= 1073741824 cpu:       4.0
 (Enter /home/matheus/.gaussian/g09/l502.exe)
 Closed shell SCF:
 Requested convergence on RMS density matrix=1.00D-08 within 128 cycles.
 Requested convergence on MAX density matrix=1.00D-06.
 Requested convergence on             energy=1.00D-06.
 No special actions if energy rises.
 Using DIIS extrapolation, IDIIS=  1040.
 Integral symmetry usage will be decided dynamically.
       126823 words used for storage of precomputed grid.
 IEnd=      305770 IEndB=      305770 NGot=  1073741824 MDV=  1073505365
 LenX=  1073505365 LenY=  1073452483
 Fock matrices will be formed incrementally for  20 cycles.

 Cycle   1  Pass 1  IDiag  1:
 FoFJK:  IHMeth= 1 ICntrl=     0 DoSepK=T KAlg= 1 I1Cent= 0 FoldK=F
 FoFCou: FMM=F IPFlag=           0 FMFlag=      100000 FMFlg1=           0
         NFxFlg=           0 DoJE=T BraDBF=F KetDBF=F FulRan=T
         Omega=  0.000000  0.000000  1.000000  0.000000  0.000000 ICntrl=     500 IOpCl=  0
         NMat0=    1 NMatS0=    1 NMatT0=    0 NMatD0=    1 NMtDS0=    0 NMtDT0=    0
         I1Cent=           0 NGrid=           0.
 Symmetry not used in FoFCou.
 E= -2905.42603097026    
 DIIS: error= 1.37D-04 at cycle   1 NSaved=   1.
 NSaved= 1 IEnMin= 1 EnMin= -2905.42603097026     IErMin= 1 ErrMin= 1.37D-04
 ErrMax= 1.37D-04 EMaxC= 1.00D-01 BMatC= 3.79D-06 BMatP= 3.79D-06
 IDIUse=3 WtCom= 9.99D-01 WtEn= 1.37D-03
 Coeff-Com:  0.100D+01
 Coeff-En:   0.100D+01
 Coeff:      0.100D+01
 Gap=     0.410 Goal=   None    Shift=    0.000
 RMSDP=1.30D-05 MaxDP=4.28D-04              OVMax= 4.96D-04

 Cycle   2  Pass 1  IDiag  1:
 RMSU=  9.22D-06    CP:  1.00D+00
 FoFJK:  IHMeth= 1 ICntrl=     0 DoSepK=T KAlg= 1 I1Cent= 0 FoldK=F
 E= -2905.42603198513     Delta-E=       -0.000001014864 Rises=F Damp=F
 DIIS: error= 1.87D-05 at cycle   2 NSaved=   2.
 NSaved= 2 IEnMin= 2 EnMin= -2905.42603198513     IErMin= 2 ErrMin= 1.87D-05
 ErrMax= 1.87D-05 EMaxC= 1.00D-01 BMatC= 3.47D-08 BMatP= 3.79D-06
 IDIUse=1 WtCom= 1.00D+00 WtEn= 0.00D+00
 Coeff-Com:  0.220D-02 0.998D+00
 Coeff:      0.220D-02 0.998D+00
 Gap=     0.410 Goal=   None    Shift=    0.000
 RMSDP=1.67D-06 MaxDP=4.22D-05 DE=-1.01D-06 OVMax= 1.03D-04

 Cycle   3  Pass 1  IDiag  1:
 RMSU=  8.52D-07    CP:  1.00D+00  1.09D+00
 FoFJK:  IHMeth= 1 ICntrl=     0 DoSepK=T KAlg= 1 I1Cent= 0 FoldK=F
 E= -2905.42603202416     Delta-E=       -0.000000039034 Rises=F Damp=F
 DIIS: error= 8.24D-06 at cycle   3 NSaved=   3.
 NSaved= 3 IEnMin= 3 EnMin= -2905.42603202416     IErMin= 3 ErrMin= 8.24D-06
 ErrMax= 8.24D-06 EMaxC= 1.00D-01 BMatC= 6.24D-09 BMatP= 3.47D-08
 IDIUse=1 WtCom= 1.00D+00 WtEn= 0.00D+00
 Coeff-Com: -0.609D-02 0.270D+00 0.736D+00
 Coeff:     -0.609D-02 0.270D+00 0.736D+00
 Gap=     0.410 Goal=   None    Shift=    0.000
 RMSDP=3.17D-07 MaxDP=9.79D-06 DE=-3.90D-08 OVMax= 3.35D-05

 Cycle   4  Pass 1  IDiag  1:
 RMSU=  1.99D-07    CP:  1.00D+00  1.10D+00  1.00D+00
 FoFJK:  IHMeth= 1 ICntrl=     0 DoSepK=T KAlg= 1 I1Cent= 0 FoldK=F
 E= -2905.42603203013     Delta-E=       -0.000000005974 Rises=F Damp=F
 DIIS: error= 9.97D-07 at cycle   4 NSaved=   4.
 NSaved= 4 IEnMin= 4 EnMin= -2905.42603203013     IErMin= 4 ErrMin= 9.97D-07
 ErrMax= 9.97D-07 EMaxC= 1.00D-01 BMatC= 3.44D-10 BMatP= 6.24D-09
 IDIUse=1 WtCom= 1.00D+00 WtEn= 0.00D+00
 Coeff-Com: -0.905D-03-0.107D-01 0.948D-01 0.917D+00
 Coeff:     -0.905D-03-0.107D-01 0.948D-01 0.917D+00
 Gap=     0.410 Goal=   None    Shift=    0.000
 RMSDP=1.64D-07 MaxDP=6.72D-06 DE=-5.97D-09 OVMax= 1.21D-05

 Cycle   5  Pass 1  IDiag  1:
 RMSU=  7.13D-08    CP:  1.00D+00  1.10D+00  1.09D+00  1.23D+00
 FoFJK:  IHMeth= 1 ICntrl=     0 DoSepK=T KAlg= 1 I1Cent= 0 FoldK=F
 E= -2905.42603203051     Delta-E=       -0.000000000377 Rises=F Damp=F
 DIIS: error= 9.68D-07 at cycle   5 NSaved=   5.
 NSaved= 5 IEnMin= 5 EnMin= -2905.42603203051     IErMin= 5 ErrMin= 9.68D-07
 ErrMax= 9.68D-07 EMaxC= 1.00D-01 BMatC= 2.18D-10 BMatP= 3.44D-10
 IDIUse=1 WtCom= 1.00D+00 WtEn= 0.00D+00
 Coeff-Com:  0.455D-03-0.487D-01-0.645D-01 0.508D+00 0.605D+00
 Coeff:      0.455D-03-0.487D-01-0.645D-01 0.508D+00 0.605D+00
 Gap=     0.410 Goal=   None    Shift=    0.000
 RMSDP=6.00D-08 MaxDP=2.57D-06 DE=-3.77D-10 OVMax= 4.38D-06

 Cycle   6  Pass 1  IDiag  1:
 RMSU=  2.57D-08    CP:  1.00D+00  1.10D+00  1.11D+00  1.35D+00  9.16D-01
 FoFJK:  IHMeth= 1 ICntrl=     0 DoSepK=T KAlg= 1 I1Cent= 0 FoldK=F
 E= -2905.42603203066     Delta-E=       -0.000000000150 Rises=F Damp=F
 DIIS: error= 1.56D-07 at cycle   6 NSaved=   6.
 NSaved= 6 IEnMin= 6 EnMin= -2905.42603203066     IErMin= 6 ErrMin= 1.56D-07
 ErrMax= 1.56D-07 EMaxC= 1.00D-01 BMatC= 7.38D-12 BMatP= 2.18D-10
 IDIUse=1 WtCom= 1.00D+00 WtEn= 0.00D+00
 Coeff-Com:  0.214D-03-0.152D-01-0.282D-01 0.110D+00 0.205D+00 0.729D+00
 Coeff:      0.214D-03-0.152D-01-0.282D-01 0.110D+00 0.205D+00 0.729D+00
 Gap=     0.410 Goal=   None    Shift=    0.000
 RMSDP=1.64D-08 MaxDP=7.50D-07 DE=-1.50D-10 OVMax= 1.22D-06

 Cycle   7  Pass 1  IDiag  1:
 RMSU=  7.97D-09    CP:  1.00D+00  1.10D+00  1.12D+00  1.37D+00  9.90D-01
                    CP:  1.12D+00
 FoFJK:  IHMeth= 1 ICntrl=     0 DoSepK=T KAlg= 1 I1Cent= 0 FoldK=F
 E= -2905.42603203067     Delta-E=       -0.000000000006 Rises=F Damp=F
 DIIS: error= 5.87D-08 at cycle   7 NSaved=   7.
 NSaved= 7 IEnMin= 7 EnMin= -2905.42603203067     IErMin= 7 ErrMin= 5.87D-08
 ErrMax= 5.87D-08 EMaxC= 1.00D-01 BMatC= 1.17D-12 BMatP= 7.38D-12
 IDIUse=1 WtCom= 1.00D+00 WtEn= 0.00D+00
 Coeff-Com: -0.156D-04 0.485D-02 0.269D-02-0.673D-01-0.521D-01 0.264D+00
 Coeff-Com:  0.848D+00
 Coeff:     -0.156D-04 0.485D-02 0.269D-02-0.673D-01-0.521D-01 0.264D+00
 Coeff:      0.848D+00
 Gap=     0.410 Goal=   None    Shift=    0.000
 RMSDP=9.24D-09 MaxDP=4.31D-07 DE=-6.37D-12 OVMax= 6.96D-07

 SCF Done:  E(RwB97XD) =  -2905.42603203     A.U. after    7 cycles
             Convg  =    0.9243D-08             -V/T =  2.0015
 KE= 2.900943222404D+03 PE=-7.149738237879D+03 EE= 1.237580847556D+03
 Leave Link  502 at Thu Apr 16 13:52:27 2020, MaxMem= 1073741824 cpu:     133.6
 (Enter /home/matheus/.gaussian/g09/l108.exe)
 Scan completed.

 Summary of the potential surface scan:
   N      R1          SCF    
 ----  ---------  -----------
    1     3.0000  -2905.42150
    2     3.1000  -2905.42373
    3     3.2000  -2905.42520
    4     3.3000  -2905.42615
    5     3.4000  -2905.42673
    6     3.5000  -2905.42706
    7     3.6000  -2905.42721
    8     3.7000  -2905.42724
    9     3.8000  -2905.42720
   10     3.9000  -2905.42711
   11     4.0000  -2905.42700
   12     4.1000  -2905.42688
   13     4.2000  -2905.42676
   14     4.3000  -2905.42664
   15     4.4000  -2905.42653
   16     4.5000  -2905.42642
   17     4.6000  -2905.42633
   18     4.7000  -2905.42624
   19     4.8000  -2905.42616
   20     4.9000  -2905.42609
   21     5.0000  -2905.42603
 ----  ---------  -----------
  
 Leave Link  108 at Thu Apr 16 13:52:27 2020, MaxMem= 1073741824 cpu:       0.0
 (Enter /home/matheus/.gaussian/g09/l9999.exe)

 Test job not archived.
 1\1\GINC-REDGIANT\Scan\RwB97XD\Aug-CC-pVTZ\H2Kr1O2\ROOT\16-Apr-2020\1\
 \#p wb97xd/aug-cc-PVTz iop(3/107=0250000000) iop(3/108=0250000000) int
 =ultrafine Scan\\TCC\\0,1\O,0,0.,0.,0.725\O,0,0.,0.,-0.725\H,0,-0.5905
 422151,0.7037808064,1.0235104166\H,0,0.,0.9187205947,-1.0235104166\Kr,
 0,0.,R1,0.\\R1=3.,s,20,0.1\\Version=EM64L-G09RevC.01\State=1-A\HF=-290
 5.4215012,-2905.4237252,-2905.4251992,-2905.4261518,-2905.4267307,-290
 5.4270574,-2905.4272077,-2905.4272406,-2905.4272027,-2905.4271147,-290
 5.4270031,-2905.4268818,-2905.426759,-2905.4266372,-2905.4265256,-2905
 .4264223,-2905.4263254,-2905.4262391,-2905.4261629,-2905.4260936,-2905
 .426032\RMSD=4.879e-09,8.775e-09,6.798e-09,5.214e-09,9.955e-09,2.986e-
 09,9.476e-09,8.539e-09,7.566e-09,6.553e-09,5.595e-09,4.860e-09,4.098e-
 09,3.298e-09,2.562e-09,2.122e-09,1.710e-09,1.495e-09,1.366e-09,1.288e-
 09,9.243e-09\PG=C01 [X(H2Kr1O2)]\\@


 BE LIKE A POSTAGE STAMP.  STICK TO ONE THING UNTIL
 YOU GET THERE -- JOSH BILLINGS
 Job cpu time:  0 days  1 hours  4 minutes 58.6 seconds.
 File lengths (MBytes):  RWF=     27 Int=      0 D2E=      0 Chk=      4 Scr=      1
 Normal termination of Gaussian 09 at Thu Apr 16 13:52:27 2020.
