 Entering Gaussian System, Link 0=g09
 Input=/home/matheus/.tcc/Inputs-wb97xd/H2O2-Kr_30.com
 Output=/home/matheus/.tcc/Logs-wb97xd/H2O2-Kr_30.log
 Initial command:
 /home/matheus/.gaussian/g09/l1.exe /home/matheus/.gaussian/g09/scratch/Gau-28195.inp -scrdir=/home/matheus/.gaussian/g09/scratch/
 Entering Link 1 = /home/matheus/.gaussian/g09/l1.exe PID=     28198.
  
 Copyright (c) 1988,1990,1992,1993,1995,1998,2003,2009,2011,
            Gaussian, Inc.  All Rights Reserved.
  
 This is part of the Gaussian(R) 09 program.  It is based on
 the Gaussian(R) 03 system (copyright 2003, Gaussian, Inc.),
 the Gaussian(R) 98 system (copyright 1998, Gaussian, Inc.),
 the Gaussian(R) 94 system (copyright 1995, Gaussian, Inc.),
 the Gaussian 92(TM) system (copyright 1992, Gaussian, Inc.),
 the Gaussian 90(TM) system (copyright 1990, Gaussian, Inc.),
 the Gaussian 88(TM) system (copyright 1988, Gaussian, Inc.),
 the Gaussian 86(TM) system (copyright 1986, Carnegie Mellon
 University), and the Gaussian 82(TM) system (copyright 1983,
 Carnegie Mellon University). Gaussian is a federally registered
 trademark of Gaussian, Inc.
  
 This software contains proprietary and confidential information,
 including trade secrets, belonging to Gaussian, Inc.
  
 This software is provided under written license and may be
 used, copied, transmitted, or stored only in accord with that
 written license.
  
 The following legend is applicable only to US Government
 contracts under FAR:
  
                    RESTRICTED RIGHTS LEGEND
  
 Use, reproduction and disclosure by the US Government is
 subject to restrictions as set forth in subparagraphs (a)
 and (c) of the Commercial Computer Software - Restricted
 Rights clause in FAR 52.227-19.
  
 Gaussian, Inc.
 340 Quinnipiac St., Bldg. 40, Wallingford CT 06492
  
  
 ---------------------------------------------------------------
 Warning -- This program may not be used in any manner that
 competes with the business of Gaussian, Inc. or will provide
 assistance to any competitor of Gaussian, Inc.  The licensee
 of this program is prohibited from giving any competitor of
 Gaussian, Inc. access to this program.  By using this program,
 the user acknowledges that Gaussian, Inc. is engaged in the
 business of creating and licensing software in the field of
 computational chemistry and represents and warrants to the
 licensee that it is not a competitor of Gaussian, Inc. and that
 it will not use this program in any manner prohibited above.
 ---------------------------------------------------------------
  

 Cite this work as:
 Gaussian 09, Revision C.01,
 M. J. Frisch, G. W. Trucks, H. B. Schlegel, G. E. Scuseria, 
 M. A. Robb, J. R. Cheeseman, G. Scalmani, V. Barone, B. Mennucci, 
 G. A. Petersson, H. Nakatsuji, M. Caricato, X. Li, H. P. Hratchian, 
 A. F. Izmaylov, J. Bloino, G. Zheng, J. L. Sonnenberg, M. Hada, 
 M. Ehara, K. Toyota, R. Fukuda, J. Hasegawa, M. Ishida, T. Nakajima, 
 Y. Honda, O. Kitao, H. Nakai, T. Vreven, J. A. Montgomery, Jr., 
 J. E. Peralta, F. Ogliaro, M. Bearpark, J. J. Heyd, E. Brothers, 
 K. N. Kudin, V. N. Staroverov, T. Keith, R. Kobayashi, J. Normand, 
 K. Raghavachari, A. Rendell, J. C. Burant, S. S. Iyengar, J. Tomasi, 
 M. Cossi, N. Rega, J. M. Millam, M. Klene, J. E. Knox, J. B. Cross, 
 V. Bakken, C. Adamo, J. Jaramillo, R. Gomperts, R. E. Stratmann, 
 O. Yazyev, A. J. Austin, R. Cammi, C. Pomelli, J. W. Ochterski, 
 R. L. Martin, K. Morokuma, V. G. Zakrzewski, G. A. Voth, 
 P. Salvador, J. J. Dannenberg, S. Dapprich, A. D. Daniels, 
 O. Farkas, J. B. Foresman, J. V. Ortiz, J. Cioslowski, 
 and D. J. Fox, Gaussian, Inc., Wallingford CT, 2010.
 
 ******************************************
 Gaussian 09:  EM64L-G09RevC.01 23-Sep-2011
                16-Apr-2020 
 ******************************************
 %mem=8GB
 %nproc=8
 Will use up to    8 processors via shared memory.
 ----------------------------------------------------------------------
 #p wb97xd/aug-cc-PVTz iop(3/107=0250000000) iop(3/108=0250000000) int=
 ultrafine Scan
 ----------------------------------------------------------------------
 1/38=1,60=1/1,8;
 2/12=2,17=6,18=5,29=3,40=1/2;
 3/5=16,6=1,7=10,11=2,16=1,25=1,30=1,74=-58,75=-5,107=250000000,108=250000000/1,2,3;
 4//1;
 5/5=2,38=5/2;
 6/7=2,8=2,9=2,10=2,18=1,28=1/1;
 1/60=1/8(1);
 99/9=1/99;
 2/29=3/2;
 3/5=16,6=1,7=10,11=2,16=1,25=1,30=1,74=-58,75=-5,107=250000000,108=250000000/1,2,3;
 4/5=5,16=3/1;
 5/5=2,38=5/2;
 1/60=1/8(-4);
 99/9=1/99;
 Leave Link    1 at Thu Apr 16 13:28:07 2020, MaxMem= 1073741824 cpu:       0.1
 (Enter /home/matheus/.gaussian/g09/l101.exe)
 ---
 TCC
 ---
 Charge =  0 Multiplicity = 1
 Symbolic Z-Matrix:
 O                     0.        0.        0.725 
 O                     0.        0.       -0.725 
 H                    -0.79564   0.45936   1.02351 
 H                     0.        0.91872  -1.02351 
 Kr                    0.       R1        0. 
       Variables:
  R1                    3.     Scan 20    0.1    
 
 NAtoms=      5 NQM=        0 NQMF=       0 NMMI=      5 NMMIF=      0
                NMic=       0 NMicF=      0.
                    Isotopes and Nuclear Properties:
 (Nuclear quadrupole moments (NQMom) in fm**2, nuclear magnetic moments (NMagM)
  in nuclear magnetons)

  Atom         1           2           3           4           5
 IAtWgt=          16          16           1           1          84
 AtmWgt=  15.9949146  15.9949146   1.0078250   1.0078250  83.9115064
 NucSpn=           0           0           1           1           0
 AtZEff=   0.0000000   0.0000000   0.0000000   0.0000000   0.0000000
 NQMom=    0.0000000   0.0000000   0.0000000   0.0000000   0.0000000
 NMagM=    0.0000000   0.0000000   2.7928460   2.7928460   0.0000000
 Leave Link  101 at Thu Apr 16 13:28:07 2020, MaxMem= 1073741824 cpu:       0.3
 (Enter /home/matheus/.gaussian/g09/l108.exe)
 Scan the potential surface.
 Variable   Value     No. Steps Step-Size
 -------- ----------- --------- ---------
     1       3.000000      20      0.1000
 A total of     21 points will be computed.
 Leave Link  108 at Thu Apr 16 13:28:07 2020, MaxMem= 1073741824 cpu:       0.0
 (Enter /home/matheus/.gaussian/g09/l202.exe)
 ---------------------------------------------------------------------------------------------------
                            Z-MATRIX (ANGSTROMS AND DEGREES)
   CD    Cent   Atom    N1       Length/X        N2       Alpha/Y        N3        Beta/Z          J
 ---------------------------------------------------------------------------------------------------
      1      1  O        0   0.000000          0.000000          0.725000
      2      2  O        0   0.000000          0.000000         -0.725000
      3      3  H        0  -0.795635          0.459360          1.023510
      4      4  H        0   0.000000          0.918721         -1.023510
      5      5  Kr       0   0.000000          3.000000          0.000000
 ---------------------------------------------------------------------------------------------------
                         Z-Matrix orientation:                         
 ---------------------------------------------------------------------
 Center     Atomic      Atomic             Coordinates (Angstroms)
 Number     Number       Type             X           Y           Z
 ---------------------------------------------------------------------
      1          8           0        0.000000    0.000000    0.725000
      2          8           0        0.000000    0.000000   -0.725000
      3          1           0       -0.795635    0.459360    1.023510
      4          1           0        0.000000    0.918721   -1.023510
      5         36           0        0.000000    3.000000    0.000000
 ---------------------------------------------------------------------
                    Distance matrix (angstroms):
                    1          2          3          4          5
     1  O    0.000000
     2  O    1.450000   0.000000
     3  H    0.966000   1.975180   0.000000
     4  H    1.975180   0.966000   2.243734   0.000000
     5  Kr   3.086361   3.086361   2.852273   2.319331   0.000000
 Stoichiometry    H2KrO2
 Framework group  C1[X(H2KrO2)]
 Deg. of freedom     9
 Full point group                 C1      NOp   1
 Largest Abelian subgroup         C1      NOp   1
 Largest concise Abelian subgroup C1      NOp   1
                         Standard orientation:                         
 ---------------------------------------------------------------------
 Center     Atomic      Atomic             Coordinates (Angstroms)
 Number     Number       Type             X           Y           Z
 ---------------------------------------------------------------------
      1          8           0       -2.028906   -0.709015   -0.097019
      2          8           0       -2.021423    0.736213    0.020285
      3          1           0       -1.580792   -1.073669    0.677176
      4          1           0       -1.101242    1.028113    0.055175
      5         36           0        0.974574   -0.004779   -0.003291
 ---------------------------------------------------------------------
 Rotational constants (GHZ):     25.8520084      2.3670759      2.1795084
 Leave Link  202 at Thu Apr 16 13:28:07 2020, MaxMem= 1073741824 cpu:       0.0
 (Enter /home/matheus/.gaussian/g09/l301.exe)
 Standard basis: Aug-CC-pVTZ (5D, 7F)
 Ernie: Thresh=  0.10000D-02 Tol=  0.10000D-05 Strict=F.
 Ernie:  38 primitive shells out of 205 were deleted.
 There are   197 symmetry adapted basis functions of A   symmetry.
 Integral buffers will be    131072 words long.
 Raffenetti 2 integral format.
 Two-electron integral symmetry is turned on.
   197 basis functions,   415 primitive gaussians,   229 cartesian basis functions
    27 alpha electrons       27 beta electrons
       nuclear repulsion energy       150.2958872335 Hartrees.
 IExCor= 4639 DFT=T Ex+Corr=wB97XD ExCW=0 ScaHFX=  1.000000
 ScaDFX=  1.000000  1.000000  1.000000  1.000000 ScalE2=  1.000000  1.000000
 IRadAn=      5 IRanWt=     -1 IRanGd=            0 ICorTp=0
  HFx wShort=  0.000000 wLong=  0.250000 cFull=  0.222036 cShort=  0.000000 cLong=  0.777964
  DFx wShort=  0.000000 wLong=  0.250000 cFull=  0.000000 cShort=  0.000000 cLong=  1.000000
 NAtoms=    5 NActive=    5 NUniq=    5 SFac= 1.00D+00 NAtFMM=   60 NAOKFM=F Big=F
 R6Disp: Dispersion energy =        -0.0009174342 Hartrees.
 Nuclear repulsion after empirical dispersion term =      150.2949697994 Hartrees.
 Leave Link  301 at Thu Apr 16 13:28:07 2020, MaxMem= 1073741824 cpu:       0.2
 (Enter /home/matheus/.gaussian/g09/l302.exe)
 NPDir=0 NMtPBC=     1 NCelOv=     1 NCel=       1 NClECP=     1 NCelD=      1
         NCelK=      1 NCelE2=     1 NClLst=     1 CellRange=     0.0.
 One-electron integrals computed using PRISM.
 NBasis=   197 RedAO= T  NBF=   197
 NBsUse=   197 1.00D-06 NBFU=   197
 Precomputing XC quadrature grid using
 IXCGrd= 2 IRadAn=           5 IRanWt=          -1 IRanGd=           0 AccXCQ= 0.00D+00.
 NRdTot=     427 NPtTot=      123512 NUsed=      126579 NTot=      126611
 NSgBfM=   229   229   229   229   229 NAtAll=     5     5.
 Leave Link  302 at Thu Apr 16 13:28:07 2020, MaxMem= 1073741824 cpu:       1.1
 (Enter /home/matheus/.gaussian/g09/l303.exe)
 DipDrv:  MaxL=1.
 Leave Link  303 at Thu Apr 16 13:28:07 2020, MaxMem= 1073741824 cpu:       0.2
 (Enter /home/matheus/.gaussian/g09/l401.exe)
 Harris functional with IExCor= 4639 diagonalized for initial guess.
 ExpMin= 2.53D-02 ExpMax= 1.17D+07 ExpMxC= 1.33D+04 IAcc=3 IRadAn=         5 AccDes= 0.00D+00
 HarFok:  IExCor= 4639 AccDes= 0.00D+00 IRadAn=         5 IDoV= 1
 ScaDFX=  1.000000  1.000000  1.000000  1.000000
 FoFCou: FMM=F IPFlag=           0 FMFlag=      100000 FMFlg1=           0
         NFxFlg=           0 DoJE=T BraDBF=F KetDBF=T FulRan=T
         Omega=  0.000000  0.000000  1.000000  0.000000  0.000000 ICntrl=     500 IOpCl=  0
         NMat0=    1 NMatS0=    1 NMatT0=    0 NMatD0=    1 NMtDS0=    0 NMtDT0=    0
         I1Cent=           4 NGrid=           0.
 Petite list used in FoFCou.
 Harris En= -2875.39510699427    
 Initial guess orbital symmetries:
       Occupied  (A) (A) (A) (A) (A) (A) (A) (A) (A) (A) (A) (A)
                 (A) (A) (A) (A) (A) (A) (A) (A) (A) (A) (A) (A)
                 (A) (A) (A)
       Virtual   (A) (A) (A) (A) (A) (A) (A) (A) (A) (A) (A) (A)
                 (A) (A) (A) (A) (A) (A) (A) (A) (A) (A) (A) (A)
                 (A) (A) (A) (A) (A) (A) (A) (A) (A) (A) (A) (A)
                 (A) (A) (A) (A) (A) (A) (A) (A) (A) (A) (A) (A)
                 (A) (A) (A) (A) (A) (A) (A) (A) (A) (A) (A) (A)
                 (A) (A) (A) (A) (A) (A) (A) (A) (A) (A) (A) (A)
                 (A) (A) (A) (A) (A) (A) (A) (A) (A) (A) (A) (A)
                 (A) (A) (A) (A) (A) (A) (A) (A) (A) (A) (A) (A)
                 (A) (A) (A) (A) (A) (A) (A) (A) (A) (A) (A) (A)
                 (A) (A) (A) (A) (A) (A) (A) (A) (A) (A) (A) (A)
                 (A) (A) (A) (A) (A) (A) (A) (A) (A) (A) (A) (A)
                 (A) (A) (A) (A) (A) (A) (A) (A) (A) (A) (A) (A)
                 (A) (A) (A) (A) (A) (A) (A) (A) (A) (A) (A) (A)
                 (A) (A) (A) (A) (A) (A) (A) (A) (A) (A) (A) (A)
                 (A) (A)
 The electronic state of the initial guess is 1-A.
 Leave Link  401 at Thu Apr 16 13:28:08 2020, MaxMem= 1073741824 cpu:       3.8
 (Enter /home/matheus/.gaussian/g09/l502.exe)
 Closed shell SCF:
 Requested convergence on RMS density matrix=1.00D-08 within 128 cycles.
 Requested convergence on MAX density matrix=1.00D-06.
 Requested convergence on             energy=1.00D-06.
 No special actions if energy rises.
 Using DIIS extrapolation, IDIIS=  1040.
 Integral symmetry usage will be decided dynamically.
       126521 words used for storage of precomputed grid.
 IEnd=      305468 IEndB=      305468 NGot=  1073741824 MDV=  1073505667
 LenX=  1073505667 LenY=  1073452785
 Fock matrices will be formed incrementally for  20 cycles.

 Cycle   1  Pass 1  IDiag  1:
 FoFJK:  IHMeth= 1 ICntrl=     0 DoSepK=T KAlg= 1 I1Cent= 0 FoldK=F
 FoFCou: FMM=F IPFlag=           0 FMFlag=      100000 FMFlg1=           0
         NFxFlg=           0 DoJE=T BraDBF=F KetDBF=F FulRan=T
         Omega=  0.000000  0.000000  1.000000  0.000000  0.000000 ICntrl=     500 IOpCl=  0
         NMat0=    1 NMatS0=    1 NMatT0=    0 NMatD0=    1 NMtDS0=    0 NMtDT0=    0
         I1Cent=           0 NGrid=           0.
 Symmetry not used in FoFCou.
 E= -2904.89882162876    
 DIIS: error= 7.33D-02 at cycle   1 NSaved=   1.
 NSaved= 1 IEnMin= 1 EnMin= -2904.89882162876     IErMin= 1 ErrMin= 7.33D-02
 ErrMax= 7.33D-02 EMaxC= 1.00D-01 BMatC= 2.22D+00 BMatP= 2.22D+00
 IDIUse=3 WtCom= 2.67D-01 WtEn= 7.33D-01
 Coeff-Com:  0.100D+01
 Coeff-En:   0.100D+01
 Coeff:      0.100D+01
 Gap=     0.543 Goal=   None    Shift=    0.000
 GapD=    0.543 DampG=2.000 DampE=0.500 DampFc=1.0000 IDamp=-1.
 RMSDP=6.17D-03 MaxDP=3.70D-01              OVMax= 1.82D-01

 Cycle   2  Pass 1  IDiag  1:
 RMSU=  4.33D-03    CP:  1.03D+00
 FoFJK:  IHMeth= 1 ICntrl=     0 DoSepK=T KAlg= 1 I1Cent= 0 FoldK=F
 E= -2905.22223020332     Delta-E=       -0.323408574558 Rises=F Damp=F
 DIIS: error= 3.08D-02 at cycle   2 NSaved=   2.
 NSaved= 2 IEnMin= 2 EnMin= -2905.22223020332     IErMin= 2 ErrMin= 3.08D-02
 ErrMax= 3.08D-02 EMaxC= 1.00D-01 BMatC= 5.64D-01 BMatP= 2.22D+00
 IDIUse=3 WtCom= 6.92D-01 WtEn= 3.08D-01
 Coeff-Com:  0.327D+00 0.673D+00
 Coeff-En:   0.194D+00 0.806D+00
 Coeff:      0.286D+00 0.714D+00
 Gap=     0.490 Goal=   None    Shift=    0.000
 RMSDP=2.69D-03 MaxDP=1.58D-01 DE=-3.23D-01 OVMax= 7.41D-02

 Cycle   3  Pass 1  IDiag  1:
 RMSU=  5.67D-04    CP:  1.02D+00  5.83D-01
 FoFJK:  IHMeth= 1 ICntrl=     0 DoSepK=T KAlg= 1 I1Cent= 0 FoldK=F
 E= -2905.41519436139     Delta-E=       -0.192964158070 Rises=F Damp=F
 DIIS: error= 5.33D-03 at cycle   3 NSaved=   3.
 NSaved= 3 IEnMin= 3 EnMin= -2905.41519436139     IErMin= 3 ErrMin= 5.33D-03
 ErrMax= 5.33D-03 EMaxC= 1.00D-01 BMatC= 1.84D-02 BMatP= 5.64D-01
 IDIUse=3 WtCom= 9.47D-01 WtEn= 5.33D-02
 Coeff-Com:  0.335D-01 0.188D+00 0.778D+00
 Coeff-En:   0.000D+00 0.000D+00 0.100D+01
 Coeff:      0.317D-01 0.178D+00 0.790D+00
 Gap=     0.439 Goal=   None    Shift=    0.000
 RMSDP=4.85D-04 MaxDP=1.83D-02 DE=-1.93D-01 OVMax= 2.60D-02

 Cycle   4  Pass 1  IDiag  1:
 RMSU=  2.33D-04    CP:  1.02D+00  6.39D-01  9.12D-01
 FoFJK:  IHMeth= 1 ICntrl=     0 DoSepK=T KAlg= 1 I1Cent= 0 FoldK=F
 E= -2905.42354430448     Delta-E=       -0.008349943090 Rises=F Damp=F
 DIIS: error= 2.20D-03 at cycle   4 NSaved=   4.
 NSaved= 4 IEnMin= 4 EnMin= -2905.42354430448     IErMin= 4 ErrMin= 2.20D-03
 ErrMax= 2.20D-03 EMaxC= 1.00D-01 BMatC= 1.77D-03 BMatP= 1.84D-02
 IDIUse=3 WtCom= 9.78D-01 WtEn= 2.20D-02
 Coeff-Com: -0.256D-02 0.486D-01 0.369D+00 0.585D+00
 Coeff-En:   0.000D+00 0.000D+00 0.000D+00 0.100D+01
 Coeff:     -0.250D-02 0.475D-01 0.361D+00 0.594D+00
 Gap=     0.424 Goal=   None    Shift=    0.000
 RMSDP=1.23D-04 MaxDP=6.70D-03 DE=-8.35D-03 OVMax= 6.65D-03

 Cycle   5  Pass 1  IDiag  1:
 RMSU=  4.04D-05    CP:  1.02D+00  6.37D-01  9.54D-01  6.93D-01
 FoFJK:  IHMeth= 1 ICntrl=     0 DoSepK=T KAlg= 1 I1Cent= 0 FoldK=F
 E= -2905.42461974761     Delta-E=       -0.001075443134 Rises=F Damp=F
 DIIS: error= 1.81D-04 at cycle   5 NSaved=   5.
 NSaved= 5 IEnMin= 5 EnMin= -2905.42461974761     IErMin= 5 ErrMin= 1.81D-04
 ErrMax= 1.81D-04 EMaxC= 1.00D-01 BMatC= 1.47D-05 BMatP= 1.77D-03
 IDIUse=3 WtCom= 9.98D-01 WtEn= 1.81D-03
 Coeff-Com: -0.120D-02 0.524D-02 0.593D-01 0.113D+00 0.823D+00
 Coeff-En:   0.000D+00 0.000D+00 0.000D+00 0.000D+00 0.100D+01
 Coeff:     -0.120D-02 0.523D-02 0.592D-01 0.113D+00 0.824D+00
 Gap=     0.423 Goal=   None    Shift=    0.000
 RMSDP=2.21D-05 MaxDP=9.39D-04 DE=-1.08D-03 OVMax= 1.32D-03

 Cycle   6  Pass 1  IDiag  1:
 RMSU=  1.26D-05    CP:  1.02D+00  6.37D-01  9.65D-01  7.09D-01  1.15D+00
 FoFJK:  IHMeth= 1 ICntrl=     0 DoSepK=T KAlg= 1 I1Cent= 0 FoldK=F
 E= -2905.42462699710     Delta-E=       -0.000007249488 Rises=F Damp=F
 DIIS: error= 1.59D-04 at cycle   6 NSaved=   6.
 NSaved= 6 IEnMin= 6 EnMin= -2905.42462699710     IErMin= 6 ErrMin= 1.59D-04
 ErrMax= 1.59D-04 EMaxC= 1.00D-01 BMatC= 1.01D-05 BMatP= 1.47D-05
 IDIUse=3 WtCom= 9.98D-01 WtEn= 1.59D-03
 Coeff-Com: -0.267D-03-0.578D-02-0.309D-01-0.409D-01 0.480D+00 0.598D+00
 Coeff-En:   0.000D+00 0.000D+00 0.000D+00 0.000D+00 0.238D+00 0.762D+00
 Coeff:     -0.266D-03-0.577D-02-0.308D-01-0.409D-01 0.479D+00 0.598D+00
 Gap=     0.423 Goal=   None    Shift=    0.000
 RMSDP=1.08D-05 MaxDP=4.33D-04 DE=-7.25D-06 OVMax= 7.35D-04

 Cycle   7  Pass 1  IDiag  1:
 RMSU=  3.64D-06    CP:  1.02D+00  6.37D-01  9.70D-01  7.15D-01  1.27D+00
                    CP:  7.38D-01
 FoFJK:  IHMeth= 1 ICntrl=     0 DoSepK=T KAlg= 1 I1Cent= 0 FoldK=F
 E= -2905.42463407035     Delta-E=       -0.000007073251 Rises=F Damp=F
 DIIS: error= 2.32D-05 at cycle   7 NSaved=   7.
 NSaved= 7 IEnMin= 7 EnMin= -2905.42463407035     IErMin= 7 ErrMin= 2.32D-05
 ErrMax= 2.32D-05 EMaxC= 1.00D-01 BMatC= 1.24D-07 BMatP= 1.01D-05
 IDIUse=1 WtCom= 1.00D+00 WtEn= 0.00D+00
 Coeff-Com:  0.230D-04-0.138D-02-0.931D-02-0.138D-01 0.128D-01 0.988D-01
 Coeff-Com:  0.913D+00
 Coeff:      0.230D-04-0.138D-02-0.931D-02-0.138D-01 0.128D-01 0.988D-01
 Coeff:      0.913D+00
 Gap=     0.423 Goal=   None    Shift=    0.000
 RMSDP=2.60D-06 MaxDP=7.77D-05 DE=-7.07D-06 OVMax= 2.05D-04

 Cycle   8  Pass 1  IDiag  1:
 RMSU=  8.69D-07    CP:  1.02D+00  6.37D-01  9.71D-01  7.16D-01  1.29D+00
                    CP:  8.03D-01  1.18D+00
 FoFJK:  IHMeth= 1 ICntrl=     0 DoSepK=T KAlg= 1 I1Cent= 0 FoldK=F
 E= -2905.42463426855     Delta-E=       -0.000000198197 Rises=F Damp=F
 DIIS: error= 5.43D-06 at cycle   8 NSaved=   8.
 NSaved= 8 IEnMin= 8 EnMin= -2905.42463426855     IErMin= 8 ErrMin= 5.43D-06
 ErrMax= 5.43D-06 EMaxC= 1.00D-01 BMatC= 5.92D-09 BMatP= 1.24D-07
 IDIUse=1 WtCom= 1.00D+00 WtEn= 0.00D+00
 Coeff-Com:  0.181D-04 0.247D-03 0.119D-02 0.127D-02-0.290D-01-0.297D-01
 Coeff-Com:  0.341D-01 0.102D+01
 Coeff:      0.181D-04 0.247D-03 0.119D-02 0.127D-02-0.290D-01-0.297D-01
 Coeff:      0.341D-01 0.102D+01
 Gap=     0.423 Goal=   None    Shift=    0.000
 RMSDP=8.21D-07 MaxDP=2.03D-05 DE=-1.98D-07 OVMax= 8.51D-05

 Cycle   9  Pass 1  IDiag  1:
 RMSU=  2.75D-07    CP:  1.02D+00  6.37D-01  9.71D-01  7.16D-01  1.30D+00
                    CP:  8.16D-01  1.26D+00  1.31D+00
 FoFJK:  IHMeth= 1 ICntrl=     0 DoSepK=T KAlg= 1 I1Cent= 0 FoldK=F
 E= -2905.42463428525     Delta-E=       -0.000000016703 Rises=F Damp=F
 DIIS: error= 1.89D-06 at cycle   9 NSaved=   9.
 NSaved= 9 IEnMin= 9 EnMin= -2905.42463428525     IErMin= 9 ErrMin= 1.89D-06
 ErrMax= 1.89D-06 EMaxC= 1.00D-01 BMatC= 5.19D-10 BMatP= 5.92D-09
 IDIUse=1 WtCom= 1.00D+00 WtEn= 0.00D+00
 Coeff-Com: -0.173D-05 0.881D-04 0.601D-03 0.675D-03-0.214D-03-0.431D-02
 Coeff-Com: -0.537D-01-0.677D-01 0.112D+01
 Coeff:     -0.173D-05 0.881D-04 0.601D-03 0.675D-03-0.214D-03-0.431D-02
 Coeff:     -0.537D-01-0.677D-01 0.112D+01
 Gap=     0.423 Goal=   None    Shift=    0.000
 RMSDP=2.81D-07 MaxDP=7.74D-06 DE=-1.67D-08 OVMax= 3.45D-05

 Cycle  10  Pass 1  IDiag  1:
 RMSU=  8.63D-08    CP:  1.02D+00  6.37D-01  9.71D-01  7.16D-01  1.30D+00
                    CP:  8.18D-01  1.27D+00  1.43D+00  1.38D+00
 FoFJK:  IHMeth= 1 ICntrl=     0 DoSepK=T KAlg= 1 I1Cent= 0 FoldK=F
 E= -2905.42463428698     Delta-E=       -0.000000001732 Rises=F Damp=F
 DIIS: error= 4.26D-07 at cycle  10 NSaved=  10.
 NSaved=10 IEnMin=10 EnMin= -2905.42463428698     IErMin=10 ErrMin= 4.26D-07
 ErrMax= 4.26D-07 EMaxC= 1.00D-01 BMatC= 5.49D-11 BMatP= 5.19D-10
 IDIUse=1 WtCom= 1.00D+00 WtEn= 0.00D+00
 Coeff-Com: -0.107D-05-0.127D-04-0.588D-04-0.646D-04 0.249D-02 0.263D-02
 Coeff-Com: -0.272D-02-0.116D+00 0.135D+00 0.978D+00
 Coeff:     -0.107D-05-0.127D-04-0.588D-04-0.646D-04 0.249D-02 0.263D-02
 Coeff:     -0.272D-02-0.116D+00 0.135D+00 0.978D+00
 Gap=     0.423 Goal=   None    Shift=    0.000
 RMSDP=8.06D-08 MaxDP=1.60D-06 DE=-1.73D-09 OVMax= 1.06D-05

 Cycle  11  Pass 1  IDiag  1:
 RMSU=  2.16D-08    CP:  1.02D+00  6.37D-01  9.71D-01  7.16D-01  1.30D+00
                    CP:  8.18D-01  1.27D+00  1.45D+00  1.53D+00  1.26D+00
 FoFJK:  IHMeth= 1 ICntrl=     0 DoSepK=T KAlg= 1 I1Cent= 0 FoldK=F
 E= -2905.42463428715     Delta-E=       -0.000000000162 Rises=F Damp=F
 DIIS: error= 1.33D-07 at cycle  11 NSaved=  11.
 NSaved=11 IEnMin=11 EnMin= -2905.42463428715     IErMin=11 ErrMin= 1.33D-07
 ErrMax= 1.33D-07 EMaxC= 1.00D-01 BMatC= 4.40D-12 BMatP= 5.49D-11
 IDIUse=1 WtCom= 1.00D+00 WtEn= 0.00D+00
 Coeff-Com:  0.464D-06-0.567D-05-0.469D-04-0.313D-04-0.346D-03 0.411D-04
 Coeff-Com:  0.619D-02 0.125D-01-0.105D+00-0.115D+00 0.120D+01
 Coeff:      0.464D-06-0.567D-05-0.469D-04-0.313D-04-0.346D-03 0.411D-04
 Coeff:      0.619D-02 0.125D-01-0.105D+00-0.115D+00 0.120D+01
 Gap=     0.423 Goal=   None    Shift=    0.000
 RMSDP=2.78D-08 MaxDP=5.41D-07 DE=-1.62D-10 OVMax= 3.82D-06

 Cycle  12  Pass 1  IDiag  1:
 RMSU=  5.84D-09    CP:  1.02D+00  6.37D-01  9.71D-01  7.16D-01  1.30D+00
                    CP:  8.18D-01  1.27D+00  1.45D+00  1.57D+00  1.41D+00
                    CP:  1.34D+00
 FoFJK:  IHMeth= 1 ICntrl=     0 DoSepK=T KAlg= 1 I1Cent= 0 FoldK=F
 E= -2905.42463428717     Delta-E=       -0.000000000027 Rises=F Damp=F
 DIIS: error= 3.55D-08 at cycle  12 NSaved=  12.
 NSaved=12 IEnMin=12 EnMin= -2905.42463428717     IErMin=12 ErrMin= 3.55D-08
 ErrMax= 3.55D-08 EMaxC= 1.00D-01 BMatC= 1.79D-13 BMatP= 4.40D-12
 IDIUse=1 WtCom= 1.00D+00 WtEn= 0.00D+00
 Coeff-Com: -0.403D-07 0.670D-06 0.571D-05-0.209D-05-0.893D-04-0.113D-03
 Coeff-Com: -0.253D-03 0.408D-02 0.618D-02-0.299D-01-0.165D+00 0.119D+01
 Coeff:     -0.403D-07 0.670D-06 0.571D-05-0.209D-05-0.893D-04-0.113D-03
 Coeff:     -0.253D-03 0.408D-02 0.618D-02-0.299D-01-0.165D+00 0.119D+01
 Gap=     0.423 Goal=   None    Shift=    0.000
 RMSDP=5.57D-09 MaxDP=1.78D-07 DE=-2.73D-11 OVMax= 6.65D-07

 SCF Done:  E(RwB97XD) =  -2905.42463429     A.U. after   12 cycles
             Convg  =    0.5570D-08             -V/T =  2.0015
 KE= 2.900951111920D+03 PE=-7.238392509281D+03 EE= 1.281721793275D+03
 Leave Link  502 at Thu Apr 16 13:28:45 2020, MaxMem= 1073741824 cpu:     295.6
 (Enter /home/matheus/.gaussian/g09/l601.exe)
 Copying SCF densities to generalized density rwf, IOpCl= 0 IROHF=0.

 **********************************************************************

            Population analysis using the SCF density.

 **********************************************************************

 Orbital symmetries:
       Occupied  (A) (A) (A) (A) (A) (A) (A) (A) (A) (A) (A) (A)
                 (A) (A) (A) (A) (A) (A) (A) (A) (A) (A) (A) (A)
                 (A) (A) (A)
       Virtual   (A) (A) (A) (A) (A) (A) (A) (A) (A) (A) (A) (A)
                 (A) (A) (A) (A) (A) (A) (A) (A) (A) (A) (A) (A)
                 (A) (A) (A) (A) (A) (A) (A) (A) (A) (A) (A) (A)
                 (A) (A) (A) (A) (A) (A) (A) (A) (A) (A) (A) (A)
                 (A) (A) (A) (A) (A) (A) (A) (A) (A) (A) (A) (A)
                 (A) (A) (A) (A) (A) (A) (A) (A) (A) (A) (A) (A)
                 (A) (A) (A) (A) (A) (A) (A) (A) (A) (A) (A) (A)
                 (A) (A) (A) (A) (A) (A) (A) (A) (A) (A) (A) (A)
                 (A) (A) (A) (A) (A) (A) (A) (A) (A) (A) (A) (A)
                 (A) (A) (A) (A) (A) (A) (A) (A) (A) (A) (A) (A)
                 (A) (A) (A) (A) (A) (A) (A) (A) (A) (A) (A) (A)
                 (A) (A) (A) (A) (A) (A) (A) (A) (A) (A) (A) (A)
                 (A) (A) (A) (A) (A) (A) (A) (A) (A) (A) (A) (A)
                 (A) (A) (A) (A) (A) (A) (A) (A) (A) (A) (A) (A)
                 (A) (A)
 The electronic state is 1-A.
 Alpha  occ. eigenvalues -- -513.10445 -67.37269 -60.92148 -60.92138 -60.92130
 Alpha  occ. eigenvalues --  -19.34041 -19.33721  -9.82596  -7.51924  -7.51893
 Alpha  occ. eigenvalues --   -7.51865  -3.38608  -3.38603  -3.38580  -3.38556
 Alpha  occ. eigenvalues --   -3.38552  -1.24690  -1.03543  -1.02964  -0.68260
 Alpha  occ. eigenvalues --   -0.56958  -0.54285  -0.50984  -0.50578  -0.49596
 Alpha  occ. eigenvalues --   -0.44191  -0.38887
 Alpha virt. eigenvalues --    0.03423   0.04395   0.08473   0.09352   0.10112
 Alpha virt. eigenvalues --    0.11836   0.12855   0.14481   0.17322   0.17735
 Alpha virt. eigenvalues --    0.18128   0.19169   0.20255   0.22173   0.23287
 Alpha virt. eigenvalues --    0.24180   0.25035   0.27974   0.30245   0.32257
 Alpha virt. eigenvalues --    0.33801   0.34996   0.36809   0.38430   0.39669
 Alpha virt. eigenvalues --    0.40881   0.42102   0.47032   0.52004   0.53911
 Alpha virt. eigenvalues --    0.55172   0.58756   0.60960   0.63173   0.67150
 Alpha virt. eigenvalues --    0.68928   0.70256   0.72719   0.74458   0.74762
 Alpha virt. eigenvalues --    0.75892   0.76516   0.78173   0.79153   0.82656
 Alpha virt. eigenvalues --    0.83579   0.85751   0.87651   0.88486   0.89883
 Alpha virt. eigenvalues --    0.90534   0.93883   0.95088   0.97000   0.97983
 Alpha virt. eigenvalues --    0.98703   1.01774   1.03982   1.06505   1.09285
 Alpha virt. eigenvalues --    1.09490   1.13604   1.16939   1.21264   1.23459
 Alpha virt. eigenvalues --    1.26475   1.32027   1.36423   1.37688   1.39868
 Alpha virt. eigenvalues --    1.42490   1.46743   1.49244   1.53626   1.58543
 Alpha virt. eigenvalues --    1.66722   1.68306   1.82408   1.90241   1.92041
 Alpha virt. eigenvalues --    1.99667   2.03693   2.06094   2.09042   2.13390
 Alpha virt. eigenvalues --    2.15224   2.16936   2.18504   2.21179   2.24561
 Alpha virt. eigenvalues --    2.26576   2.28434   2.29235   2.30479   2.31926
 Alpha virt. eigenvalues --    2.35821   2.37506   2.43449   2.46518   2.46781
 Alpha virt. eigenvalues --    2.48216   2.50303   2.52474   2.55243   2.56068
 Alpha virt. eigenvalues --    2.58041   2.60775   2.64458   2.68117   2.70729
 Alpha virt. eigenvalues --    2.71630   2.74427   2.80593   2.85157   2.88097
 Alpha virt. eigenvalues --    2.93487   3.00232   3.08589   3.11160   3.59594
 Alpha virt. eigenvalues --    3.68189   3.94254   3.95902   3.98857   4.04764
 Alpha virt. eigenvalues --    4.09489   4.11251   4.23414   4.24177   4.27194
 Alpha virt. eigenvalues --    4.38929   4.46979   4.55138   4.59680   4.70971
 Alpha virt. eigenvalues --    4.94845   4.97993   4.99480   5.09985   5.16364
 Alpha virt. eigenvalues --    5.17062   5.43593   5.84857   6.01361   6.13427
 Alpha virt. eigenvalues --    6.16335   6.27859   6.35345   6.40654   6.51162
 Alpha virt. eigenvalues --    6.63741   6.75192   6.77697   6.82734   6.85139
 Alpha virt. eigenvalues --    6.89732   6.90317   6.93064   6.94308   7.03067
 Alpha virt. eigenvalues --    7.08887   7.15016   7.24339   7.48113   7.50047
 Alpha virt. eigenvalues --    7.83173   8.07196   8.14458  14.10669  14.67119
          Condensed to atoms (all electrons):
              1          2          3          4          5
     1  O    8.218700  -0.186064   0.192824   0.014536  -0.020208
     2  O   -0.186064   8.256479   0.022172   0.182247  -0.019942
     3  H    0.192824   0.022172   0.563534  -0.003739   0.001757
     4  H    0.014536   0.182247  -0.003739   0.572571  -0.006710
     5  Kr  -0.020208  -0.019942   0.001757  -0.006710  36.034969
 Mulliken atomic charges:
              1
     1  O   -0.219788
     2  O   -0.254892
     3  H    0.223451
     4  H    0.241095
     5  Kr   0.010134
 Sum of Mulliken atomic charges =   0.00000
 Mulliken charges with hydrogens summed into heavy atoms:
              1
     1  O    0.003663
     2  O   -0.013797
     5  Kr   0.010134
 Sum of Mulliken charges with hydrogens summed into heavy atoms =   0.00000
 Electronic spatial extent (au):  <R**2>=            479.6548
 Charge=              0.0000 electrons
 Dipole moment (field-independent basis, Debye):
    X=              2.6320    Y=             -0.2795    Z=              1.2153  Tot=              2.9125
 Quadrupole moment (field-independent basis, Debye-Ang):
   XX=            -37.2591   YY=            -27.9213   ZZ=            -29.3611
   XY=              1.1487   XZ=             -1.9666   YZ=             -1.5779
 Traceless Quadrupole moment (field-independent basis, Debye-Ang):
   XX=             -5.7453   YY=              3.5925   ZZ=              2.1527
   XY=              1.1487   XZ=             -1.9666   YZ=             -1.5779
 Octapole moment (field-independent basis, Debye-Ang**2):
  XXX=             41.6089  YYY=             -0.7484  ZZZ=              0.6825  XYY=              6.3700
  XXY=             -3.0328  XXZ=              2.2493  XZZ=              6.6410  YZZ=             -1.4161
  YYZ=              1.9185  XYZ=              2.5233
 Hexadecapole moment (field-independent basis, Debye-Ang**3):
 XXXX=           -460.7198 YYYY=            -62.9806 ZZZZ=            -29.7917 XXXY=              4.7022
 XXXZ=             -3.0011 YYYX=              2.1847 YYYZ=             -2.2908 ZZZX=             -1.5068
 ZZZY=             -1.4992 XXYY=            -83.7038 XXZZ=            -73.7968 YYZZ=            -16.2296
 XXYZ=             -4.1114 YYXZ=             -3.0336 ZZXY=              2.2592
 N-N= 1.502949697994D+02 E-N=-7.238392507654D+03  KE= 2.900951111920D+03
 No NMR shielding tensors so no spin-rotation constants.
 Leave Link  601 at Thu Apr 16 13:28:45 2020, MaxMem= 1073741824 cpu:       0.8
 (Enter /home/matheus/.gaussian/g09/l108.exe)
 Variable Step   Value    
 -------- ---- -----------
     1       1    5.858151
 Leave Link  108 at Thu Apr 16 13:28:45 2020, MaxMem= 1073741824 cpu:       0.0
 (Enter /home/matheus/.gaussian/g09/l202.exe)
 ---------------------------------------------------------------------------------------------------
                            Z-MATRIX (ANGSTROMS AND DEGREES)
   CD    Cent   Atom    N1       Length/X        N2       Alpha/Y        N3        Beta/Z          J
 ---------------------------------------------------------------------------------------------------
      1      1  O        0   0.000000          0.000000          0.725000
      2      2  O        0   0.000000          0.000000         -0.725000
      3      3  H        0  -0.795635          0.459360          1.023510
      4      4  H        0   0.000000          0.918721         -1.023510
      5      5  Kr       0   0.000000          3.100000          0.000000
 ---------------------------------------------------------------------------------------------------
                         Z-Matrix orientation:                         
 ---------------------------------------------------------------------
 Center     Atomic      Atomic             Coordinates (Angstroms)
 Number     Number       Type             X           Y           Z
 ---------------------------------------------------------------------
      1          8           0        0.000000    0.000000    0.725000
      2          8           0        0.000000    0.000000   -0.725000
      3          1           0       -0.795635    0.459360    1.023510
      4          1           0        0.000000    0.918721   -1.023510
      5         36           0        0.000000    3.100000    0.000000
 ---------------------------------------------------------------------
                    Distance matrix (angstroms):
                    1          2          3          4          5
     1  O    0.000000
     2  O    1.450000   0.000000
     3  H    0.966000   1.975180   0.000000
     4  H    1.975180   0.966000   2.243734   0.000000
     5  Kr   3.183650   3.183650   2.941698   2.409472   0.000000
 Stoichiometry    H2KrO2
 Framework group  C1[X(H2KrO2)]
 Deg. of freedom     9
 Full point group                 C1      NOp   1
 RotChk:  IX=0 Diff= 6.82D-04
 Largest Abelian subgroup         C1      NOp   1
 Largest concise Abelian subgroup C1      NOp   1
                         Standard orientation:                         
 ---------------------------------------------------------------------
 Center     Atomic      Atomic             Coordinates (Angstroms)
 Number     Number       Type             X           Y           Z
 ---------------------------------------------------------------------
      1          8           0       -2.095314   -0.709431   -0.097225
      2          8           0       -2.088369    0.735799    0.020094
      3          1           0       -1.646842   -1.073918    0.676841
      4          1           0       -1.168293    1.028061    0.054733
      5         36           0        1.007906   -0.004586   -0.003181
 ---------------------------------------------------------------------
 Rotational constants (GHZ):     25.8520854      2.2159232      2.0507076
 Leave Link  202 at Thu Apr 16 13:28:45 2020, MaxMem= 1073741824 cpu:       0.0
 (Enter /home/matheus/.gaussian/g09/l301.exe)
 Standard basis: Aug-CC-pVTZ (5D, 7F)
 Ernie: Thresh=  0.10000D-02 Tol=  0.10000D-05 Strict=F.
 Ernie:  38 primitive shells out of 205 were deleted.
 There are   197 symmetry adapted basis functions of A   symmetry.
 Integral buffers will be    131072 words long.
 Raffenetti 2 integral format.
 Two-electron integral symmetry is turned on.
   197 basis functions,   415 primitive gaussians,   229 cartesian basis functions
    27 alpha electrons       27 beta electrons
       nuclear repulsion energy       146.7676096931 Hartrees.
 IExCor= 4639 DFT=T Ex+Corr=wB97XD ExCW=0 ScaHFX=  1.000000
 ScaDFX=  1.000000  1.000000  1.000000  1.000000 ScalE2=  1.000000  1.000000
 IRadAn=      5 IRanWt=     -1 IRanGd=            0 ICorTp=0
  HFx wShort=  0.000000 wLong=  0.250000 cFull=  0.222036 cShort=  0.000000 cLong=  0.777964
  DFx wShort=  0.000000 wLong=  0.250000 cFull=  0.000000 cShort=  0.000000 cLong=  1.000000
 NAtoms=    5 NActive=    5 NUniq=    5 SFac= 1.00D+00 NAtFMM=   60 NAOKFM=F Big=F
 R6Disp: Dispersion energy =        -0.0010037680 Hartrees.
 Nuclear repulsion after empirical dispersion term =      146.7666059251 Hartrees.
 Leave Link  301 at Thu Apr 16 13:28:45 2020, MaxMem= 1073741824 cpu:       0.2
 (Enter /home/matheus/.gaussian/g09/l302.exe)
 NPDir=0 NMtPBC=     1 NCelOv=     1 NCel=       1 NClECP=     1 NCelD=      1
         NCelK=      1 NCelE2=     1 NClLst=     1 CellRange=     0.0.
 One-electron integrals computed using PRISM.
 NBasis=   197 RedAO= T  NBF=   197
 NBsUse=   197 1.00D-06 NBFU=   197
 Precomputing XC quadrature grid using
 IXCGrd= 2 IRadAn=           5 IRanWt=          -1 IRanGd=           0 AccXCQ= 0.00D+00.
 NRdTot=     427 NPtTot=      123512 NUsed=      126579 NTot=      126611
 NSgBfM=   229   229   229   229   229 NAtAll=     5     5.
 Leave Link  302 at Thu Apr 16 13:28:45 2020, MaxMem= 1073741824 cpu:       1.0
 (Enter /home/matheus/.gaussian/g09/l303.exe)
 DipDrv:  MaxL=1.
 Leave Link  303 at Thu Apr 16 13:28:45 2020, MaxMem= 1073741824 cpu:       0.2
 (Enter /home/matheus/.gaussian/g09/l401.exe)
 Initial guess read from the read-write file.
 B after Tr=     0.000000    0.000000    0.000000
         Rot=    1.000000    0.000000    0.000000    0.000000 Ang=   0.00 deg.
 Guess basis will be translated and rotated to current coordinates.
 Initial guess orbital symmetries:
       Occupied  (A) (A) (A) (A) (A) (A) (A) (A) (A) (A) (A) (A)
                 (A) (A) (A) (A) (A) (A) (A) (A) (A) (A) (A) (A)
                 (A) (A) (A)
       Virtual   (A) (A) (A) (A) (A) (A) (A) (A) (A) (A) (A) (A)
                 (A) (A) (A) (A) (A) (A) (A) (A) (A) (A) (A) (A)
                 (A) (A) (A) (A) (A) (A) (A) (A) (A) (A) (A) (A)
                 (A) (A) (A) (A) (A) (A) (A) (A) (A) (A) (A) (A)
                 (A) (A) (A) (A) (A) (A) (A) (A) (A) (A) (A) (A)
                 (A) (A) (A) (A) (A) (A) (A) (A) (A) (A) (A) (A)
                 (A) (A) (A) (A) (A) (A) (A) (A) (A) (A) (A) (A)
                 (A) (A) (A) (A) (A) (A) (A) (A) (A) (A) (A) (A)
                 (A) (A) (A) (A) (A) (A) (A) (A) (A) (A) (A) (A)
                 (A) (A) (A) (A) (A) (A) (A) (A) (A) (A) (A) (A)
                 (A) (A) (A) (A) (A) (A) (A) (A) (A) (A) (A) (A)
                 (A) (A) (A) (A) (A) (A) (A) (A) (A) (A) (A) (A)
                 (A) (A) (A) (A) (A) (A) (A) (A) (A) (A) (A) (A)
                 (A) (A) (A) (A) (A) (A) (A) (A) (A) (A) (A) (A)
                 (A) (A)
 The electronic state of the initial guess is 1-A.
 Generating alternative initial guess.
 Harris functional with IExCor= 4639 diagonalized for initial guess.
 ExpMin= 2.53D-02 ExpMax= 1.17D+07 ExpMxC= 1.33D+04 IAcc=3 IRadAn=         5 AccDes= 0.00D+00
 HarFok:  IExCor= 4639 AccDes= 0.00D+00 IRadAn=         5 IDoV= 1
 ScaDFX=  1.000000  1.000000  1.000000  1.000000
 FoFCou: FMM=F IPFlag=           0 FMFlag=      100000 FMFlg1=           0
         NFxFlg=           0 DoJE=T BraDBF=F KetDBF=T FulRan=T
         Omega=  0.000000  0.000000  1.000000  0.000000  0.000000 ICntrl=     500 IOpCl=  0
         NMat0=    1 NMatS0=    1 NMatT0=    0 NMatD0=    1 NMtDS0=    0 NMtDT0=    0
         I1Cent=           4 NGrid=           0.
 Petite list used in FoFCou.
 Harris En= -2875.39882411167    
 Leave Link  401 at Thu Apr 16 13:28:46 2020, MaxMem= 1073741824 cpu:       5.1
 (Enter /home/matheus/.gaussian/g09/l502.exe)
 Closed shell SCF:
 Requested convergence on RMS density matrix=1.00D-08 within 128 cycles.
 Requested convergence on MAX density matrix=1.00D-06.
 Requested convergence on             energy=1.00D-06.
 No special actions if energy rises.
 Using DIIS extrapolation, IDIIS=  1040.
 Integral symmetry usage will be decided dynamically.
       126521 words used for storage of precomputed grid.
 IEnd=      305468 IEndB=      305468 NGot=  1073741824 MDV=  1073505667
 LenX=  1073505667 LenY=  1073452785
 Fock matrices will be formed incrementally for  20 cycles.

 Cycle   1  Pass 1  IDiag  1:
 FoFJK:  IHMeth= 1 ICntrl=     0 DoSepK=T KAlg= 1 I1Cent= 0 FoldK=F
 FoFCou: FMM=F IPFlag=           0 FMFlag=      100000 FMFlg1=           0
         NFxFlg=           0 DoJE=T BraDBF=F KetDBF=F FulRan=T
         Omega=  0.000000  0.000000  1.000000  0.000000  0.000000 ICntrl=     500 IOpCl=  0
         NMat0=    1 NMatS0=    1 NMatT0=    0 NMatD0=    1 NMtDS0=    0 NMtDT0=    0
         I1Cent=           0 NGrid=           0.
 Symmetry not used in FoFCou.
 E= -2905.42652497602    
 DIIS: error= 1.29D-03 at cycle   1 NSaved=   1.
 NSaved= 1 IEnMin= 1 EnMin= -2905.42652497602     IErMin= 1 ErrMin= 1.29D-03
 ErrMax= 1.29D-03 EMaxC= 1.00D-01 BMatC= 6.30D-04 BMatP= 6.30D-04
 IDIUse=3 WtCom= 9.87D-01 WtEn= 1.29D-02
 Coeff-Com:  0.100D+01
 Coeff-En:   0.100D+01
 Coeff:      0.100D+01
 Gap=     0.426 Goal=   None    Shift=    0.000
 GapD=    0.426 DampG=2.000 DampE=1.000 DampFc=2.0000 IDamp=-1.
 RMSDP=7.64D-05 MaxDP=2.37D-03              OVMax= 3.09D-03

 Cycle   2  Pass 1  IDiag  1:
 RMSU=  5.40D-05    CP:  1.00D+00
 FoFJK:  IHMeth= 1 ICntrl=     0 DoSepK=T KAlg= 1 I1Cent= 0 FoldK=F
 E= -2905.42663061252     Delta-E=       -0.000105636499 Rises=F Damp=F
 DIIS: error= 1.21D-04 at cycle   2 NSaved=   2.
 NSaved= 2 IEnMin= 2 EnMin= -2905.42663061252     IErMin= 2 ErrMin= 1.21D-04
 ErrMax= 1.21D-04 EMaxC= 1.00D-01 BMatC= 5.49D-06 BMatP= 6.30D-04
 IDIUse=3 WtCom= 9.99D-01 WtEn= 1.21D-03
 Coeff-Com:  0.110D-03 0.100D+01
 Coeff-En:   0.000D+00 0.100D+01
 Coeff:      0.110D-03 0.100D+01
 Gap=     0.423 Goal=   None    Shift=    0.000
 RMSDP=1.66D-05 MaxDP=7.15D-04 DE=-1.06D-04 OVMax= 8.98D-04

 Cycle   3  Pass 1  IDiag  1:
 RMSU=  9.97D-06    CP:  1.00D+00  1.12D+00
 FoFJK:  IHMeth= 1 ICntrl=     0 DoSepK=T KAlg= 1 I1Cent= 0 FoldK=F
 E= -2905.42663359606     Delta-E=       -0.000002983539 Rises=F Damp=F
 DIIS: error= 8.91D-05 at cycle   3 NSaved=   3.
 NSaved= 3 IEnMin= 3 EnMin= -2905.42663359606     IErMin= 3 ErrMin= 8.91D-05
 ErrMax= 8.91D-05 EMaxC= 1.00D-01 BMatC= 4.24D-06 BMatP= 5.49D-06
 IDIUse=1 WtCom= 1.00D+00 WtEn= 0.00D+00
 Coeff-Com: -0.720D-02 0.467D+00 0.540D+00
 Coeff:     -0.720D-02 0.467D+00 0.540D+00
 Gap=     0.423 Goal=   None    Shift=    0.000
 RMSDP=6.09D-06 MaxDP=3.28D-04 DE=-2.98D-06 OVMax= 4.25D-04

 Cycle   4  Pass 1  IDiag  1:
 RMSU=  2.93D-06    CP:  1.00D+00  1.14D+00  7.03D-01
 FoFJK:  IHMeth= 1 ICntrl=     0 DoSepK=T KAlg= 1 I1Cent= 0 FoldK=F
 E= -2905.42663622664     Delta-E=       -0.000002630581 Rises=F Damp=F
 DIIS: error= 2.57D-05 at cycle   4 NSaved=   4.
 NSaved= 4 IEnMin= 4 EnMin= -2905.42663622664     IErMin= 4 ErrMin= 2.57D-05
 ErrMax= 2.57D-05 EMaxC= 1.00D-01 BMatC= 1.95D-07 BMatP= 4.24D-06
 IDIUse=1 WtCom= 1.00D+00 WtEn= 0.00D+00
 Coeff-Com: -0.224D-02 0.638D-01 0.178D+00 0.761D+00
 Coeff:     -0.224D-02 0.638D-01 0.178D+00 0.761D+00
 Gap=     0.423 Goal=   None    Shift=    0.000
 RMSDP=2.03D-06 MaxDP=6.22D-05 DE=-2.63D-06 OVMax= 1.21D-04

 Cycle   5  Pass 1  IDiag  1:
 RMSU=  1.16D-06    CP:  1.00D+00  1.14D+00  7.71D-01  1.06D+00
 FoFJK:  IHMeth= 1 ICntrl=     0 DoSepK=T KAlg= 1 I1Cent= 0 FoldK=F
 E= -2905.42663635949     Delta-E=       -0.000000132849 Rises=F Damp=F
 DIIS: error= 1.09D-05 at cycle   5 NSaved=   5.
 NSaved= 5 IEnMin= 5 EnMin= -2905.42663635949     IErMin= 5 ErrMin= 1.09D-05
 ErrMax= 1.09D-05 EMaxC= 1.00D-01 BMatC= 5.07D-08 BMatP= 1.95D-07
 IDIUse=1 WtCom= 1.00D+00 WtEn= 0.00D+00
 Coeff-Com:  0.159D-03-0.538D-01-0.913D-02 0.376D+00 0.687D+00
 Coeff:      0.159D-03-0.538D-01-0.913D-02 0.376D+00 0.687D+00
 Gap=     0.423 Goal=   None    Shift=    0.000
 RMSDP=9.03D-07 MaxDP=3.87D-05 DE=-1.33D-07 OVMax= 5.55D-05

 Cycle   6  Pass 1  IDiag  1:
 RMSU=  3.53D-07    CP:  1.00D+00  1.15D+00  8.00D-01  1.18D+00  8.48D-01
 FoFJK:  IHMeth= 1 ICntrl=     0 DoSepK=T KAlg= 1 I1Cent= 0 FoldK=F
 E= -2905.42663639753     Delta-E=       -0.000000038042 Rises=F Damp=F
 DIIS: error= 2.05D-06 at cycle   6 NSaved=   6.
 NSaved= 6 IEnMin= 6 EnMin= -2905.42663639753     IErMin= 6 ErrMin= 2.05D-06
 ErrMax= 2.05D-06 EMaxC= 1.00D-01 BMatC= 1.44D-09 BMatP= 5.07D-08
 IDIUse=1 WtCom= 1.00D+00 WtEn= 0.00D+00
 Coeff-Com:  0.171D-03-0.216D-01-0.125D-01 0.811D-01 0.219D+00 0.734D+00
 Coeff:      0.171D-03-0.216D-01-0.125D-01 0.811D-01 0.219D+00 0.734D+00
 Gap=     0.423 Goal=   None    Shift=    0.000
 RMSDP=1.95D-07 MaxDP=6.13D-06 DE=-3.80D-08 OVMax= 9.99D-06

 Cycle   7  Pass 1  IDiag  1:
 RMSU=  8.58D-08    CP:  1.00D+00  1.15D+00  8.05D-01  1.21D+00  9.03D-01
                    CP:  1.04D+00
 FoFJK:  IHMeth= 1 ICntrl=     0 DoSepK=T KAlg= 1 I1Cent= 0 FoldK=F
 E= -2905.42663639898     Delta-E=       -0.000000001450 Rises=F Damp=F
 DIIS: error= 5.60D-07 at cycle   7 NSaved=   7.
 NSaved= 7 IEnMin= 7 EnMin= -2905.42663639898     IErMin= 7 ErrMin= 5.60D-07
 ErrMax= 5.60D-07 EMaxC= 1.00D-01 BMatC= 5.69D-11 BMatP= 1.44D-09
 IDIUse=1 WtCom= 1.00D+00 WtEn= 0.00D+00
 Coeff-Com: -0.137D-04 0.527D-02 0.148D-02-0.357D-01-0.691D-01-0.892D-02
 Coeff-Com:  0.111D+01
 Coeff:     -0.137D-04 0.527D-02 0.148D-02-0.357D-01-0.691D-01-0.892D-02
 Coeff:      0.111D+01
 Gap=     0.423 Goal=   None    Shift=    0.000
 RMSDP=8.57D-08 MaxDP=3.56D-06 DE=-1.45D-09 OVMax= 5.42D-06

 Cycle   8  Pass 1  IDiag  1:
 RMSU=  2.52D-08    CP:  1.00D+00  1.15D+00  8.07D-01  1.21D+00  9.18D-01
                    CP:  1.16D+00  1.20D+00
 FoFJK:  IHMeth= 1 ICntrl=     0 DoSepK=T KAlg= 1 I1Cent= 0 FoldK=F
 E= -2905.42663639914     Delta-E=       -0.000000000159 Rises=F Damp=F
 DIIS: error= 7.35D-08 at cycle   8 NSaved=   8.
 NSaved= 8 IEnMin= 8 EnMin= -2905.42663639914     IErMin= 8 ErrMin= 7.35D-08
 ErrMax= 7.35D-08 EMaxC= 1.00D-01 BMatC= 2.90D-12 BMatP= 5.69D-11
 IDIUse=1 WtCom= 1.00D+00 WtEn= 0.00D+00
 Coeff-Com: -0.108D-04 0.201D-02 0.828D-03-0.107D-01-0.226D-01-0.293D-01
 Coeff-Com:  0.204D+00 0.856D+00
 Coeff:     -0.108D-04 0.201D-02 0.828D-03-0.107D-01-0.226D-01-0.293D-01
 Coeff:      0.204D+00 0.856D+00
 Gap=     0.423 Goal=   None    Shift=    0.000
 RMSDP=1.22D-08 MaxDP=3.43D-07 DE=-1.59D-10 OVMax= 7.84D-07

 Cycle   9  Pass 1  IDiag  1:
 RMSU=  5.31D-09    CP:  1.00D+00  1.15D+00  8.07D-01  1.21D+00  9.18D-01
                    CP:  1.16D+00  1.24D+00  1.19D+00
 FoFJK:  IHMeth= 1 ICntrl=     0 DoSepK=T KAlg= 1 I1Cent= 0 FoldK=F
 E= -2905.42663639913     Delta-E=        0.000000000009 Rises=F Damp=F
 DIIS: error= 2.30D-08 at cycle   9 NSaved=   9.
 NSaved= 9 IEnMin= 8 EnMin= -2905.42663639914     IErMin= 9 ErrMin= 2.30D-08
 ErrMax= 2.30D-08 EMaxC= 1.00D-01 BMatC= 1.93D-13 BMatP= 2.90D-12
 IDIUse=1 WtCom= 1.00D+00 WtEn= 0.00D+00
 Coeff-Com:  0.872D-06-0.354D-03-0.107D-03 0.245D-02 0.478D-02 0.433D-03
 Coeff-Com: -0.822D-01 0.324D-01 0.104D+01
 Coeff:      0.872D-06-0.354D-03-0.107D-03 0.245D-02 0.478D-02 0.433D-03
 Coeff:     -0.822D-01 0.324D-01 0.104D+01
 Gap=     0.423 Goal=   None    Shift=    0.000
 RMSDP=6.24D-09 MaxDP=1.91D-07 DE= 9.09D-12 OVMax= 3.42D-07

 SCF Done:  E(RwB97XD) =  -2905.42663640     A.U. after    9 cycles
             Convg  =    0.6243D-08             -V/T =  2.0015
 KE= 2.900937402250D+03 PE=-7.231349991440D+03 EE= 1.278219346865D+03
 Leave Link  502 at Thu Apr 16 13:29:14 2020, MaxMem= 1073741824 cpu:     223.3
 (Enter /home/matheus/.gaussian/g09/l108.exe)
 Variable Step   Value    
 -------- ---- -----------
     1       2    6.047124
 Leave Link  108 at Thu Apr 16 13:29:14 2020, MaxMem= 1073741824 cpu:       0.0
 (Enter /home/matheus/.gaussian/g09/l202.exe)
 ---------------------------------------------------------------------------------------------------
                            Z-MATRIX (ANGSTROMS AND DEGREES)
   CD    Cent   Atom    N1       Length/X        N2       Alpha/Y        N3        Beta/Z          J
 ---------------------------------------------------------------------------------------------------
      1      1  O        0   0.000000          0.000000          0.725000
      2      2  O        0   0.000000          0.000000         -0.725000
      3      3  H        0  -0.795635          0.459360          1.023510
      4      4  H        0   0.000000          0.918721         -1.023510
      5      5  Kr       0   0.000000          3.200000          0.000000
 ---------------------------------------------------------------------------------------------------
                         Z-Matrix orientation:                         
 ---------------------------------------------------------------------
 Center     Atomic      Atomic             Coordinates (Angstroms)
 Number     Number       Type             X           Y           Z
 ---------------------------------------------------------------------
      1          8           0        0.000000    0.000000    0.725000
      2          8           0        0.000000    0.000000   -0.725000
      3          1           0       -0.795635    0.459360    1.023510
      4          1           0        0.000000    0.918721   -1.023510
      5         36           0        0.000000    3.200000    0.000000
 ---------------------------------------------------------------------
                    Distance matrix (angstroms):
                    1          2          3          4          5
     1  O    0.000000
     2  O    1.450000   0.000000
     3  H    0.966000   1.975180   0.000000
     4  H    1.975180   0.966000   2.243734   0.000000
     5  Kr   3.281101   3.281101   3.031784   2.500362   0.000000
 Stoichiometry    H2KrO2
 Framework group  C1[X(H2KrO2)]
 Deg. of freedom     9
 Full point group                 C1      NOp   1
 RotChk:  IX=0 Diff= 6.26D-04
 Largest Abelian subgroup         C1      NOp   1
 Largest concise Abelian subgroup C1      NOp   1
                         Standard orientation:                         
 ---------------------------------------------------------------------
 Center     Atomic      Atomic             Coordinates (Angstroms)
 Number     Number       Type             X           Y           Z
 ---------------------------------------------------------------------
      1          8           0       -2.161751   -0.709812   -0.097418
      2          8           0       -2.155285    0.735419    0.019917
      3          1           0       -1.712943   -1.074150    0.676524
      4          1           0       -1.235303    1.028006    0.054314
      5         36           0        1.041237   -0.004409   -0.003079
 ---------------------------------------------------------------------
 Rotational constants (GHZ):     25.8521633      2.0787693      1.9326970
 Leave Link  202 at Thu Apr 16 13:29:14 2020, MaxMem= 1073741824 cpu:       0.0
 (Enter /home/matheus/.gaussian/g09/l301.exe)
 Standard basis: Aug-CC-pVTZ (5D, 7F)
 Ernie: Thresh=  0.10000D-02 Tol=  0.10000D-05 Strict=F.
 Ernie:  38 primitive shells out of 205 were deleted.
 There are   197 symmetry adapted basis functions of A   symmetry.
 Integral buffers will be    131072 words long.
 Raffenetti 2 integral format.
 Two-electron integral symmetry is turned on.
   197 basis functions,   415 primitive gaussians,   229 cartesian basis functions
    27 alpha electrons       27 beta electrons
       nuclear repulsion energy       143.4441835208 Hartrees.
 IExCor= 4639 DFT=T Ex+Corr=wB97XD ExCW=0 ScaHFX=  1.000000
 ScaDFX=  1.000000  1.000000  1.000000  1.000000 ScalE2=  1.000000  1.000000
 IRadAn=      5 IRanWt=     -1 IRanGd=            0 ICorTp=0
  HFx wShort=  0.000000 wLong=  0.250000 cFull=  0.222036 cShort=  0.000000 cLong=  0.777964
  DFx wShort=  0.000000 wLong=  0.250000 cFull=  0.000000 cShort=  0.000000 cLong=  1.000000
 NAtoms=    5 NActive=    5 NUniq=    5 SFac= 1.00D+00 NAtFMM=   60 NAOKFM=F Big=F
 R6Disp: Dispersion energy =        -0.0010817667 Hartrees.
 Nuclear repulsion after empirical dispersion term =      143.4431017541 Hartrees.
 Leave Link  301 at Thu Apr 16 13:29:14 2020, MaxMem= 1073741824 cpu:       0.2
 (Enter /home/matheus/.gaussian/g09/l302.exe)
 NPDir=0 NMtPBC=     1 NCelOv=     1 NCel=       1 NClECP=     1 NCelD=      1
         NCelK=      1 NCelE2=     1 NClLst=     1 CellRange=     0.0.
 One-electron integrals computed using PRISM.
 NBasis=   197 RedAO= T  NBF=   197
 NBsUse=   197 1.00D-06 NBFU=   197
 Precomputing XC quadrature grid using
 IXCGrd= 2 IRadAn=           5 IRanWt=          -1 IRanGd=           0 AccXCQ= 0.00D+00.
 NRdTot=     427 NPtTot=      123512 NUsed=      126579 NTot=      126611
 NSgBfM=   229   229   229   229   229 NAtAll=     5     5.
 Leave Link  302 at Thu Apr 16 13:29:14 2020, MaxMem= 1073741824 cpu:       1.0
 (Enter /home/matheus/.gaussian/g09/l303.exe)
 DipDrv:  MaxL=1.
 Leave Link  303 at Thu Apr 16 13:29:14 2020, MaxMem= 1073741824 cpu:       0.2
 (Enter /home/matheus/.gaussian/g09/l401.exe)
 Initial guess read from the read-write file.
 B after Tr=     0.000000    0.000000    0.000000
         Rot=    1.000000    0.000000    0.000000    0.000000 Ang=   0.00 deg.
 Guess basis will be translated and rotated to current coordinates.
 Initial guess orbital symmetries:
       Occupied  (A) (A) (A) (A) (A) (A) (A) (A) (A) (A) (A) (A)
                 (A) (A) (A) (A) (A) (A) (A) (A) (A) (A) (A) (A)
                 (A) (A) (A)
       Virtual   (A) (A) (A) (A) (A) (A) (A) (A) (A) (A) (A) (A)
                 (A) (A) (A) (A) (A) (A) (A) (A) (A) (A) (A) (A)
                 (A) (A) (A) (A) (A) (A) (A) (A) (A) (A) (A) (A)
                 (A) (A) (A) (A) (A) (A) (A) (A) (A) (A) (A) (A)
                 (A) (A) (A) (A) (A) (A) (A) (A) (A) (A) (A) (A)
                 (A) (A) (A) (A) (A) (A) (A) (A) (A) (A) (A) (A)
                 (A) (A) (A) (A) (A) (A) (A) (A) (A) (A) (A) (A)
                 (A) (A) (A) (A) (A) (A) (A) (A) (A) (A) (A) (A)
                 (A) (A) (A) (A) (A) (A) (A) (A) (A) (A) (A) (A)
                 (A) (A) (A) (A) (A) (A) (A) (A) (A) (A) (A) (A)
                 (A) (A) (A) (A) (A) (A) (A) (A) (A) (A) (A) (A)
                 (A) (A) (A) (A) (A) (A) (A) (A) (A) (A) (A) (A)
                 (A) (A) (A) (A) (A) (A) (A) (A) (A) (A) (A) (A)
                 (A) (A) (A) (A) (A) (A) (A) (A) (A) (A) (A) (A)
                 (A) (A)
 The electronic state of the initial guess is 1-A.
 Generating alternative initial guess.
 Harris functional with IExCor= 4639 diagonalized for initial guess.
 ExpMin= 2.53D-02 ExpMax= 1.17D+07 ExpMxC= 1.33D+04 IAcc=3 IRadAn=         5 AccDes= 0.00D+00
 HarFok:  IExCor= 4639 AccDes= 0.00D+00 IRadAn=         5 IDoV= 1
 ScaDFX=  1.000000  1.000000  1.000000  1.000000
 FoFCou: FMM=F IPFlag=           0 FMFlag=      100000 FMFlg1=           0
         NFxFlg=           0 DoJE=T BraDBF=F KetDBF=T FulRan=T
         Omega=  0.000000  0.000000  1.000000  0.000000  0.000000 ICntrl=     500 IOpCl=  0
         NMat0=    1 NMatS0=    1 NMatT0=    0 NMatD0=    1 NMtDS0=    0 NMtDT0=    0
         I1Cent=           4 NGrid=           0.
 Petite list used in FoFCou.
 Harris En= -2875.40150617459    
 Leave Link  401 at Thu Apr 16 13:29:15 2020, MaxMem= 1073741824 cpu:       4.5
 (Enter /home/matheus/.gaussian/g09/l502.exe)
 Closed shell SCF:
 Requested convergence on RMS density matrix=1.00D-08 within 128 cycles.
 Requested convergence on MAX density matrix=1.00D-06.
 Requested convergence on             energy=1.00D-06.
 No special actions if energy rises.
 Using DIIS extrapolation, IDIIS=  1040.
 Integral symmetry usage will be decided dynamically.
       126521 words used for storage of precomputed grid.
 IEnd=      305468 IEndB=      305468 NGot=  1073741824 MDV=  1073505667
 LenX=  1073505667 LenY=  1073452785
 Fock matrices will be formed incrementally for  20 cycles.

 Cycle   1  Pass 1  IDiag  1:
 FoFJK:  IHMeth= 1 ICntrl=     0 DoSepK=T KAlg= 1 I1Cent= 0 FoldK=F
 FoFCou: FMM=F IPFlag=           0 FMFlag=      100000 FMFlg1=           0
         NFxFlg=           0 DoJE=T BraDBF=F KetDBF=F FulRan=T
         Omega=  0.000000  0.000000  1.000000  0.000000  0.000000 ICntrl=     500 IOpCl=  0
         NMat0=    1 NMatS0=    1 NMatT0=    0 NMatD0=    1 NMtDS0=    0 NMtDT0=    0
         I1Cent=           0 NGrid=           0.
 Symmetry not used in FoFCou.
 E= -2905.42787465003    
 DIIS: error= 1.01D-03 at cycle   1 NSaved=   1.
 NSaved= 1 IEnMin= 1 EnMin= -2905.42787465003     IErMin= 1 ErrMin= 1.01D-03
 ErrMax= 1.01D-03 EMaxC= 1.00D-01 BMatC= 4.87D-04 BMatP= 4.87D-04
 IDIUse=3 WtCom= 9.90D-01 WtEn= 1.01D-02
 Coeff-Com:  0.100D+01
 Coeff-En:   0.100D+01
 Coeff:      0.100D+01
 Gap=     0.426 Goal=   None    Shift=    0.000
 GapD=    0.426 DampG=2.000 DampE=1.000 DampFc=2.0000 IDamp=-1.
 RMSDP=6.91D-05 MaxDP=2.08D-03              OVMax= 2.74D-03

 Cycle   2  Pass 1  IDiag  1:
 RMSU=  4.89D-05    CP:  1.00D+00
 FoFJK:  IHMeth= 1 ICntrl=     0 DoSepK=T KAlg= 1 I1Cent= 0 FoldK=F
 E= -2905.42795441087     Delta-E=       -0.000079760845 Rises=F Damp=F
 DIIS: error= 1.01D-04 at cycle   2 NSaved=   2.
 NSaved= 2 IEnMin= 2 EnMin= -2905.42795441087     IErMin= 2 ErrMin= 1.01D-04
 ErrMax= 1.01D-04 EMaxC= 1.00D-01 BMatC= 3.55D-06 BMatP= 4.87D-04
 IDIUse=3 WtCom= 9.99D-01 WtEn= 1.01D-03
 Coeff-Com: -0.215D-02 0.100D+01
 Coeff-En:   0.000D+00 0.100D+01
 Coeff:     -0.215D-02 0.100D+01
 Gap=     0.423 Goal=   None    Shift=    0.000
 RMSDP=1.41D-05 MaxDP=5.51D-04 DE=-7.98D-05 OVMax= 7.45D-04

 Cycle   3  Pass 1  IDiag  1:
 RMSU=  8.11D-06    CP:  1.00D+00  1.12D+00
 FoFJK:  IHMeth= 1 ICntrl=     0 DoSepK=T KAlg= 1 I1Cent= 0 FoldK=F
 E= -2905.42795659288     Delta-E=       -0.000002182007 Rises=F Damp=F
 DIIS: error= 8.09D-05 at cycle   3 NSaved=   3.
 NSaved= 3 IEnMin= 3 EnMin= -2905.42795659288     IErMin= 3 ErrMin= 8.09D-05
 ErrMax= 8.09D-05 EMaxC= 1.00D-01 BMatC= 2.72D-06 BMatP= 3.55D-06
 IDIUse=1 WtCom= 1.00D+00 WtEn= 0.00D+00
 Coeff-Com: -0.696D-02 0.466D+00 0.541D+00
 Coeff:     -0.696D-02 0.466D+00 0.541D+00
 Gap=     0.424 Goal=   None    Shift=    0.000
 RMSDP=4.95D-06 MaxDP=2.64D-04 DE=-2.18D-06 OVMax= 3.55D-04

 Cycle   4  Pass 1  IDiag  1:
 RMSU=  2.54D-06    CP:  1.00D+00  1.14D+00  7.33D-01
 FoFJK:  IHMeth= 1 ICntrl=     0 DoSepK=T KAlg= 1 I1Cent= 0 FoldK=F
 E= -2905.42795828356     Delta-E=       -0.000001690684 Rises=F Damp=F
 DIIS: error= 2.39D-05 at cycle   4 NSaved=   4.
 NSaved= 4 IEnMin= 4 EnMin= -2905.42795828356     IErMin= 4 ErrMin= 2.39D-05
 ErrMax= 2.39D-05 EMaxC= 1.00D-01 BMatC= 1.42D-07 BMatP= 2.72D-06
 IDIUse=1 WtCom= 1.00D+00 WtEn= 0.00D+00
 Coeff-Com: -0.195D-02 0.498D-01 0.180D+00 0.773D+00
 Coeff:     -0.195D-02 0.498D-01 0.180D+00 0.773D+00
 Gap=     0.424 Goal=   None    Shift=    0.000
 RMSDP=1.83D-06 MaxDP=5.52D-05 DE=-1.69D-06 OVMax= 1.04D-04

 Cycle   5  Pass 1  IDiag  1:
 RMSU=  9.75D-07    CP:  1.00D+00  1.15D+00  8.15D-01  1.08D+00
 FoFJK:  IHMeth= 1 ICntrl=     0 DoSepK=T KAlg= 1 I1Cent= 0 FoldK=F
 E= -2905.42795838350     Delta-E=       -0.000000099936 Rises=F Damp=F
 DIIS: error= 9.64D-06 at cycle   5 NSaved=   5.
 NSaved= 5 IEnMin= 5 EnMin= -2905.42795838350     IErMin= 5 ErrMin= 9.64D-06
 ErrMax= 9.64D-06 EMaxC= 1.00D-01 BMatC= 3.46D-08 BMatP= 1.42D-07
 IDIUse=1 WtCom= 1.00D+00 WtEn= 0.00D+00
 Coeff-Com:  0.196D-03-0.556D-01-0.310D-02 0.377D+00 0.681D+00
 Coeff:      0.196D-03-0.556D-01-0.310D-02 0.377D+00 0.681D+00
 Gap=     0.424 Goal=   None    Shift=    0.000
 RMSDP=7.85D-07 MaxDP=3.34D-05 DE=-9.99D-08 OVMax= 4.51D-05

 Cycle   6  Pass 1  IDiag  1:
 RMSU=  2.96D-07    CP:  1.00D+00  1.15D+00  8.48D-01  1.20D+00  8.45D-01
 FoFJK:  IHMeth= 1 ICntrl=     0 DoSepK=T KAlg= 1 I1Cent= 0 FoldK=F
 E= -2905.42795840965     Delta-E=       -0.000000026152 Rises=F Damp=F
 DIIS: error= 1.88D-06 at cycle   6 NSaved=   6.
 NSaved= 6 IEnMin= 6 EnMin= -2905.42795840965     IErMin= 6 ErrMin= 1.88D-06
 ErrMax= 1.88D-06 EMaxC= 1.00D-01 BMatC= 9.62D-10 BMatP= 3.46D-08
 IDIUse=1 WtCom= 1.00D+00 WtEn= 0.00D+00
 Coeff-Com:  0.165D-03-0.208D-01-0.104D-01 0.774D-01 0.211D+00 0.743D+00
 Coeff:      0.165D-03-0.208D-01-0.104D-01 0.774D-01 0.211D+00 0.743D+00
 Gap=     0.424 Goal=   None    Shift=    0.000
 RMSDP=1.66D-07 MaxDP=5.51D-06 DE=-2.62D-08 OVMax= 8.34D-06

 Cycle   7  Pass 1  IDiag  1:
 RMSU=  7.03D-08    CP:  1.00D+00  1.15D+00  8.54D-01  1.22D+00  8.99D-01
                    CP:  1.03D+00
 FoFJK:  IHMeth= 1 ICntrl=     0 DoSepK=T KAlg= 1 I1Cent= 0 FoldK=F
 E= -2905.42795841066     Delta-E=       -0.000000001015 Rises=F Damp=F
 DIIS: error= 4.48D-07 at cycle   7 NSaved=   7.
 NSaved= 7 IEnMin= 7 EnMin= -2905.42795841066     IErMin= 7 ErrMin= 4.48D-07
 ErrMax= 4.48D-07 EMaxC= 1.00D-01 BMatC= 4.23D-11 BMatP= 9.62D-10
 IDIUse=1 WtCom= 1.00D+00 WtEn= 0.00D+00
 Coeff-Com: -0.171D-04 0.563D-02 0.864D-03-0.377D-01-0.706D-01 0.549D-03
 Coeff-Com:  0.110D+01
 Coeff:     -0.171D-04 0.563D-02 0.864D-03-0.377D-01-0.706D-01 0.549D-03
 Coeff:      0.110D+01
 Gap=     0.424 Goal=   None    Shift=    0.000
 RMSDP=7.16D-08 MaxDP=3.06D-06 DE=-1.01D-09 OVMax= 4.49D-06

 Cycle   8  Pass 1  IDiag  1:
 RMSU=  2.17D-08    CP:  1.00D+00  1.15D+00  8.56D-01  1.23D+00  9.14D-01
                    CP:  1.15D+00  1.20D+00
 FoFJK:  IHMeth= 1 ICntrl=     0 DoSepK=T KAlg= 1 I1Cent= 0 FoldK=F
 E= -2905.42795841077     Delta-E=       -0.000000000105 Rises=F Damp=F
 DIIS: error= 6.00D-08 at cycle   8 NSaved=   8.
 NSaved= 8 IEnMin= 8 EnMin= -2905.42795841077     IErMin= 8 ErrMin= 6.00D-08
 ErrMax= 6.00D-08 EMaxC= 1.00D-01 BMatC= 1.91D-12 BMatP= 4.23D-11
 IDIUse=1 WtCom= 1.00D+00 WtEn= 0.00D+00
 Coeff-Com: -0.104D-04 0.195D-02 0.560D-03-0.106D-01-0.215D-01-0.248D-01
 Coeff-Com:  0.201D+00 0.853D+00
 Coeff:     -0.104D-04 0.195D-02 0.560D-03-0.106D-01-0.215D-01-0.248D-01
 Coeff:      0.201D+00 0.853D+00
 Gap=     0.424 Goal=   None    Shift=    0.000
 RMSDP=1.01D-08 MaxDP=2.68D-07 DE=-1.05D-10 OVMax= 6.62D-07

 Cycle   9  Pass 1  IDiag  1:
 RMSU=  4.38D-09    CP:  1.00D+00  1.15D+00  8.56D-01  1.23D+00  9.13D-01
                    CP:  1.15D+00  1.24D+00  1.20D+00
 FoFJK:  IHMeth= 1 ICntrl=     0 DoSepK=T KAlg= 1 I1Cent= 0 FoldK=F
 E= -2905.42795841077     Delta-E=        0.000000000001 Rises=F Damp=F
 DIIS: error= 1.73D-08 at cycle   9 NSaved=   9.
 NSaved= 9 IEnMin= 8 EnMin= -2905.42795841077     IErMin= 9 ErrMin= 1.73D-08
 ErrMax= 1.73D-08 EMaxC= 1.00D-01 BMatC= 1.40D-13 BMatP= 1.91D-12
 IDIUse=1 WtCom= 1.00D+00 WtEn= 0.00D+00
 Coeff-Com:  0.114D-05-0.397D-03-0.682D-04 0.268D-02 0.518D-02-0.239D-03
 Coeff-Com: -0.854D-01 0.334D-01 0.104D+01
 Coeff:      0.114D-05-0.397D-03-0.682D-04 0.268D-02 0.518D-02-0.239D-03
 Coeff:     -0.854D-01 0.334D-01 0.104D+01
 Gap=     0.424 Goal=   None    Shift=    0.000
 RMSDP=5.42D-09 MaxDP=1.78D-07 DE= 1.36D-12 OVMax= 3.71D-07

 SCF Done:  E(RwB97XD) =  -2905.42795841     A.U. after    9 cycles
             Convg  =    0.5420D-08             -V/T =  2.0016
 KE= 2.900928563184D+03 PE=-7.224722841169D+03 EE= 1.274923217820D+03
 Leave Link  502 at Thu Apr 16 13:29:42 2020, MaxMem= 1073741824 cpu:     220.2
 (Enter /home/matheus/.gaussian/g09/l108.exe)
 Variable Step   Value    
 -------- ---- -----------
     1       3    6.236096
 Leave Link  108 at Thu Apr 16 13:29:42 2020, MaxMem= 1073741824 cpu:       0.0
 (Enter /home/matheus/.gaussian/g09/l202.exe)
 ---------------------------------------------------------------------------------------------------
                            Z-MATRIX (ANGSTROMS AND DEGREES)
   CD    Cent   Atom    N1       Length/X        N2       Alpha/Y        N3        Beta/Z          J
 ---------------------------------------------------------------------------------------------------
      1      1  O        0   0.000000          0.000000          0.725000
      2      2  O        0   0.000000          0.000000         -0.725000
      3      3  H        0  -0.795635          0.459360          1.023510
      4      4  H        0   0.000000          0.918721         -1.023510
      5      5  Kr       0   0.000000          3.300000          0.000000
 ---------------------------------------------------------------------------------------------------
                         Z-Matrix orientation:                         
 ---------------------------------------------------------------------
 Center     Atomic      Atomic             Coordinates (Angstroms)
 Number     Number       Type             X           Y           Z
 ---------------------------------------------------------------------
      1          8           0        0.000000    0.000000    0.725000
      2          8           0        0.000000    0.000000   -0.725000
      3          1           0       -0.795635    0.459360    1.023510
      4          1           0        0.000000    0.918721   -1.023510
      5         36           0        0.000000    3.300000    0.000000
 ---------------------------------------------------------------------
                    Distance matrix (angstroms):
                    1          2          3          4          5
     1  O    0.000000
     2  O    1.450000   0.000000
     3  H    0.966000   1.975180   0.000000
     4  H    1.975180   0.966000   2.243734   0.000000
     5  Kr   3.378702   3.378702   3.122474   2.591923   0.000000
 Stoichiometry    H2KrO2
 Framework group  C1[X(H2KrO2)]
 Deg. of freedom     9
 Full point group                 C1      NOp   1
 RotChk:  IX=0 Diff= 5.78D-04
 Largest Abelian subgroup         C1      NOp   1
 Largest concise Abelian subgroup C1      NOp   1
                         Standard orientation:                         
 ---------------------------------------------------------------------
 Center     Atomic      Atomic             Coordinates (Angstroms)
 Number     Number       Type             X           Y           Z
 ---------------------------------------------------------------------
      1          8           0       -2.228211   -0.710162   -0.097599
      2          8           0       -2.222176    0.735069    0.019751
      3          1           0       -1.779090   -1.074366    0.676224
      4          1           0       -1.302279    1.027949    0.053916
      5         36           0        1.074568   -0.004245   -0.002982
 ---------------------------------------------------------------------
 Rotational constants (GHZ):     25.8522415      1.9539408      1.8243366
 Leave Link  202 at Thu Apr 16 13:29:42 2020, MaxMem= 1073741824 cpu:       0.0
 (Enter /home/matheus/.gaussian/g09/l301.exe)
 Standard basis: Aug-CC-pVTZ (5D, 7F)
 Ernie: Thresh=  0.10000D-02 Tol=  0.10000D-05 Strict=F.
 Ernie:  38 primitive shells out of 205 were deleted.
 There are   197 symmetry adapted basis functions of A   symmetry.
 Integral buffers will be    131072 words long.
 Raffenetti 2 integral format.
 Two-electron integral symmetry is turned on.
   197 basis functions,   415 primitive gaussians,   229 cartesian basis functions
    27 alpha electrons       27 beta electrons
       nuclear repulsion energy       140.3090073562 Hartrees.
 IExCor= 4639 DFT=T Ex+Corr=wB97XD ExCW=0 ScaHFX=  1.000000
 ScaDFX=  1.000000  1.000000  1.000000  1.000000 ScalE2=  1.000000  1.000000
 IRadAn=      5 IRanWt=     -1 IRanGd=            0 ICorTp=0
  HFx wShort=  0.000000 wLong=  0.250000 cFull=  0.222036 cShort=  0.000000 cLong=  0.777964
  DFx wShort=  0.000000 wLong=  0.250000 cFull=  0.000000 cShort=  0.000000 cLong=  1.000000
 NAtoms=    5 NActive=    5 NUniq=    5 SFac= 1.00D+00 NAtFMM=   60 NAOKFM=F Big=F
 R6Disp: Dispersion energy =        -0.0011455788 Hartrees.
 Nuclear repulsion after empirical dispersion term =      140.3078617774 Hartrees.
 Leave Link  301 at Thu Apr 16 13:29:42 2020, MaxMem= 1073741824 cpu:       0.2
 (Enter /home/matheus/.gaussian/g09/l302.exe)
 NPDir=0 NMtPBC=     1 NCelOv=     1 NCel=       1 NClECP=     1 NCelD=      1
         NCelK=      1 NCelE2=     1 NClLst=     1 CellRange=     0.0.
 One-electron integrals computed using PRISM.
 NBasis=   197 RedAO= T  NBF=   197
 NBsUse=   197 1.00D-06 NBFU=   197
 Precomputing XC quadrature grid using
 IXCGrd= 2 IRadAn=           5 IRanWt=          -1 IRanGd=           0 AccXCQ= 0.00D+00.
 NRdTot=     427 NPtTot=      123512 NUsed=      126579 NTot=      126611
 NSgBfM=   229   229   229   229   229 NAtAll=     5     5.
 Leave Link  302 at Thu Apr 16 13:29:42 2020, MaxMem= 1073741824 cpu:       1.2
 (Enter /home/matheus/.gaussian/g09/l303.exe)
 DipDrv:  MaxL=1.
 Leave Link  303 at Thu Apr 16 13:29:43 2020, MaxMem= 1073741824 cpu:       0.2
 (Enter /home/matheus/.gaussian/g09/l401.exe)
 Initial guess read from the read-write file.
 B after Tr=     0.000000    0.000000    0.000000
         Rot=    1.000000    0.000000    0.000000    0.000000 Ang=   0.00 deg.
 Guess basis will be translated and rotated to current coordinates.
 Initial guess orbital symmetries:
       Occupied  (A) (A) (A) (A) (A) (A) (A) (A) (A) (A) (A) (A)
                 (A) (A) (A) (A) (A) (A) (A) (A) (A) (A) (A) (A)
                 (A) (A) (A)
       Virtual   (A) (A) (A) (A) (A) (A) (A) (A) (A) (A) (A) (A)
                 (A) (A) (A) (A) (A) (A) (A) (A) (A) (A) (A) (A)
                 (A) (A) (A) (A) (A) (A) (A) (A) (A) (A) (A) (A)
                 (A) (A) (A) (A) (A) (A) (A) (A) (A) (A) (A) (A)
                 (A) (A) (A) (A) (A) (A) (A) (A) (A) (A) (A) (A)
                 (A) (A) (A) (A) (A) (A) (A) (A) (A) (A) (A) (A)
                 (A) (A) (A) (A) (A) (A) (A) (A) (A) (A) (A) (A)
                 (A) (A) (A) (A) (A) (A) (A) (A) (A) (A) (A) (A)
                 (A) (A) (A) (A) (A) (A) (A) (A) (A) (A) (A) (A)
                 (A) (A) (A) (A) (A) (A) (A) (A) (A) (A) (A) (A)
                 (A) (A) (A) (A) (A) (A) (A) (A) (A) (A) (A) (A)
                 (A) (A) (A) (A) (A) (A) (A) (A) (A) (A) (A) (A)
                 (A) (A) (A) (A) (A) (A) (A) (A) (A) (A) (A) (A)
                 (A) (A) (A) (A) (A) (A) (A) (A) (A) (A) (A) (A)
                 (A) (A)
 The electronic state of the initial guess is 1-A.
 Generating alternative initial guess.
 Harris functional with IExCor= 4639 diagonalized for initial guess.
 ExpMin= 2.53D-02 ExpMax= 1.17D+07 ExpMxC= 1.33D+04 IAcc=3 IRadAn=         5 AccDes= 0.00D+00
 HarFok:  IExCor= 4639 AccDes= 0.00D+00 IRadAn=         5 IDoV= 1
 ScaDFX=  1.000000  1.000000  1.000000  1.000000
 FoFCou: FMM=F IPFlag=           0 FMFlag=      100000 FMFlg1=           0
         NFxFlg=           0 DoJE=T BraDBF=F KetDBF=T FulRan=T
         Omega=  0.000000  0.000000  1.000000  0.000000  0.000000 ICntrl=     500 IOpCl=  0
         NMat0=    1 NMatS0=    1 NMatT0=    0 NMatD0=    1 NMtDS0=    0 NMtDT0=    0
         I1Cent=           4 NGrid=           0.
 Petite list used in FoFCou.
 Harris En= -2875.40346063673    
 Leave Link  401 at Thu Apr 16 13:29:43 2020, MaxMem= 1073741824 cpu:       4.4
 (Enter /home/matheus/.gaussian/g09/l502.exe)
 Closed shell SCF:
 Requested convergence on RMS density matrix=1.00D-08 within 128 cycles.
 Requested convergence on MAX density matrix=1.00D-06.
 Requested convergence on             energy=1.00D-06.
 No special actions if energy rises.
 Using DIIS extrapolation, IDIIS=  1040.
 Integral symmetry usage will be decided dynamically.
       126521 words used for storage of precomputed grid.
 IEnd=      305468 IEndB=      305468 NGot=  1073741824 MDV=  1073505667
 LenX=  1073505667 LenY=  1073452785
 Fock matrices will be formed incrementally for  20 cycles.

 Cycle   1  Pass 1  IDiag  1:
 FoFJK:  IHMeth= 1 ICntrl=     0 DoSepK=T KAlg= 1 I1Cent= 0 FoldK=F
 FoFCou: FMM=F IPFlag=           0 FMFlag=      100000 FMFlg1=           0
         NFxFlg=           0 DoJE=T BraDBF=F KetDBF=F FulRan=T
         Omega=  0.000000  0.000000  1.000000  0.000000  0.000000 ICntrl=     500 IOpCl=  0
         NMat0=    1 NMatS0=    1 NMatT0=    0 NMatD0=    1 NMtDS0=    0 NMtDT0=    0
         I1Cent=           0 NGrid=           0.
 Symmetry not used in FoFCou.
 E= -2905.42874338048    
 DIIS: error= 9.40D-04 at cycle   1 NSaved=   1.
 NSaved= 1 IEnMin= 1 EnMin= -2905.42874338048     IErMin= 1 ErrMin= 9.40D-04
 ErrMax= 9.40D-04 EMaxC= 1.00D-01 BMatC= 3.65D-04 BMatP= 3.65D-04
 IDIUse=3 WtCom= 9.91D-01 WtEn= 9.40D-03
 Coeff-Com:  0.100D+01
 Coeff-En:   0.100D+01
 Coeff:      0.100D+01
 Gap=     0.426 Goal=   None    Shift=    0.000
 RMSDP=6.41D-05 MaxDP=1.96D-03              OVMax= 2.38D-03

 Cycle   2  Pass 1  IDiag  1:
 RMSU=  4.53D-05    CP:  1.00D+00
 FoFJK:  IHMeth= 1 ICntrl=     0 DoSepK=T KAlg= 1 I1Cent= 0 FoldK=F
 E= -2905.42880437769     Delta-E=       -0.000060997207 Rises=F Damp=F
 DIIS: error= 8.37D-05 at cycle   2 NSaved=   2.
 NSaved= 2 IEnMin= 2 EnMin= -2905.42880437769     IErMin= 2 ErrMin= 8.37D-05
 ErrMax= 8.37D-05 EMaxC= 1.00D-01 BMatC= 2.36D-06 BMatP= 3.65D-04
 IDIUse=1 WtCom= 1.00D+00 WtEn= 0.00D+00
 Coeff-Com: -0.400D-02 0.100D+01
 Coeff:     -0.400D-02 0.100D+01
 Gap=     0.423 Goal=   None    Shift=    0.000
 RMSDP=1.23D-05 MaxDP=4.37D-04 DE=-6.10D-05 OVMax= 6.15D-04

 Cycle   3  Pass 1  IDiag  1:
 RMSU=  6.59D-06    CP:  1.00D+00  1.12D+00
 FoFJK:  IHMeth= 1 ICntrl=     0 DoSepK=T KAlg= 1 I1Cent= 0 FoldK=F
 E= -2905.42880602373     Delta-E=       -0.000001646037 Rises=F Damp=F
 DIIS: error= 7.04D-05 at cycle   3 NSaved=   3.
 NSaved= 3 IEnMin= 3 EnMin= -2905.42880602373     IErMin= 3 ErrMin= 7.04D-05
 ErrMax= 7.04D-05 EMaxC= 1.00D-01 BMatC= 1.76D-06 BMatP= 2.36D-06
 IDIUse=1 WtCom= 1.00D+00 WtEn= 0.00D+00
 Coeff-Com: -0.702D-02 0.462D+00 0.545D+00
 Coeff:     -0.702D-02 0.462D+00 0.545D+00
 Gap=     0.424 Goal=   None    Shift=    0.000
 RMSDP=4.08D-06 MaxDP=2.14D-04 DE=-1.65D-06 OVMax= 2.96D-04

 Cycle   4  Pass 1  IDiag  1:
 RMSU=  2.23D-06    CP:  1.00D+00  1.14D+00  7.56D-01
 FoFJK:  IHMeth= 1 ICntrl=     0 DoSepK=T KAlg= 1 I1Cent= 0 FoldK=F
 E= -2905.42880712064     Delta-E=       -0.000001096914 Rises=F Damp=F
 DIIS: error= 2.17D-05 at cycle   4 NSaved=   4.
 NSaved= 4 IEnMin= 4 EnMin= -2905.42880712064     IErMin= 4 ErrMin= 2.17D-05
 ErrMax= 2.17D-05 EMaxC= 1.00D-01 BMatC= 1.05D-07 BMatP= 1.76D-06
 IDIUse=1 WtCom= 1.00D+00 WtEn= 0.00D+00
 Coeff-Com: -0.175D-02 0.353D-01 0.183D+00 0.784D+00
 Coeff:     -0.175D-02 0.353D-01 0.183D+00 0.784D+00
 Gap=     0.424 Goal=   None    Shift=    0.000
 RMSDP=1.65D-06 MaxDP=5.26D-05 DE=-1.10D-06 OVMax= 8.98D-05

 Cycle   5  Pass 1  IDiag  1:
 RMSU=  8.18D-07    CP:  1.00D+00  1.15D+00  8.54D-01  1.10D+00
 FoFJK:  IHMeth= 1 ICntrl=     0 DoSepK=T KAlg= 1 I1Cent= 0 FoldK=F
 E= -2905.42880719572     Delta-E=       -0.000000075081 Rises=F Damp=F
 DIIS: error= 8.37D-06 at cycle   5 NSaved=   5.
 NSaved= 5 IEnMin= 5 EnMin= -2905.42880719572     IErMin= 5 ErrMin= 8.37D-06
 ErrMax= 8.37D-06 EMaxC= 1.00D-01 BMatC= 2.40D-08 BMatP= 1.05D-07
 IDIUse=1 WtCom= 1.00D+00 WtEn= 0.00D+00
 Coeff-Com:  0.220D-03-0.563D-01 0.414D-02 0.380D+00 0.671D+00
 Coeff:      0.220D-03-0.563D-01 0.414D-02 0.380D+00 0.671D+00
 Gap=     0.424 Goal=   None    Shift=    0.000
 RMSDP=6.69D-07 MaxDP=2.79D-05 DE=-7.51D-08 OVMax= 3.66D-05

 Cycle   6  Pass 1  IDiag  1:
 RMSU=  2.49D-07    CP:  1.00D+00  1.16D+00  8.88D-01  1.21D+00  8.37D-01
 FoFJK:  IHMeth= 1 ICntrl=     0 DoSepK=T KAlg= 1 I1Cent= 0 FoldK=F
 E= -2905.42880721391     Delta-E=       -0.000000018189 Rises=F Damp=F
 DIIS: error= 1.64D-06 at cycle   6 NSaved=   6.
 NSaved= 6 IEnMin= 6 EnMin= -2905.42880721391     IErMin= 6 ErrMin= 1.64D-06
 ErrMax= 1.64D-06 EMaxC= 1.00D-01 BMatC= 6.60D-10 BMatP= 2.40D-08
 IDIUse=1 WtCom= 1.00D+00 WtEn= 0.00D+00
 Coeff-Com:  0.163D-03-0.197D-01-0.837D-02 0.734D-01 0.203D+00 0.752D+00
 Coeff:      0.163D-03-0.197D-01-0.837D-02 0.734D-01 0.203D+00 0.752D+00
 Gap=     0.424 Goal=   None    Shift=    0.000
 RMSDP=1.44D-07 MaxDP=5.32D-06 DE=-1.82D-08 OVMax= 7.50D-06

 Cycle   7  Pass 1  IDiag  1:
 RMSU=  5.82D-08    CP:  1.00D+00  1.16D+00  8.95D-01  1.23D+00  8.90D-01
                    CP:  1.03D+00
 FoFJK:  IHMeth= 1 ICntrl=     0 DoSepK=T KAlg= 1 I1Cent= 0 FoldK=F
 E= -2905.42880721461     Delta-E=       -0.000000000698 Rises=F Damp=F
 DIIS: error= 4.01D-07 at cycle   7 NSaved=   7.
 NSaved= 7 IEnMin= 7 EnMin= -2905.42880721461     IErMin= 7 ErrMin= 4.01D-07
 ErrMax= 4.01D-07 EMaxC= 1.00D-01 BMatC= 3.07D-11 BMatP= 6.60D-10
 IDIUse=1 WtCom= 1.00D+00 WtEn= 0.00D+00
 Coeff-Com: -0.215D-04 0.604D-02 0.166D-03-0.402D-01-0.726D-01 0.217D-02
 Coeff-Com:  0.110D+01
 Coeff:     -0.215D-04 0.604D-02 0.166D-03-0.402D-01-0.726D-01 0.217D-02
 Coeff:      0.110D+01
 Gap=     0.424 Goal=   None    Shift=    0.000
 RMSDP=6.07D-08 MaxDP=2.61D-06 DE=-6.98D-10 OVMax= 3.98D-06

 Cycle   8  Pass 1  IDiag  1:
 RMSU=  1.90D-08    CP:  1.00D+00  1.16D+00  8.97D-01  1.24D+00  9.03D-01
                    CP:  1.14D+00  1.22D+00
 FoFJK:  IHMeth= 1 ICntrl=     0 DoSepK=T KAlg= 1 I1Cent= 0 FoldK=F
 E= -2905.42880721468     Delta-E=       -0.000000000074 Rises=F Damp=F
 DIIS: error= 4.91D-08 at cycle   8 NSaved=   8.
 NSaved= 8 IEnMin= 8 EnMin= -2905.42880721468     IErMin= 8 ErrMin= 4.91D-08
 ErrMax= 4.91D-08 EMaxC= 1.00D-01 BMatC= 1.15D-12 BMatP= 3.07D-11
 IDIUse=1 WtCom= 1.00D+00 WtEn= 0.00D+00
 Coeff-Com: -0.963D-05 0.173D-02 0.279D-03-0.963D-02-0.188D-01-0.207D-01
 Coeff-Com:  0.181D+00 0.866D+00
 Coeff:     -0.963D-05 0.173D-02 0.279D-03-0.963D-02-0.188D-01-0.207D-01
 Coeff:      0.181D+00 0.866D+00
 Gap=     0.424 Goal=   None    Shift=    0.000
 RMSDP=9.01D-09 MaxDP=2.61D-07 DE=-7.37D-11 OVMax= 6.58D-07

 SCF Done:  E(RwB97XD) =  -2905.42880721     A.U. after    8 cycles
             Convg  =    0.9012D-08             -V/T =  2.0016
 KE= 2.900923288709D+03 PE=-7.218475797764D+03 EE= 1.271815840063D+03
 Leave Link  502 at Thu Apr 16 13:30:07 2020, MaxMem= 1073741824 cpu:     191.1
 (Enter /home/matheus/.gaussian/g09/l108.exe)
 Variable Step   Value    
 -------- ---- -----------
     1       4    6.425069
 Leave Link  108 at Thu Apr 16 13:30:07 2020, MaxMem= 1073741824 cpu:       0.0
 (Enter /home/matheus/.gaussian/g09/l202.exe)
 ---------------------------------------------------------------------------------------------------
                            Z-MATRIX (ANGSTROMS AND DEGREES)
   CD    Cent   Atom    N1       Length/X        N2       Alpha/Y        N3        Beta/Z          J
 ---------------------------------------------------------------------------------------------------
      1      1  O        0   0.000000          0.000000          0.725000
      2      2  O        0   0.000000          0.000000         -0.725000
      3      3  H        0  -0.795635          0.459360          1.023510
      4      4  H        0   0.000000          0.918721         -1.023510
      5      5  Kr       0   0.000000          3.400000          0.000000
 ---------------------------------------------------------------------------------------------------
                         Z-Matrix orientation:                         
 ---------------------------------------------------------------------
 Center     Atomic      Atomic             Coordinates (Angstroms)
 Number     Number       Type             X           Y           Z
 ---------------------------------------------------------------------
      1          8           0        0.000000    0.000000    0.725000
      2          8           0        0.000000    0.000000   -0.725000
      3          1           0       -0.795635    0.459360    1.023510
      4          1           0        0.000000    0.918721   -1.023510
      5         36           0        0.000000    3.400000    0.000000
 ---------------------------------------------------------------------
                    Distance matrix (angstroms):
                    1          2          3          4          5
     1  O    0.000000
     2  O    1.450000   0.000000
     3  H    0.966000   1.975180   0.000000
     4  H    1.975180   0.966000   2.243734   0.000000
     5  Kr   3.476439   3.476439   3.213716   2.684087   0.000000
 Stoichiometry    H2KrO2
 Framework group  C1[X(H2KrO2)]
 Deg. of freedom     9
 Full point group                 C1      NOp   1
 RotChk:  IX=0 Diff= 5.36D-04
 Largest Abelian subgroup         C1      NOp   1
 Largest concise Abelian subgroup C1      NOp   1
                         Standard orientation:                         
 ---------------------------------------------------------------------
 Center     Atomic      Atomic             Coordinates (Angstroms)
 Number     Number       Type             X           Y           Z
 ---------------------------------------------------------------------
      1          8           0       -2.294692   -0.710486   -0.097768
[...]
 IDIUse=1 WtCom= 1.00D+00 WtEn= 0.00D+00
 Coeff-Com: -0.228D-02 0.100D+01
 Coeff:     -0.228D-02 0.100D+01
 Gap=     0.423 Goal=   None    Shift=    0.000
 RMSDP=1.94D-06 MaxDP=5.23D-05 DE=-1.07D-06 OVMax= 9.56D-05

 Cycle   3  Pass 1  IDiag  1:
 RMSU=  8.41D-07    CP:  1.00D+00  1.10D+00
 FoFJK:  IHMeth= 1 ICntrl=     0 DoSepK=T KAlg= 1 I1Cent= 0 FoldK=F
 E= -2905.42868848067     Delta-E=       -0.000000036465 Rises=F Damp=F
 DIIS: error= 7.42D-06 at cycle   3 NSaved=   3.
 NSaved= 3 IEnMin= 3 EnMin= -2905.42868848067     IErMin= 3 ErrMin= 7.42D-06
 ErrMax= 7.42D-06 EMaxC= 1.00D-01 BMatC= 5.81D-09 BMatP= 3.06D-08
 IDIUse=1 WtCom= 1.00D+00 WtEn= 0.00D+00
 Coeff-Com: -0.592D-02 0.270D+00 0.735D+00
 Coeff:     -0.592D-02 0.270D+00 0.735D+00
 Gap=     0.423 Goal=   None    Shift=    0.000
 RMSDP=3.36D-07 MaxDP=8.65D-06 DE=-3.65D-08 OVMax= 3.10D-05

 Cycle   4  Pass 1  IDiag  1:
 RMSU=  2.00D-07    CP:  1.00D+00  1.11D+00  1.02D+00
 FoFJK:  IHMeth= 1 ICntrl=     0 DoSepK=T KAlg= 1 I1Cent= 0 FoldK=F
 E= -2905.42868848594     Delta-E=       -0.000000005273 Rises=F Damp=F
 DIIS: error= 1.75D-06 at cycle   4 NSaved=   4.
 NSaved= 4 IEnMin= 4 EnMin= -2905.42868848594     IErMin= 4 ErrMin= 1.75D-06
 ErrMax= 1.75D-06 EMaxC= 1.00D-01 BMatC= 6.43D-10 BMatP= 5.81D-09
 IDIUse=1 WtCom= 1.00D+00 WtEn= 0.00D+00
 Coeff-Com: -0.158D-02 0.218D-01 0.208D+00 0.772D+00
 Coeff:     -0.158D-02 0.218D-01 0.208D+00 0.772D+00
 Gap=     0.423 Goal=   None    Shift=    0.000
 RMSDP=1.59D-07 MaxDP=5.17D-06 DE=-5.27D-09 OVMax= 9.94D-06

 Cycle   5  Pass 1  IDiag  1:
 RMSU=  7.90D-08    CP:  1.00D+00  1.12D+00  1.10D+00  1.11D+00
 FoFJK:  IHMeth= 1 ICntrl=     0 DoSepK=T KAlg= 1 I1Cent= 0 FoldK=F
 E= -2905.42868848645     Delta-E=       -0.000000000512 Rises=F Damp=F
 DIIS: error= 1.34D-06 at cycle   5 NSaved=   5.
 NSaved= 5 IEnMin= 5 EnMin= -2905.42868848645     IErMin= 5 ErrMin= 1.34D-06
 ErrMax= 1.34D-06 EMaxC= 1.00D-01 BMatC= 2.79D-10 BMatP= 6.43D-10
 IDIUse=1 WtCom= 1.00D+00 WtEn= 0.00D+00
 Coeff-Com:  0.444D-03-0.495D-01-0.515D-01 0.430D+00 0.671D+00
 Coeff:      0.444D-03-0.495D-01-0.515D-01 0.430D+00 0.671D+00
 Gap=     0.423 Goal=   None    Shift=    0.000
 RMSDP=7.71D-08 MaxDP=2.91D-06 DE=-5.12D-10 OVMax= 5.41D-06

 Cycle   6  Pass 1  IDiag  1:
 RMSU=  2.77D-08    CP:  1.00D+00  1.12D+00  1.14D+00  1.26D+00  9.30D-01
 FoFJK:  IHMeth= 1 ICntrl=     0 DoSepK=T KAlg= 1 I1Cent= 0 FoldK=F
 E= -2905.42868848666     Delta-E=       -0.000000000207 Rises=F Damp=F
 DIIS: error= 1.27D-07 at cycle   6 NSaved=   6.
 NSaved= 6 IEnMin= 6 EnMin= -2905.42868848666     IErMin= 6 ErrMin= 1.27D-07
 ErrMax= 1.27D-07 EMaxC= 1.00D-01 BMatC= 6.14D-12 BMatP= 2.79D-10
 IDIUse=1 WtCom= 1.00D+00 WtEn= 0.00D+00
 Coeff-Com:  0.195D-03-0.139D-01-0.241D-01 0.785D-01 0.182D+00 0.777D+00
 Coeff:      0.195D-03-0.139D-01-0.241D-01 0.785D-01 0.182D+00 0.777D+00
 Gap=     0.423 Goal=   None    Shift=    0.000
 RMSDP=1.68D-08 MaxDP=6.72D-07 DE=-2.07D-10 OVMax= 1.24D-06

 Cycle   7  Pass 1  IDiag  1:
 RMSU=  7.99D-09    CP:  1.00D+00  1.12D+00  1.15D+00  1.29D+00  9.96D-01
                    CP:  1.14D+00
 FoFJK:  IHMeth= 1 ICntrl=     0 DoSepK=T KAlg= 1 I1Cent= 0 FoldK=F
 E= -2905.42868848667     Delta-E=       -0.000000000014 Rises=F Damp=F
 DIIS: error= 5.62D-08 at cycle   7 NSaved=   7.
 NSaved= 7 IEnMin= 7 EnMin= -2905.42868848667     IErMin= 7 ErrMin= 5.62D-08
 ErrMax= 5.62D-08 EMaxC= 1.00D-01 BMatC= 1.13D-12 BMatP= 6.14D-12
 IDIUse=1 WtCom= 1.00D+00 WtEn= 0.00D+00
 Coeff-Com: -0.208D-04 0.537D-02 0.143D-02-0.606D-01-0.724D-01 0.267D+00
 Coeff-Com:  0.860D+00
 Coeff:     -0.208D-04 0.537D-02 0.143D-02-0.606D-01-0.724D-01 0.267D+00
 Coeff:      0.860D+00
 Gap=     0.423 Goal=   None    Shift=    0.000
 RMSDP=9.41D-09 MaxDP=3.63D-07 DE=-1.36D-11 OVMax= 6.80D-07

 SCF Done:  E(RwB97XD) =  -2905.42868849     A.U. after    7 cycles
             Convg  =    0.9414D-08             -V/T =  2.0015
 KE= 2.900936168194D+03 PE=-7.152106318503D+03 EE= 1.238810111849D+03
 Leave Link  502 at Thu Apr 16 13:35:47 2020, MaxMem= 1073741824 cpu:     130.2
 (Enter /home/matheus/.gaussian/g09/l108.exe)
 Variable Step   Value    
 -------- ---- -----------
     1      20    9.448631
 Leave Link  108 at Thu Apr 16 13:35:47 2020, MaxMem= 1073741824 cpu:       0.0
 (Enter /home/matheus/.gaussian/g09/l202.exe)
 ---------------------------------------------------------------------------------------------------
                            Z-MATRIX (ANGSTROMS AND DEGREES)
   CD    Cent   Atom    N1       Length/X        N2       Alpha/Y        N3        Beta/Z          J
 ---------------------------------------------------------------------------------------------------
      1      1  O        0   0.000000          0.000000          0.725000
      2      2  O        0   0.000000          0.000000         -0.725000
      3      3  H        0  -0.795635          0.459360          1.023510
      4      4  H        0   0.000000          0.918721         -1.023510
      5      5  Kr       0   0.000000          5.000000          0.000000
 ---------------------------------------------------------------------------------------------------
                         Z-Matrix orientation:                         
 ---------------------------------------------------------------------
 Center     Atomic      Atomic             Coordinates (Angstroms)
 Number     Number       Type             X           Y           Z
 ---------------------------------------------------------------------
      1          8           0        0.000000    0.000000    0.725000
      2          8           0        0.000000    0.000000   -0.725000
      3          1           0       -0.795635    0.459360    1.023510
      4          1           0        0.000000    0.918721   -1.023510
      5         36           0        0.000000    5.000000    0.000000
 ---------------------------------------------------------------------
                    Distance matrix (angstroms):
                    1          2          3          4          5
     1  O    0.000000
     2  O    1.450000   0.000000
     3  H    0.966000   1.975180   0.000000
     4  H    1.975180   0.966000   2.243734   0.000000
     5  Kr   5.052289   5.052289   4.722078   4.207661   0.000000
 Stoichiometry    H2KrO2
 Framework group  C1[X(H2KrO2)]
 Deg. of freedom     9
 Full point group                 C1      NOp   1
 RotChk:  IX=0 Diff= 2.27D-04
 Largest Abelian subgroup         C1      NOp   1
 Largest concise Abelian subgroup C1      NOp   1
                         Standard orientation:                         
 ---------------------------------------------------------------------
 Center     Atomic      Atomic             Coordinates (Angstroms)
 Number     Number       Type             X           Y           Z
 ---------------------------------------------------------------------
      1          8           0       -3.359854   -0.713590   -0.099525
      2          8           0       -3.357398    0.731636    0.018009
      3          1           0       -2.907321   -1.076669    0.672837
      4          1           0       -2.438202    1.027023    0.049337
      5         36           0        1.641210   -0.002631   -0.001946
 ---------------------------------------------------------------------
 Rotational constants (GHZ):     25.8533774      0.8469136      0.8216114
 Leave Link  202 at Thu Apr 16 13:35:47 2020, MaxMem= 1073741824 cpu:       0.0
 (Enter /home/matheus/.gaussian/g09/l301.exe)
 Standard basis: Aug-CC-pVTZ (5D, 7F)
 Ernie: Thresh=  0.10000D-02 Tol=  0.10000D-05 Strict=F.
 Ernie:  38 primitive shells out of 205 were deleted.
 There are   197 symmetry adapted basis functions of A   symmetry.
 Integral buffers will be    131072 words long.
 Raffenetti 2 integral format.
 Two-electron integral symmetry is turned on.
   197 basis functions,   415 primitive gaussians,   229 cartesian basis functions
    27 alpha electrons       27 beta electrons
       nuclear repulsion energy       105.5362465788 Hartrees.
 IExCor= 4639 DFT=T Ex+Corr=wB97XD ExCW=0 ScaHFX=  1.000000
 ScaDFX=  1.000000  1.000000  1.000000  1.000000 ScalE2=  1.000000  1.000000
 IRadAn=      5 IRanWt=     -1 IRanGd=            0 ICorTp=0
  HFx wShort=  0.000000 wLong=  0.250000 cFull=  0.222036 cShort=  0.000000 cLong=  0.777964
  DFx wShort=  0.000000 wLong=  0.250000 cFull=  0.000000 cShort=  0.000000 cLong=  1.000000
 NAtoms=    5 NActive=    5 NUniq=    5 SFac= 1.00D+00 NAtFMM=   60 NAOKFM=F Big=F
 R6Disp: Dispersion energy =        -0.0005150291 Hartrees.
 Nuclear repulsion after empirical dispersion term =      105.5357315497 Hartrees.
 Leave Link  301 at Thu Apr 16 13:35:47 2020, MaxMem= 1073741824 cpu:       0.2
 (Enter /home/matheus/.gaussian/g09/l302.exe)
 NPDir=0 NMtPBC=     1 NCelOv=     1 NCel=       1 NClECP=     1 NCelD=      1
         NCelK=      1 NCelE2=     1 NClLst=     1 CellRange=     0.0.
 One-electron integrals computed using PRISM.
 NBasis=   197 RedAO= T  NBF=   197
 NBsUse=   197 1.00D-06 NBFU=   197
 Precomputing XC quadrature grid using
 IXCGrd= 2 IRadAn=           5 IRanWt=          -1 IRanGd=           0 AccXCQ= 0.00D+00.
 NRdTot=     427 NPtTot=      123814 NUsed=      126881 NTot=      126913
 NSgBfM=   228   228   229   229   229 NAtAll=     5     5.
 Leave Link  302 at Thu Apr 16 13:35:47 2020, MaxMem= 1073741824 cpu:       1.0
 (Enter /home/matheus/.gaussian/g09/l303.exe)
 DipDrv:  MaxL=1.
 Leave Link  303 at Thu Apr 16 13:35:47 2020, MaxMem= 1073741824 cpu:       0.2
 (Enter /home/matheus/.gaussian/g09/l401.exe)
 Initial guess read from the read-write file.
 B after Tr=     0.000000    0.000000    0.000000
         Rot=    1.000000    0.000000    0.000000    0.000000 Ang=   0.00 deg.
 Guess basis will be translated and rotated to current coordinates.
 Initial guess orbital symmetries:
       Occupied  (A) (A) (A) (A) (A) (A) (A) (A) (A) (A) (A) (A)
                 (A) (A) (A) (A) (A) (A) (A) (A) (A) (A) (A) (A)
                 (A) (A) (A)
       Virtual   (A) (A) (A) (A) (A) (A) (A) (A) (A) (A) (A) (A)
                 (A) (A) (A) (A) (A) (A) (A) (A) (A) (A) (A) (A)
                 (A) (A) (A) (A) (A) (A) (A) (A) (A) (A) (A) (A)
                 (A) (A) (A) (A) (A) (A) (A) (A) (A) (A) (A) (A)
                 (A) (A) (A) (A) (A) (A) (A) (A) (A) (A) (A) (A)
                 (A) (A) (A) (A) (A) (A) (A) (A) (A) (A) (A) (A)
                 (A) (A) (A) (A) (A) (A) (A) (A) (A) (A) (A) (A)
                 (A) (A) (A) (A) (A) (A) (A) (A) (A) (A) (A) (A)
                 (A) (A) (A) (A) (A) (A) (A) (A) (A) (A) (A) (A)
                 (A) (A) (A) (A) (A) (A) (A) (A) (A) (A) (A) (A)
                 (A) (A) (A) (A) (A) (A) (A) (A) (A) (A) (A) (A)
                 (A) (A) (A) (A) (A) (A) (A) (A) (A) (A) (A) (A)
                 (A) (A) (A) (A) (A) (A) (A) (A) (A) (A) (A) (A)
                 (A) (A) (A) (A) (A) (A) (A) (A) (A) (A) (A) (A)
                 (A) (A)
 The electronic state of the initial guess is 1-A.
 Generating alternative initial guess.
 Harris functional with IExCor= 4639 diagonalized for initial guess.
 ExpMin= 2.53D-02 ExpMax= 1.17D+07 ExpMxC= 1.33D+04 IAcc=3 IRadAn=         5 AccDes= 0.00D+00
 HarFok:  IExCor= 4639 AccDes= 0.00D+00 IRadAn=         5 IDoV= 1
 ScaDFX=  1.000000  1.000000  1.000000  1.000000
 FoFCou: FMM=F IPFlag=           0 FMFlag=      100000 FMFlg1=           0
         NFxFlg=           0 DoJE=T BraDBF=F KetDBF=T FulRan=T
         Omega=  0.000000  0.000000  1.000000  0.000000  0.000000 ICntrl=     500 IOpCl=  0
         NMat0=    1 NMatS0=    1 NMatT0=    0 NMatD0=    1 NMtDS0=    0 NMtDT0=    0
         I1Cent=           4 NGrid=           0.
 Petite list used in FoFCou.
 Harris En= -2875.40484047731    
 Leave Link  401 at Thu Apr 16 13:35:48 2020, MaxMem= 1073741824 cpu:       4.1
 (Enter /home/matheus/.gaussian/g09/l502.exe)
 Closed shell SCF:
 Requested convergence on RMS density matrix=1.00D-08 within 128 cycles.
 Requested convergence on MAX density matrix=1.00D-06.
 Requested convergence on             energy=1.00D-06.
 No special actions if energy rises.
 Using DIIS extrapolation, IDIIS=  1040.
 Integral symmetry usage will be decided dynamically.
       126823 words used for storage of precomputed grid.
 IEnd=      305770 IEndB=      305770 NGot=  1073741824 MDV=  1073505365
 LenX=  1073505365 LenY=  1073452483
 Fock matrices will be formed incrementally for  20 cycles.

 Cycle   1  Pass 1  IDiag  1:
 FoFJK:  IHMeth= 1 ICntrl=     0 DoSepK=T KAlg= 1 I1Cent= 0 FoldK=F
 FoFCou: FMM=F IPFlag=           0 FMFlag=      100000 FMFlg1=           0
         NFxFlg=           0 DoJE=T BraDBF=F KetDBF=F FulRan=T
         Omega=  0.000000  0.000000  1.000000  0.000000  0.000000 ICntrl=     500 IOpCl=  0
         NMat0=    1 NMatS0=    1 NMatT0=    0 NMatD0=    1 NMtDS0=    0 NMtDT0=    0
         I1Cent=           0 NGrid=           0.
 Symmetry not used in FoFCou.
 E= -2905.42863275078    
 DIIS: error= 1.37D-04 at cycle   1 NSaved=   1.
 NSaved= 1 IEnMin= 1 EnMin= -2905.42863275078     IErMin= 1 ErrMin= 1.37D-04
 ErrMax= 1.37D-04 EMaxC= 1.00D-01 BMatC= 3.69D-06 BMatP= 3.69D-06
 IDIUse=3 WtCom= 9.99D-01 WtEn= 1.37D-03
 Coeff-Com:  0.100D+01
 Coeff-En:   0.100D+01
 Coeff:      0.100D+01
 Gap=     0.423 Goal=   None    Shift=    0.000
 RMSDP=1.42D-05 MaxDP=5.18D-04              OVMax= 4.40D-04

 Cycle   2  Pass 1  IDiag  1:
 RMSU=  1.00D-05    CP:  1.00D+00
 FoFJK:  IHMeth= 1 ICntrl=     0 DoSepK=T KAlg= 1 I1Cent= 0 FoldK=F
 E= -2905.42863364819     Delta-E=       -0.000000897413 Rises=F Damp=F
 DIIS: error= 1.43D-05 at cycle   2 NSaved=   2.
 NSaved= 2 IEnMin= 2 EnMin= -2905.42863364819     IErMin= 2 ErrMin= 1.43D-05
 ErrMax= 1.43D-05 EMaxC= 1.00D-01 BMatC= 2.56D-08 BMatP= 3.69D-06
 IDIUse=1 WtCom= 1.00D+00 WtEn= 0.00D+00
 Coeff-Com: -0.176D-02 0.100D+01
 Coeff:     -0.176D-02 0.100D+01
 Gap=     0.422 Goal=   None    Shift=    0.000
 RMSDP=1.79D-06 MaxDP=4.98D-05 DE=-8.97D-07 OVMax= 8.69D-05

 Cycle   3  Pass 1  IDiag  1:
 RMSU=  7.97D-07    CP:  1.00D+00  1.10D+00
 FoFJK:  IHMeth= 1 ICntrl=     0 DoSepK=T KAlg= 1 I1Cent= 0 FoldK=F
 E= -2905.42863367810     Delta-E=       -0.000000029911 Rises=F Damp=F
 DIIS: error= 6.62D-06 at cycle   3 NSaved=   3.
 NSaved= 3 IEnMin= 3 EnMin= -2905.42863367810     IErMin= 3 ErrMin= 6.62D-06
 ErrMax= 6.62D-06 EMaxC= 1.00D-01 BMatC= 4.82D-09 BMatP= 2.56D-08
 IDIUse=1 WtCom= 1.00D+00 WtEn= 0.00D+00
 Coeff-Com: -0.556D-02 0.271D+00 0.734D+00
 Coeff:     -0.556D-02 0.271D+00 0.734D+00
 Gap=     0.423 Goal=   None    Shift=    0.000
 RMSDP=3.04D-07 MaxDP=7.26D-06 DE=-2.99D-08 OVMax= 2.77D-05

 Cycle   4  Pass 1  IDiag  1:
 RMSU=  1.82D-07    CP:  1.00D+00  1.11D+00  1.03D+00
 FoFJK:  IHMeth= 1 ICntrl=     0 DoSepK=T KAlg= 1 I1Cent= 0 FoldK=F
 E= -2905.42863368249     Delta-E=       -0.000000004386 Rises=F Damp=F
 DIIS: error= 1.35D-06 at cycle   4 NSaved=   4.
 NSaved= 4 IEnMin= 4 EnMin= -2905.42863368249     IErMin= 4 ErrMin= 1.35D-06
 ErrMax= 1.35D-06 EMaxC= 1.00D-01 BMatC= 4.42D-10 BMatP= 4.82D-09
 IDIUse=1 WtCom= 1.00D+00 WtEn= 0.00D+00
 Coeff-Com: -0.131D-02 0.148D-01 0.182D+00 0.805D+00
 Coeff:     -0.131D-02 0.148D-01 0.182D+00 0.805D+00
 Gap=     0.423 Goal=   None    Shift=    0.000
 RMSDP=1.50D-07 MaxDP=4.70D-06 DE=-4.39D-09 OVMax= 8.92D-06

 Cycle   5  Pass 1  IDiag  1:
 RMSU=  7.00D-08    CP:  1.00D+00  1.11D+00  1.11D+00  1.14D+00
 FoFJK:  IHMeth= 1 ICntrl=     0 DoSepK=T KAlg= 1 I1Cent= 0 FoldK=F
 E= -2905.42863368282     Delta-E=       -0.000000000334 Rises=F Damp=F
 DIIS: error= 1.17D-06 at cycle   5 NSaved=   5.
 NSaved= 5 IEnMin= 5 EnMin= -2905.42863368282     IErMin= 5 ErrMin= 1.17D-06
 ErrMax= 1.17D-06 EMaxC= 1.00D-01 BMatC= 2.13D-10 BMatP= 4.42D-10
 IDIUse=1 WtCom= 1.00D+00 WtEn= 0.00D+00
 Coeff-Com:  0.395D-03-0.477D-01-0.499D-01 0.448D+00 0.649D+00
 Coeff:      0.395D-03-0.477D-01-0.499D-01 0.448D+00 0.649D+00
 Gap=     0.423 Goal=   None    Shift=    0.000
 RMSDP=6.57D-08 MaxDP=2.32D-06 DE=-3.34D-10 OVMax= 4.36D-06

 Cycle   6  Pass 1  IDiag  1:
 RMSU=  2.55D-08    CP:  1.00D+00  1.11D+00  1.14D+00  1.28D+00  9.32D-01
 FoFJK:  IHMeth= 1 ICntrl=     0 DoSepK=T KAlg= 1 I1Cent= 0 FoldK=F
 E= -2905.42863368297     Delta-E=       -0.000000000146 Rises=F Damp=F
 DIIS: error= 1.42D-07 at cycle   6 NSaved=   6.
 NSaved= 6 IEnMin= 6 EnMin= -2905.42863368297     IErMin= 6 ErrMin= 1.42D-07
 ErrMax= 1.42D-07 EMaxC= 1.00D-01 BMatC= 6.02D-12 BMatP= 2.13D-10
 IDIUse=1 WtCom= 1.00D+00 WtEn= 0.00D+00
 Coeff-Com:  0.195D-03-0.153D-01-0.257D-01 0.967D-01 0.205D+00 0.739D+00
 Coeff:      0.195D-03-0.153D-01-0.257D-01 0.967D-01 0.205D+00 0.739D+00
 Gap=     0.423 Goal=   None    Shift=    0.000
 RMSDP=1.53D-08 MaxDP=5.85D-07 DE=-1.46D-10 OVMax= 1.06D-06

 Cycle   7  Pass 1  IDiag  1:
 RMSU=  7.49D-09    CP:  1.00D+00  1.11D+00  1.15D+00  1.30D+00  1.00D+00
                    CP:  1.13D+00
 FoFJK:  IHMeth= 1 ICntrl=     0 DoSepK=T KAlg= 1 I1Cent= 0 FoldK=F
 E= -2905.42863368298     Delta-E=       -0.000000000017 Rises=F Damp=F
 DIIS: error= 4.88D-08 at cycle   7 NSaved=   7.
 NSaved= 7 IEnMin= 7 EnMin= -2905.42863368298     IErMin= 7 ErrMin= 4.88D-08
 ErrMax= 4.88D-08 EMaxC= 1.00D-01 BMatC= 9.10D-13 BMatP= 6.02D-12
 IDIUse=1 WtCom= 1.00D+00 WtEn= 0.00D+00
 Coeff-Com: -0.181D-04 0.520D-02 0.150D-02-0.632D-01-0.694D-01 0.235D+00
 Coeff-Com:  0.891D+00
 Coeff:     -0.181D-04 0.520D-02 0.150D-02-0.632D-01-0.694D-01 0.235D+00
 Coeff:      0.891D+00
 Gap=     0.423 Goal=   None    Shift=    0.000
 RMSDP=8.96D-09 MaxDP=3.49D-07 DE=-1.68D-11 OVMax= 6.35D-07

 SCF Done:  E(RwB97XD) =  -2905.42863368     A.U. after    7 cycles
             Convg  =    0.8965D-08             -V/T =  2.0015
 KE= 2.900936667643D+03 PE=-7.149329750314D+03 EE= 1.237428717438D+03
 Leave Link  502 at Thu Apr 16 13:36:04 2020, MaxMem= 1073741824 cpu:     128.4
 (Enter /home/matheus/.gaussian/g09/l108.exe)
 Scan completed.

 Summary of the potential surface scan:
   N      R1          SCF    
 ----  ---------  -----------
    1     3.0000  -2905.42463
    2     3.1000  -2905.42664
    3     3.2000  -2905.42796
    4     3.3000  -2905.42881
    5     3.4000  -2905.42931
    6     3.5000  -2905.42959
    7     3.6000  -2905.42971
    8     3.7000  -2905.42973
    9     3.8000  -2905.42969
   10     3.9000  -2905.42960
   11     4.0000  -2905.42950
   12     4.1000  -2905.42939
   13     4.2000  -2905.42928
   14     4.3000  -2905.42917
   15     4.4000  -2905.42907
   16     4.5000  -2905.42898
   17     4.6000  -2905.42890
   18     4.7000  -2905.42882
   19     4.8000  -2905.42875
   20     4.9000  -2905.42869
   21     5.0000  -2905.42863
 ----  ---------  -----------
  
 Leave Link  108 at Thu Apr 16 13:36:04 2020, MaxMem= 1073741824 cpu:       0.0
 (Enter /home/matheus/.gaussian/g09/l9999.exe)

 Test job not archived.
 1\1\GINC-REDGIANT\Scan\RwB97XD\Aug-CC-pVTZ\H2Kr1O2\ROOT\16-Apr-2020\1\
 \#p wb97xd/aug-cc-PVTz iop(3/107=0250000000) iop(3/108=0250000000) int
 =ultrafine Scan\\TCC\\0,1\O,0,0.,0.,0.725\O,0,0.,0.,-0.725\H,0,-0.7956
 35374,0.4593602974,1.0235104166\H,0,0.,0.9187205947,-1.0235104166\Kr,0
 ,0.,R1,0.\\R1=3.,s,20,0.1\\Version=EM64L-G09RevC.01\State=1-A\HF=-2905
 .4246343,-2905.4266364,-2905.4279584,-2905.4288072,-2905.4293112,-2905
 .4295901,-2905.4297102,-2905.4297283,-2905.4296856,-2905.4296028,-2905
 .429501,-2905.4293921,-2905.429282,-2905.429174,-2905.4290742,-2905.42
 89822,-2905.4288958,-2905.4288187,-2905.4287505,-2905.4286885,-2905.42
 86337\RMSD=5.570e-09,6.243e-09,5.420e-09,9.012e-09,9.089e-09,9.223e-09
 ,9.519e-09,9.397e-09,8.761e-09,7.885e-09,6.733e-09,5.725e-09,4.838e-09
 ,3.934e-09,3.147e-09,2.535e-09,2.224e-09,1.821e-09,1.629e-09,9.414e-09
 ,8.965e-09\PG=C01 [X(H2Kr1O2)]\\@


 LIFE IS A CONTINUAL STRUGGLE AGAINST THE TENDENCY TO PRODUCE ENTROPY.
 Job cpu time:  0 days  1 hours  3 minutes 15.8 seconds.
 File lengths (MBytes):  RWF=     27 Int=      0 D2E=      0 Chk=      4 Scr=      1
 Normal termination of Gaussian 09 at Thu Apr 16 13:36:04 2020.
