 Entering Gaussian System, Link 0=g09
 Input=/home/matheus/.tcc/Inputs-wb97xd/H2O2-Kr_9.com
 Output=/home/matheus/.tcc/Logs-wb97xd/H2O2-Kr_9.log
 Initial command:
 /home/matheus/.gaussian/g09/l1.exe /home/matheus/.gaussian/g09/scratch/Gau-30650.inp -scrdir=/home/matheus/.gaussian/g09/scratch/
 Entering Link 1 = /home/matheus/.gaussian/g09/l1.exe PID=     30653.
  
 Copyright (c) 1988,1990,1992,1993,1995,1998,2003,2009,2011,
            Gaussian, Inc.  All Rights Reserved.
  
 This is part of the Gaussian(R) 09 program.  It is based on
 the Gaussian(R) 03 system (copyright 2003, Gaussian, Inc.),
 the Gaussian(R) 98 system (copyright 1998, Gaussian, Inc.),
 the Gaussian(R) 94 system (copyright 1995, Gaussian, Inc.),
 the Gaussian 92(TM) system (copyright 1992, Gaussian, Inc.),
 the Gaussian 90(TM) system (copyright 1990, Gaussian, Inc.),
 the Gaussian 88(TM) system (copyright 1988, Gaussian, Inc.),
 the Gaussian 86(TM) system (copyright 1986, Carnegie Mellon
 University), and the Gaussian 82(TM) system (copyright 1983,
 Carnegie Mellon University). Gaussian is a federally registered
 trademark of Gaussian, Inc.
  
 This software contains proprietary and confidential information,
 including trade secrets, belonging to Gaussian, Inc.
  
 This software is provided under written license and may be
 used, copied, transmitted, or stored only in accord with that
 written license.
  
 The following legend is applicable only to US Government
 contracts under FAR:
  
                    RESTRICTED RIGHTS LEGEND
  
 Use, reproduction and disclosure by the US Government is
 subject to restrictions as set forth in subparagraphs (a)
 and (c) of the Commercial Computer Software - Restricted
 Rights clause in FAR 52.227-19.
  
 Gaussian, Inc.
 340 Quinnipiac St., Bldg. 40, Wallingford CT 06492
  
  
 ---------------------------------------------------------------
 Warning -- This program may not be used in any manner that
 competes with the business of Gaussian, Inc. or will provide
 assistance to any competitor of Gaussian, Inc.  The licensee
 of this program is prohibited from giving any competitor of
 Gaussian, Inc. access to this program.  By using this program,
 the user acknowledges that Gaussian, Inc. is engaged in the
 business of creating and licensing software in the field of
 computational chemistry and represents and warrants to the
 licensee that it is not a competitor of Gaussian, Inc. and that
 it will not use this program in any manner prohibited above.
 ---------------------------------------------------------------
  

 Cite this work as:
 Gaussian 09, Revision C.01,
 M. J. Frisch, G. W. Trucks, H. B. Schlegel, G. E. Scuseria, 
 M. A. Robb, J. R. Cheeseman, G. Scalmani, V. Barone, B. Mennucci, 
 G. A. Petersson, H. Nakatsuji, M. Caricato, X. Li, H. P. Hratchian, 
 A. F. Izmaylov, J. Bloino, G. Zheng, J. L. Sonnenberg, M. Hada, 
 M. Ehara, K. Toyota, R. Fukuda, J. Hasegawa, M. Ishida, T. Nakajima, 
 Y. Honda, O. Kitao, H. Nakai, T. Vreven, J. A. Montgomery, Jr., 
 J. E. Peralta, F. Ogliaro, M. Bearpark, J. J. Heyd, E. Brothers, 
 K. N. Kudin, V. N. Staroverov, T. Keith, R. Kobayashi, J. Normand, 
 K. Raghavachari, A. Rendell, J. C. Burant, S. S. Iyengar, J. Tomasi, 
 M. Cossi, N. Rega, J. M. Millam, M. Klene, J. E. Knox, J. B. Cross, 
 V. Bakken, C. Adamo, J. Jaramillo, R. Gomperts, R. E. Stratmann, 
 O. Yazyev, A. J. Austin, R. Cammi, C. Pomelli, J. W. Ochterski, 
 R. L. Martin, K. Morokuma, V. G. Zakrzewski, G. A. Voth, 
 P. Salvador, J. J. Dannenberg, S. Dapprich, A. D. Daniels, 
 O. Farkas, J. B. Foresman, J. V. Ortiz, J. Cioslowski, 
 and D. J. Fox, Gaussian, Inc., Wallingford CT, 2010.
 
 ******************************************
 Gaussian 09:  EM64L-G09RevC.01 23-Sep-2011
                16-Apr-2020 
 ******************************************
 %mem=8GB
 %nproc=8
 Will use up to    8 processors via shared memory.
 ----------------------------------------------------------------------
 #p wb97xd/aug-cc-PVTz iop(3/107=0250000000) iop(3/108=0250000000) int=
 ultrafine Scan
 ----------------------------------------------------------------------
 1/38=1,60=1/1,8;
 2/12=2,17=6,18=5,29=3,40=1/2;
 3/5=16,6=1,7=10,11=2,16=1,25=1,30=1,74=-58,75=-5,107=250000000,108=250000000/1,2,3;
 4//1;
 5/5=2,38=5/2;
 6/7=2,8=2,9=2,10=2,18=1,28=1/1;
 1/60=1/8(1);
 99/9=1/99;
 2/29=3/2;
 3/5=16,6=1,7=10,11=2,16=1,25=1,30=1,74=-58,75=-5,107=250000000,108=250000000/1,2,3;
 4/5=5,16=3/1;
 5/5=2,38=5/2;
 1/60=1/8(-4);
 99/9=1/99;
 Leave Link    1 at Thu Apr 16 10:07:58 2020, MaxMem= 1073741824 cpu:       0.1
 (Enter /home/matheus/.gaussian/g09/l101.exe)
 ---
 TCC
 ---
 Charge =  0 Multiplicity = 1
 Symbolic Z-Matrix:
 O                     0.        0.        0.725 
 O                     0.        0.       -0.725 
 H                     0.91872   0.        1.02351 
 H                     0.        0.91872  -1.02351 
 Kr                    0.       R1        0. 
       Variables:
  R1                    3.     Scan 20    0.1    
 
 NAtoms=      5 NQM=        0 NQMF=       0 NMMI=      5 NMMIF=      0
                NMic=       0 NMicF=      0.
                    Isotopes and Nuclear Properties:
 (Nuclear quadrupole moments (NQMom) in fm**2, nuclear magnetic moments (NMagM)
  in nuclear magnetons)

  Atom         1           2           3           4           5
 IAtWgt=          16          16           1           1          84
 AtmWgt=  15.9949146  15.9949146   1.0078250   1.0078250  83.9115064
 NucSpn=           0           0           1           1           0
 AtZEff=   0.0000000   0.0000000   0.0000000   0.0000000   0.0000000
 NQMom=    0.0000000   0.0000000   0.0000000   0.0000000   0.0000000
 NMagM=    0.0000000   0.0000000   2.7928460   2.7928460   0.0000000
 Leave Link  101 at Thu Apr 16 10:07:58 2020, MaxMem= 1073741824 cpu:       0.3
 (Enter /home/matheus/.gaussian/g09/l108.exe)
 Scan the potential surface.
 Variable   Value     No. Steps Step-Size
 -------- ----------- --------- ---------
     1       3.000000      20      0.1000
 A total of     21 points will be computed.
 Leave Link  108 at Thu Apr 16 10:07:58 2020, MaxMem= 1073741824 cpu:       0.0
 (Enter /home/matheus/.gaussian/g09/l202.exe)
 ---------------------------------------------------------------------------------------------------
                            Z-MATRIX (ANGSTROMS AND DEGREES)
   CD    Cent   Atom    N1       Length/X        N2       Alpha/Y        N3        Beta/Z          J
 ---------------------------------------------------------------------------------------------------
      1      1  O        0   0.000000          0.000000          0.725000
      2      2  O        0   0.000000          0.000000         -0.725000
      3      3  H        0   0.918721          0.000000          1.023510
      4      4  H        0   0.000000          0.918721         -1.023510
      5      5  Kr       0   0.000000          3.000000          0.000000
 ---------------------------------------------------------------------------------------------------
                         Z-Matrix orientation:                         
 ---------------------------------------------------------------------
 Center     Atomic      Atomic             Coordinates (Angstroms)
 Number     Number       Type             X           Y           Z
 ---------------------------------------------------------------------
      1          8           0        0.000000    0.000000    0.725000
      2          8           0        0.000000    0.000000   -0.725000
      3          1           0        0.918721    0.000000    1.023510
      4          1           0        0.000000    0.918721   -1.023510
      5         36           0        0.000000    3.000000    0.000000
 ---------------------------------------------------------------------
                    Distance matrix (angstroms):
                    1          2          3          4          5
     1  O    0.000000
     2  O    1.450000   0.000000
     3  H    0.966000   1.975180   0.000000
     4  H    1.975180   0.966000   2.424539   0.000000
     5  Kr   3.086361   3.086361   3.300246   2.319331   0.000000
 Stoichiometry    H2KrO2
 Framework group  C1[X(H2KrO2)]
 Deg. of freedom     9
 Full point group                 C1      NOp   1
 Largest Abelian subgroup         C1      NOp   1
 Largest concise Abelian subgroup C1      NOp   1
                         Standard orientation:                         
 ---------------------------------------------------------------------
 Center     Atomic      Atomic             Coordinates (Angstroms)
 Number     Number       Type             X           Y           Z
 ---------------------------------------------------------------------
      1          8           0        2.023612   -0.696492   -0.118952
      2          8           0        2.008959    0.747023    0.017247
      3          1           0        2.043021   -1.079789    0.767536
      4          1           0        1.087415    1.033416    0.060735
      5         36           0       -0.983084   -0.009941   -0.000406
 ---------------------------------------------------------------------
 Rotational constants (GHZ):     25.5933462      2.3453767      2.1627661
 Leave Link  202 at Thu Apr 16 10:07:58 2020, MaxMem= 1073741824 cpu:       0.0
 (Enter /home/matheus/.gaussian/g09/l301.exe)
 Standard basis: Aug-CC-pVTZ (5D, 7F)
 Ernie: Thresh=  0.10000D-02 Tol=  0.10000D-05 Strict=F.
 Ernie:  38 primitive shells out of 205 were deleted.
 There are   197 symmetry adapted basis functions of A   symmetry.
 Integral buffers will be    131072 words long.
 Raffenetti 2 integral format.
 Two-electron integral symmetry is turned on.
   197 basis functions,   415 primitive gaussians,   229 cartesian basis functions
    27 alpha electrons       27 beta electrons
       nuclear repulsion energy       149.3716944117 Hartrees.
 IExCor= 4639 DFT=T Ex+Corr=wB97XD ExCW=0 ScaHFX=  1.000000
 ScaDFX=  1.000000  1.000000  1.000000  1.000000 ScalE2=  1.000000  1.000000
 IRadAn=      5 IRanWt=     -1 IRanGd=            0 ICorTp=0
  HFx wShort=  0.000000 wLong=  0.250000 cFull=  0.222036 cShort=  0.000000 cLong=  0.777964
  DFx wShort=  0.000000 wLong=  0.250000 cFull=  0.000000 cShort=  0.000000 cLong=  1.000000
 NAtoms=    5 NActive=    5 NUniq=    5 SFac= 1.00D+00 NAtFMM=   60 NAOKFM=F Big=F
 R6Disp: Dispersion energy =        -0.0009500984 Hartrees.
 Nuclear repulsion after empirical dispersion term =      149.3707443132 Hartrees.
 Leave Link  301 at Thu Apr 16 10:07:58 2020, MaxMem= 1073741824 cpu:       0.2
 (Enter /home/matheus/.gaussian/g09/l302.exe)
 NPDir=0 NMtPBC=     1 NCelOv=     1 NCel=       1 NClECP=     1 NCelD=      1
         NCelK=      1 NCelE2=     1 NClLst=     1 CellRange=     0.0.
 One-electron integrals computed using PRISM.
 NBasis=   197 RedAO= T  NBF=   197
 NBsUse=   197 1.00D-06 NBFU=   197
 Precomputing XC quadrature grid using
 IXCGrd= 2 IRadAn=           5 IRanWt=          -1 IRanGd=           0 AccXCQ= 0.00D+00.
 NRdTot=     427 NPtTot=      123512 NUsed=      126579 NTot=      126611
 NSgBfM=   229   229   229   229   229 NAtAll=     5     5.
 Leave Link  302 at Thu Apr 16 10:07:58 2020, MaxMem= 1073741824 cpu:       1.0
 (Enter /home/matheus/.gaussian/g09/l303.exe)
 DipDrv:  MaxL=1.
 Leave Link  303 at Thu Apr 16 10:07:58 2020, MaxMem= 1073741824 cpu:       0.2
 (Enter /home/matheus/.gaussian/g09/l401.exe)
 Harris functional with IExCor= 4639 diagonalized for initial guess.
 ExpMin= 2.53D-02 ExpMax= 1.17D+07 ExpMxC= 1.33D+04 IAcc=3 IRadAn=         5 AccDes= 0.00D+00
 HarFok:  IExCor= 4639 AccDes= 0.00D+00 IRadAn=         5 IDoV= 1
 ScaDFX=  1.000000  1.000000  1.000000  1.000000
 FoFCou: FMM=F IPFlag=           0 FMFlag=      100000 FMFlg1=           0
         NFxFlg=           0 DoJE=T BraDBF=F KetDBF=T FulRan=T
         Omega=  0.000000  0.000000  1.000000  0.000000  0.000000 ICntrl=     500 IOpCl=  0
         NMat0=    1 NMatS0=    1 NMatT0=    0 NMatD0=    1 NMtDS0=    0 NMtDT0=    0
         I1Cent=           4 NGrid=           0.
 Petite list used in FoFCou.
 Harris En= -2875.39787629820    
 Initial guess orbital symmetries:
       Occupied  (A) (A) (A) (A) (A) (A) (A) (A) (A) (A) (A) (A)
                 (A) (A) (A) (A) (A) (A) (A) (A) (A) (A) (A) (A)
                 (A) (A) (A)
       Virtual   (A) (A) (A) (A) (A) (A) (A) (A) (A) (A) (A) (A)
                 (A) (A) (A) (A) (A) (A) (A) (A) (A) (A) (A) (A)
                 (A) (A) (A) (A) (A) (A) (A) (A) (A) (A) (A) (A)
                 (A) (A) (A) (A) (A) (A) (A) (A) (A) (A) (A) (A)
                 (A) (A) (A) (A) (A) (A) (A) (A) (A) (A) (A) (A)
                 (A) (A) (A) (A) (A) (A) (A) (A) (A) (A) (A) (A)
                 (A) (A) (A) (A) (A) (A) (A) (A) (A) (A) (A) (A)
                 (A) (A) (A) (A) (A) (A) (A) (A) (A) (A) (A) (A)
                 (A) (A) (A) (A) (A) (A) (A) (A) (A) (A) (A) (A)
                 (A) (A) (A) (A) (A) (A) (A) (A) (A) (A) (A) (A)
                 (A) (A) (A) (A) (A) (A) (A) (A) (A) (A) (A) (A)
                 (A) (A) (A) (A) (A) (A) (A) (A) (A) (A) (A) (A)
                 (A) (A) (A) (A) (A) (A) (A) (A) (A) (A) (A) (A)
                 (A) (A) (A) (A) (A) (A) (A) (A) (A) (A) (A) (A)
                 (A) (A)
 The electronic state of the initial guess is 1-A.
 Leave Link  401 at Thu Apr 16 10:07:58 2020, MaxMem= 1073741824 cpu:       4.0
 (Enter /home/matheus/.gaussian/g09/l502.exe)
 Closed shell SCF:
 Requested convergence on RMS density matrix=1.00D-08 within 128 cycles.
 Requested convergence on MAX density matrix=1.00D-06.
 Requested convergence on             energy=1.00D-06.
 No special actions if energy rises.
 Using DIIS extrapolation, IDIIS=  1040.
 Integral symmetry usage will be decided dynamically.
       126521 words used for storage of precomputed grid.
 IEnd=      305468 IEndB=      305468 NGot=  1073741824 MDV=  1073505667
 LenX=  1073505667 LenY=  1073452785
 Fock matrices will be formed incrementally for  20 cycles.

 Cycle   1  Pass 1  IDiag  1:
 FoFJK:  IHMeth= 1 ICntrl=     0 DoSepK=T KAlg= 1 I1Cent= 0 FoldK=F
 FoFCou: FMM=F IPFlag=           0 FMFlag=      100000 FMFlg1=           0
         NFxFlg=           0 DoJE=T BraDBF=F KetDBF=F FulRan=T
         Omega=  0.000000  0.000000  1.000000  0.000000  0.000000 ICntrl=     500 IOpCl=  0
         NMat0=    1 NMatS0=    1 NMatT0=    0 NMatD0=    1 NMtDS0=    0 NMtDT0=    0
         I1Cent=           0 NGrid=           0.
 Symmetry not used in FoFCou.
 E= -2904.90277201192    
 DIIS: error= 6.35D-02 at cycle   1 NSaved=   1.
 NSaved= 1 IEnMin= 1 EnMin= -2904.90277201192     IErMin= 1 ErrMin= 6.35D-02
 ErrMax= 6.35D-02 EMaxC= 1.00D-01 BMatC= 2.22D+00 BMatP= 2.22D+00
 IDIUse=3 WtCom= 3.65D-01 WtEn= 6.35D-01
 Coeff-Com:  0.100D+01
 Coeff-En:   0.100D+01
 Coeff:      0.100D+01
 Gap=     0.567 Goal=   None    Shift=    0.000
 GapD=    0.567 DampG=2.000 DampE=0.500 DampFc=1.0000 IDamp=-1.
 RMSDP=6.11D-03 MaxDP=3.66D-01              OVMax= 1.82D-01

 Cycle   2  Pass 1  IDiag  1:
 RMSU=  4.29D-03    CP:  1.03D+00
 FoFJK:  IHMeth= 1 ICntrl=     0 DoSepK=T KAlg= 1 I1Cent= 0 FoldK=F
 E= -2905.22346791574     Delta-E=       -0.320695903815 Rises=F Damp=F
 DIIS: error= 3.08D-02 at cycle   2 NSaved=   2.
 NSaved= 2 IEnMin= 2 EnMin= -2905.22346791574     IErMin= 2 ErrMin= 3.08D-02
 ErrMax= 3.08D-02 EMaxC= 1.00D-01 BMatC= 5.65D-01 BMatP= 2.22D+00
 IDIUse=3 WtCom= 6.92D-01 WtEn= 3.08D-01
 Coeff-Com:  0.328D+00 0.672D+00
 Coeff-En:   0.198D+00 0.802D+00
 Coeff:      0.288D+00 0.712D+00
 Gap=     0.515 Goal=   None    Shift=    0.000
 RMSDP=2.67D-03 MaxDP=1.56D-01 DE=-3.21D-01 OVMax= 7.41D-02

 Cycle   3  Pass 1  IDiag  1:
 RMSU=  5.61D-04    CP:  1.02D+00  5.82D-01
 FoFJK:  IHMeth= 1 ICntrl=     0 DoSepK=T KAlg= 1 I1Cent= 0 FoldK=F
 E= -2905.41790075368     Delta-E=       -0.194432837942 Rises=F Damp=F
 DIIS: error= 6.30D-03 at cycle   3 NSaved=   3.
 NSaved= 3 IEnMin= 3 EnMin= -2905.41790075368     IErMin= 3 ErrMin= 6.30D-03
 ErrMax= 6.30D-03 EMaxC= 1.00D-01 BMatC= 1.83D-02 BMatP= 5.65D-01
 IDIUse=3 WtCom= 9.37D-01 WtEn= 6.30D-02
 Coeff-Com:  0.347D-01 0.189D+00 0.776D+00
 Coeff-En:   0.000D+00 0.000D+00 0.100D+01
 Coeff:      0.325D-01 0.177D+00 0.790D+00
 Gap=     0.462 Goal=   None    Shift=    0.000
 RMSDP=4.79D-04 MaxDP=1.90D-02 DE=-1.94D-01 OVMax= 2.71D-02

 Cycle   4  Pass 1  IDiag  1:
 RMSU=  2.31D-04    CP:  1.02D+00  6.38D-01  9.03D-01
 FoFJK:  IHMeth= 1 ICntrl=     0 DoSepK=T KAlg= 1 I1Cent= 0 FoldK=F
 E= -2905.42629092080     Delta-E=       -0.008390167123 Rises=F Damp=F
 DIIS: error= 2.32D-03 at cycle   4 NSaved=   4.
 NSaved= 4 IEnMin= 4 EnMin= -2905.42629092080     IErMin= 4 ErrMin= 2.32D-03
 ErrMax= 2.32D-03 EMaxC= 1.00D-01 BMatC= 1.81D-03 BMatP= 1.83D-02
 IDIUse=3 WtCom= 9.77D-01 WtEn= 2.32D-02
 Coeff-Com: -0.244D-02 0.478D-01 0.369D+00 0.586D+00
 Coeff-En:   0.000D+00 0.000D+00 0.000D+00 0.100D+01
 Coeff:     -0.238D-02 0.466D-01 0.360D+00 0.595D+00
 Gap=     0.446 Goal=   None    Shift=    0.000
 RMSDP=1.20D-04 MaxDP=6.87D-03 DE=-8.39D-03 OVMax= 6.81D-03

 Cycle   5  Pass 1  IDiag  1:
 RMSU=  4.00D-05    CP:  1.02D+00  6.36D-01  9.50D-01  7.01D-01
 FoFJK:  IHMeth= 1 ICntrl=     0 DoSepK=T KAlg= 1 I1Cent= 0 FoldK=F
 E= -2905.42738381109     Delta-E=       -0.001092890291 Rises=F Damp=F
 DIIS: error= 2.41D-04 at cycle   5 NSaved=   5.
 NSaved= 5 IEnMin= 5 EnMin= -2905.42738381109     IErMin= 5 ErrMin= 2.41D-04
 ErrMax= 2.41D-04 EMaxC= 1.00D-01 BMatC= 2.13D-05 BMatP= 1.81D-03
 IDIUse=3 WtCom= 9.98D-01 WtEn= 2.41D-03
 Coeff-Com: -0.140D-02 0.896D-02 0.888D-01 0.163D+00 0.741D+00
 Coeff-En:   0.000D+00 0.000D+00 0.000D+00 0.000D+00 0.100D+01
 Coeff:     -0.139D-02 0.894D-02 0.886D-01 0.162D+00 0.742D+00
 Gap=     0.445 Goal=   None    Shift=    0.000
 RMSDP=2.23D-05 MaxDP=9.93D-04 DE=-1.09D-03 OVMax= 1.43D-03

 Cycle   6  Pass 1  IDiag  1:
 RMSU=  1.39D-05    CP:  1.02D+00  6.36D-01  9.59D-01  7.18D-01  1.10D+00
 FoFJK:  IHMeth= 1 ICntrl=     0 DoSepK=T KAlg= 1 I1Cent= 0 FoldK=F
 E= -2905.42739450619     Delta-E=       -0.000010695099 Rises=F Damp=F
 DIIS: error= 1.62D-04 at cycle   6 NSaved=   6.
 NSaved= 6 IEnMin= 6 EnMin= -2905.42739450619     IErMin= 6 ErrMin= 1.62D-04
 ErrMax= 1.62D-04 EMaxC= 1.00D-01 BMatC= 1.05D-05 BMatP= 2.13D-05
 IDIUse=3 WtCom= 9.98D-01 WtEn= 1.62D-03
 Coeff-Com: -0.264D-03-0.602D-02-0.330D-01-0.445D-01 0.425D+00 0.659D+00
 Coeff-En:   0.000D+00 0.000D+00 0.000D+00 0.000D+00 0.212D+00 0.788D+00
 Coeff:     -0.264D-03-0.601D-02-0.329D-01-0.444D-01 0.424D+00 0.659D+00
 Gap=     0.445 Goal=   None    Shift=    0.000
 RMSDP=1.19D-05 MaxDP=4.61D-04 DE=-1.07D-05 OVMax= 7.07D-04

 Cycle   7  Pass 1  IDiag  1:
 RMSU=  3.63D-06    CP:  1.02D+00  6.36D-01  9.65D-01  7.26D-01  1.24D+00
                    CP:  7.98D-01
 FoFJK:  IHMeth= 1 ICntrl=     0 DoSepK=T KAlg= 1 I1Cent= 0 FoldK=F
 E= -2905.42740206887     Delta-E=       -0.000007562675 Rises=F Damp=F
 DIIS: error= 1.44D-05 at cycle   7 NSaved=   7.
 NSaved= 7 IEnMin= 7 EnMin= -2905.42740206887     IErMin= 7 ErrMin= 1.44D-05
 ErrMax= 1.44D-05 EMaxC= 1.00D-01 BMatC= 9.09D-08 BMatP= 1.05D-05
 IDIUse=1 WtCom= 1.00D+00 WtEn= 0.00D+00
 Coeff-Com:  0.273D-04-0.120D-02-0.844D-02-0.125D-01 0.209D-02 0.754D-01
 Coeff-Com:  0.945D+00
 Coeff:      0.273D-04-0.120D-02-0.844D-02-0.125D-01 0.209D-02 0.754D-01
 Coeff:      0.945D+00
 Gap=     0.445 Goal=   None    Shift=    0.000
 RMSDP=2.47D-06 MaxDP=8.47D-05 DE=-7.56D-06 OVMax= 2.10D-04

 Cycle   8  Pass 1  IDiag  1:
 RMSU=  8.43D-07    CP:  1.02D+00  6.36D-01  9.66D-01  7.28D-01  1.27D+00
                    CP:  8.51D-01  1.18D+00
 FoFJK:  IHMeth= 1 ICntrl=     0 DoSepK=T KAlg= 1 I1Cent= 0 FoldK=F
 E= -2905.42740224170     Delta-E=       -0.000000172831 Rises=F Damp=F
 DIIS: error= 3.84D-06 at cycle   8 NSaved=   8.
 NSaved= 8 IEnMin= 8 EnMin= -2905.42740224170     IErMin= 8 ErrMin= 3.84D-06
 ErrMax= 3.84D-06 EMaxC= 1.00D-01 BMatC= 5.28D-09 BMatP= 9.09D-08
 IDIUse=1 WtCom= 1.00D+00 WtEn= 0.00D+00
 Coeff-Com:  0.160D-04 0.258D-03 0.133D-02 0.153D-02-0.247D-01-0.324D-01
 Coeff-Com:  0.272D-01 0.103D+01
 Coeff:      0.160D-04 0.258D-03 0.133D-02 0.153D-02-0.247D-01-0.324D-01
 Coeff:      0.272D-01 0.103D+01
 Gap=     0.445 Goal=   None    Shift=    0.000
 RMSDP=7.42D-07 MaxDP=1.87D-05 DE=-1.73D-07 OVMax= 8.27D-05

 Cycle   9  Pass 1  IDiag  1:
 RMSU=  2.53D-07    CP:  1.02D+00  6.36D-01  9.66D-01  7.27D-01  1.27D+00
                    CP:  8.61D-01  1.26D+00  1.31D+00
 FoFJK:  IHMeth= 1 ICntrl=     0 DoSepK=T KAlg= 1 I1Cent= 0 FoldK=F
 E= -2905.42740225739     Delta-E=       -0.000000015694 Rises=F Damp=F
 DIIS: error= 1.58D-06 at cycle   9 NSaved=   9.
 NSaved= 9 IEnMin= 9 EnMin= -2905.42740225739     IErMin= 9 ErrMin= 1.58D-06
 ErrMax= 1.58D-06 EMaxC= 1.00D-01 BMatC= 4.79D-10 BMatP= 5.28D-09
 IDIUse=1 WtCom= 1.00D+00 WtEn= 0.00D+00
 Coeff-Com: -0.226D-05 0.727D-04 0.526D-03 0.604D-03 0.617D-03-0.242D-02
 Coeff-Com: -0.564D-01-0.942D-01 0.115D+01
 Coeff:     -0.226D-05 0.727D-04 0.526D-03 0.604D-03 0.617D-03-0.242D-02
 Coeff:     -0.564D-01-0.942D-01 0.115D+01
 Gap=     0.445 Goal=   None    Shift=    0.000
 RMSDP=2.78D-07 MaxDP=7.55D-06 DE=-1.57D-08 OVMax= 3.64D-05

 Cycle  10  Pass 1  IDiag  1:
 RMSU=  8.72D-08    CP:  1.02D+00  6.36D-01  9.66D-01  7.27D-01  1.27D+00
                    CP:  8.62D-01  1.27D+00  1.43D+00  1.45D+00
 FoFJK:  IHMeth= 1 ICntrl=     0 DoSepK=T KAlg= 1 I1Cent= 0 FoldK=F
 E= -2905.42740225926     Delta-E=       -0.000000001872 Rises=F Damp=F
 DIIS: error= 3.81D-07 at cycle  10 NSaved=  10.
 NSaved=10 IEnMin=10 EnMin= -2905.42740225926     IErMin=10 ErrMin= 3.81D-07
 ErrMax= 3.81D-07 EMaxC= 1.00D-01 BMatC= 5.82D-11 BMatP= 4.79D-10
 IDIUse=1 WtCom= 1.00D+00 WtEn= 0.00D+00
 Coeff-Com: -0.835D-06-0.162D-04-0.885D-04-0.950D-04 0.213D-02 0.295D-02
 Coeff-Com: -0.259D-03-0.121D+00 0.117D+00 0.100D+01
 Coeff:     -0.835D-06-0.162D-04-0.885D-04-0.950D-04 0.213D-02 0.295D-02
 Coeff:     -0.259D-03-0.121D+00 0.117D+00 0.100D+01
 Gap=     0.445 Goal=   None    Shift=    0.000
 RMSDP=8.70D-08 MaxDP=2.01D-06 DE=-1.87D-09 OVMax= 1.21D-05

 Cycle  11  Pass 1  IDiag  1:
 RMSU=  2.20D-08    CP:  1.02D+00  6.36D-01  9.66D-01  7.27D-01  1.27D+00
                    CP:  8.62D-01  1.27D+00  1.45D+00  1.62D+00  1.30D+00
 FoFJK:  IHMeth= 1 ICntrl=     0 DoSepK=T KAlg= 1 I1Cent= 0 FoldK=F
 E= -2905.42740225945     Delta-E=       -0.000000000187 Rises=F Damp=F
 DIIS: error= 1.36D-07 at cycle  11 NSaved=  11.
 NSaved=11 IEnMin=11 EnMin= -2905.42740225945     IErMin=11 ErrMin= 1.36D-07
 ErrMax= 1.36D-07 EMaxC= 1.00D-01 BMatC= 5.96D-12 BMatP= 5.82D-11
 IDIUse=1 WtCom= 1.00D+00 WtEn= 0.00D+00
 Coeff-Com:  0.496D-06-0.669D-05-0.555D-04-0.446D-04-0.302D-03 0.105D-04
 Coeff-Com:  0.802D-02 0.110D-01-0.126D+00-0.923D-01 0.120D+01
 Coeff:      0.496D-06-0.669D-05-0.555D-04-0.446D-04-0.302D-03 0.105D-04
 Coeff:      0.802D-02 0.110D-01-0.126D+00-0.923D-01 0.120D+01
 Gap=     0.445 Goal=   None    Shift=    0.000
 RMSDP=3.47D-08 MaxDP=7.02D-07 DE=-1.87D-10 OVMax= 5.06D-06

 Cycle  12  Pass 1  IDiag  1:
 RMSU=  6.90D-09    CP:  1.02D+00  6.36D-01  9.66D-01  7.27D-01  1.27D+00
                    CP:  8.62D-01  1.27D+00  1.46D+00  1.68D+00  1.48D+00
                    CP:  1.37D+00
 FoFJK:  IHMeth= 1 ICntrl=     0 DoSepK=T KAlg= 1 I1Cent= 0 FoldK=F
 E= -2905.42740225949     Delta-E=       -0.000000000036 Rises=F Damp=F
 DIIS: error= 3.66D-08 at cycle  12 NSaved=  12.
 NSaved=12 IEnMin=12 EnMin= -2905.42740225949     IErMin=12 ErrMin= 3.66D-08
 ErrMax= 3.66D-08 EMaxC= 1.00D-01 BMatC= 2.83D-13 BMatP= 5.96D-12
 IDIUse=1 WtCom= 1.00D+00 WtEn= 0.00D+00
 Coeff-Com: -0.438D-07 0.817D-06 0.697D-05-0.115D-05-0.109D-03-0.159D-03
 Coeff-Com: -0.274D-03 0.558D-02 0.692D-02-0.494D-01-0.140D+00 0.118D+01
 Coeff:     -0.438D-07 0.817D-06 0.697D-05-0.115D-05-0.109D-03-0.159D-03
 Coeff:     -0.274D-03 0.558D-02 0.692D-02-0.494D-01-0.140D+00 0.118D+01
 Gap=     0.445 Goal=   None    Shift=    0.000
 RMSDP=7.93D-09 MaxDP=2.07D-07 DE=-3.64D-11 OVMax= 9.74D-07

 SCF Done:  E(RwB97XD) =  -2905.42740226     A.U. after   12 cycles
             Convg  =    0.7933D-08             -V/T =  2.0015
 KE= 2.900942768220D+03 PE=-7.236853094345D+03 EE= 1.281112179553D+03
 Leave Link  502 at Thu Apr 16 10:08:36 2020, MaxMem= 1073741824 cpu:     296.4
 (Enter /home/matheus/.gaussian/g09/l601.exe)
 Copying SCF densities to generalized density rwf, IOpCl= 0 IROHF=0.

 **********************************************************************

            Population analysis using the SCF density.

 **********************************************************************

 Orbital symmetries:
       Occupied  (A) (A) (A) (A) (A) (A) (A) (A) (A) (A) (A) (A)
                 (A) (A) (A) (A) (A) (A) (A) (A) (A) (A) (A) (A)
                 (A) (A) (A)
       Virtual   (A) (A) (A) (A) (A) (A) (A) (A) (A) (A) (A) (A)
                 (A) (A) (A) (A) (A) (A) (A) (A) (A) (A) (A) (A)
                 (A) (A) (A) (A) (A) (A) (A) (A) (A) (A) (A) (A)
                 (A) (A) (A) (A) (A) (A) (A) (A) (A) (A) (A) (A)
                 (A) (A) (A) (A) (A) (A) (A) (A) (A) (A) (A) (A)
                 (A) (A) (A) (A) (A) (A) (A) (A) (A) (A) (A) (A)
                 (A) (A) (A) (A) (A) (A) (A) (A) (A) (A) (A) (A)
                 (A) (A) (A) (A) (A) (A) (A) (A) (A) (A) (A) (A)
                 (A) (A) (A) (A) (A) (A) (A) (A) (A) (A) (A) (A)
                 (A) (A) (A) (A) (A) (A) (A) (A) (A) (A) (A) (A)
                 (A) (A) (A) (A) (A) (A) (A) (A) (A) (A) (A) (A)
                 (A) (A) (A) (A) (A) (A) (A) (A) (A) (A) (A) (A)
                 (A) (A) (A) (A) (A) (A) (A) (A) (A) (A) (A) (A)
                 (A) (A) (A) (A) (A) (A) (A) (A) (A) (A) (A) (A)
                 (A) (A)
 The electronic state is 1-A.
 Alpha  occ. eigenvalues -- -513.09564 -67.36391 -60.91271 -60.91260 -60.91251
 Alpha  occ. eigenvalues --  -19.34098 -19.33732  -9.81721  -7.51055  -7.51016
 Alpha  occ. eigenvalues --   -7.50988  -3.37737  -3.37729  -3.37708  -3.37677
 Alpha  occ. eigenvalues --   -3.37674  -1.24614  -1.03339  -1.02376  -0.67169
 Alpha  occ. eigenvalues --   -0.59066  -0.53826  -0.50101  -0.49750  -0.48874
 Alpha  occ. eigenvalues --   -0.41458  -0.41010
 Alpha virt. eigenvalues --    0.03450   0.04360   0.08340   0.09617   0.10357
 Alpha virt. eigenvalues --    0.11852   0.13296   0.14091   0.17256   0.17960
 Alpha virt. eigenvalues --    0.18193   0.19041   0.20353   0.22279   0.23221
 Alpha virt. eigenvalues --    0.24429   0.25526   0.27818   0.30639   0.32406
 Alpha virt. eigenvalues --    0.33919   0.35205   0.36659   0.38165   0.38921
 Alpha virt. eigenvalues --    0.40372   0.42460   0.47189   0.51713   0.54181
 Alpha virt. eigenvalues --    0.54987   0.59340   0.60681   0.63759   0.67671
 Alpha virt. eigenvalues --    0.70201   0.70603   0.72377   0.74703   0.74904
 Alpha virt. eigenvalues --    0.75809   0.76375   0.77809   0.79182   0.81853
 Alpha virt. eigenvalues --    0.83475   0.85881   0.87674   0.88822   0.89737
 Alpha virt. eigenvalues --    0.91093   0.91617   0.93998   0.94957   0.97570
 Alpha virt. eigenvalues --    0.99459   1.02065   1.04302   1.04890   1.06931
 Alpha virt. eigenvalues --    1.08971   1.14631   1.17366   1.20962   1.22459
 Alpha virt. eigenvalues --    1.23917   1.27252   1.34018   1.36151   1.38930
 Alpha virt. eigenvalues --    1.42994   1.47845   1.49644   1.52784   1.58222
 Alpha virt. eigenvalues --    1.67456   1.69854   1.81439   1.90331   1.94123
 Alpha virt. eigenvalues --    1.97539   2.02293   2.03745   2.09218   2.14169
 Alpha virt. eigenvalues --    2.16126   2.16846   2.18689   2.22006   2.25029
 Alpha virt. eigenvalues --    2.26268   2.28234   2.29800   2.30340   2.31413
 Alpha virt. eigenvalues --    2.37089   2.37781   2.44671   2.45035   2.46125
 Alpha virt. eigenvalues --    2.47601   2.47693   2.50864   2.54812   2.55760
 Alpha virt. eigenvalues --    2.58485   2.61091   2.65728   2.66792   2.69745
 Alpha virt. eigenvalues --    2.71743   2.73707   2.76129   2.83111   2.86783
 Alpha virt. eigenvalues --    2.93625   3.03594   3.10198   3.12195   3.61012
 Alpha virt. eigenvalues --    3.63569   3.89764   3.92533   4.00189   4.09352
 Alpha virt. eigenvalues --    4.15319   4.17501   4.19278   4.23854   4.27665
 Alpha virt. eigenvalues --    4.32262   4.49215   4.50914   4.55924   4.68680
 Alpha virt. eigenvalues --    4.90124   4.95888   4.97874   5.14680   5.15839
 Alpha virt. eigenvalues --    5.20140   5.43727   5.84451   6.03804   6.13433
 Alpha virt. eigenvalues --    6.19118   6.28046   6.29838   6.45519   6.47959
 Alpha virt. eigenvalues --    6.58658   6.77553   6.78359   6.81076   6.84356
 Alpha virt. eigenvalues --    6.88037   6.89541   6.91654   6.97944   7.00555
 Alpha virt. eigenvalues --    7.07649   7.13281   7.23532   7.45383   7.60774
 Alpha virt. eigenvalues --    7.79633   8.10125   8.12654  14.07830  14.68153
          Condensed to atoms (all electrons):
              1          2          3          4          5
     1  O    8.185980  -0.169181   0.215289   0.004140  -0.017769
     2  O   -0.169181   8.248207   0.012210   0.189570  -0.019206
     3  H    0.215289   0.012210   0.547542   0.000949  -0.001476
     4  H    0.004140   0.189570   0.000949   0.563828  -0.003883
     5  Kr  -0.017769  -0.019206  -0.001476  -0.003883  36.033162
 Mulliken atomic charges:
              1
     1  O   -0.218459
     2  O   -0.261598
     3  H    0.225487
     4  H    0.245398
     5  Kr   0.009173
 Sum of Mulliken atomic charges =   0.00000
 Mulliken charges with hydrogens summed into heavy atoms:
              1
     1  O    0.007028
     2  O   -0.016201
     5  Kr   0.009173
 Sum of Mulliken charges with hydrogens summed into heavy atoms =   0.00000
 Electronic spatial extent (au):  <R**2>=            484.0485
 Charge=              0.0000 electrons
 Dipole moment (field-independent basis, Debye):
    X=             -1.7451    Y=             -0.3970    Z=              1.4746  Tot=              2.3189
 Quadrupole moment (field-independent basis, Debye-Ang):
   XX=            -34.6694   YY=            -27.8788   ZZ=            -29.0023
   XY=             -2.2760   XZ=              3.2149   YZ=             -1.8333
 Traceless Quadrupole moment (field-independent basis, Debye-Ang):
   XX=             -4.1526   YY=              2.6380   ZZ=              1.5145
   XY=             -2.2760   XZ=              3.2149   YZ=             -1.8333
 Octapole moment (field-independent basis, Debye-Ang**2):
  XXX=            -34.0375  YYY=             -1.0893  ZZZ=              1.1689  XYY=             -5.0358
  XXY=             -7.1496  XXZ=              6.3257  XZZ=             -5.3194  YZZ=             -1.8951
  YYZ=              2.2787  XYZ=             -3.9069
 Hexadecapole moment (field-independent basis, Debye-Ang**3):
 XXXX=           -450.3278 YYYY=            -62.9490 ZZZZ=            -29.7632 XXXY=            -15.3734
 XXXZ=             13.9625 YYYX=             -4.1897 YYYZ=             -2.6844 ZZZX=              2.9590
 ZZZY=             -1.9822 XXYY=            -80.2762 XXZZ=            -71.6106 YYZZ=            -15.8660
 XXYZ=             -8.4274 YYXZ=              4.7001 ZZXY=             -3.6598
 N-N= 1.493707443132D+02 E-N=-7.236853092447D+03  KE= 2.900942768220D+03
 No NMR shielding tensors so no spin-rotation constants.
 Leave Link  601 at Thu Apr 16 10:08:36 2020, MaxMem= 1073741824 cpu:       0.9
 (Enter /home/matheus/.gaussian/g09/l108.exe)
 Variable Step   Value    
 -------- ---- -----------
     1       1    5.858151
 Leave Link  108 at Thu Apr 16 10:08:36 2020, MaxMem= 1073741824 cpu:       0.0
 (Enter /home/matheus/.gaussian/g09/l202.exe)
 ---------------------------------------------------------------------------------------------------
                            Z-MATRIX (ANGSTROMS AND DEGREES)
   CD    Cent   Atom    N1       Length/X        N2       Alpha/Y        N3        Beta/Z          J
 ---------------------------------------------------------------------------------------------------
      1      1  O        0   0.000000          0.000000          0.725000
      2      2  O        0   0.000000          0.000000         -0.725000
      3      3  H        0   0.918721          0.000000          1.023510
      4      4  H        0   0.000000          0.918721         -1.023510
      5      5  Kr       0   0.000000          3.100000          0.000000
 ---------------------------------------------------------------------------------------------------
                         Z-Matrix orientation:                         
 ---------------------------------------------------------------------
 Center     Atomic      Atomic             Coordinates (Angstroms)
 Number     Number       Type             X           Y           Z
 ---------------------------------------------------------------------
      1          8           0        0.000000    0.000000    0.725000
      2          8           0        0.000000    0.000000   -0.725000
      3          1           0        0.918721    0.000000    1.023510
      4          1           0        0.000000    0.918721   -1.023510
      5         36           0        0.000000    3.100000    0.000000
 ---------------------------------------------------------------------
                    Distance matrix (angstroms):
                    1          2          3          4          5
     1  O    0.000000
     2  O    1.450000   0.000000
     3  H    0.966000   1.975180   0.000000
     4  H    1.975180   0.966000   2.424539   0.000000
     5  Kr   3.183650   3.183650   3.391404   2.409472   0.000000
 Stoichiometry    H2KrO2
 Framework group  C1[X(H2KrO2)]
 Deg. of freedom     9
 Full point group                 C1      NOp   1
 RotChk:  IX=0 Diff= 1.33D-03
 Largest Abelian subgroup         C1      NOp   1
 Largest concise Abelian subgroup C1      NOp   1
                         Standard orientation:                         
 ---------------------------------------------------------------------
 Center     Atomic      Atomic             Coordinates (Angstroms)
 Number     Number       Type             X           Y           Z
 ---------------------------------------------------------------------
      1          8           0        2.089791   -0.697319   -0.118989
      2          8           0        2.076180    0.746199    0.017285
      3          1           0        2.108426   -1.080682    0.767488
      4          1           0        1.154835    1.033303    0.060294
      5         36           0       -1.016417   -0.009546   -0.000393
 ---------------------------------------------------------------------
 Rotational constants (GHZ):     25.5929020      2.1962691      2.0353398
 Leave Link  202 at Thu Apr 16 10:08:36 2020, MaxMem= 1073741824 cpu:       0.0
 (Enter /home/matheus/.gaussian/g09/l301.exe)
 Standard basis: Aug-CC-pVTZ (5D, 7F)
 Ernie: Thresh=  0.10000D-02 Tol=  0.10000D-05 Strict=F.
 Ernie:  38 primitive shells out of 205 were deleted.
 There are   197 symmetry adapted basis functions of A   symmetry.
 Integral buffers will be    131072 words long.
 Raffenetti 2 integral format.
 Two-electron integral symmetry is turned on.
   197 basis functions,   415 primitive gaussians,   229 cartesian basis functions
    27 alpha electrons       27 beta electrons
       nuclear repulsion energy       145.8912957769 Hartrees.
 IExCor= 4639 DFT=T Ex+Corr=wB97XD ExCW=0 ScaHFX=  1.000000
 ScaDFX=  1.000000  1.000000  1.000000  1.000000 ScalE2=  1.000000  1.000000
 IRadAn=      5 IRanWt=     -1 IRanGd=            0 ICorTp=0
  HFx wShort=  0.000000 wLong=  0.250000 cFull=  0.222036 cShort=  0.000000 cLong=  0.777964
  DFx wShort=  0.000000 wLong=  0.250000 cFull=  0.000000 cShort=  0.000000 cLong=  1.000000
 NAtoms=    5 NActive=    5 NUniq=    5 SFac= 1.00D+00 NAtFMM=   60 NAOKFM=F Big=F
 R6Disp: Dispersion energy =        -0.0010052127 Hartrees.
 Nuclear repulsion after empirical dispersion term =      145.8902905641 Hartrees.
 Leave Link  301 at Thu Apr 16 10:08:36 2020, MaxMem= 1073741824 cpu:       0.2
 (Enter /home/matheus/.gaussian/g09/l302.exe)
 NPDir=0 NMtPBC=     1 NCelOv=     1 NCel=       1 NClECP=     1 NCelD=      1
         NCelK=      1 NCelE2=     1 NClLst=     1 CellRange=     0.0.
 One-electron integrals computed using PRISM.
 NBasis=   197 RedAO= T  NBF=   197
 NBsUse=   197 1.00D-06 NBFU=   197
 Precomputing XC quadrature grid using
 IXCGrd= 2 IRadAn=           5 IRanWt=          -1 IRanGd=           0 AccXCQ= 0.00D+00.
 NRdTot=     427 NPtTot=      123512 NUsed=      126579 NTot=      126611
 NSgBfM=   229   229   229   229   229 NAtAll=     5     5.
 Leave Link  302 at Thu Apr 16 10:08:36 2020, MaxMem= 1073741824 cpu:       1.1
 (Enter /home/matheus/.gaussian/g09/l303.exe)
 DipDrv:  MaxL=1.
 Leave Link  303 at Thu Apr 16 10:08:36 2020, MaxMem= 1073741824 cpu:       0.2
 (Enter /home/matheus/.gaussian/g09/l401.exe)
 Initial guess read from the read-write file.
 B after Tr=     0.000000    0.000000    0.000000
         Rot=    1.000000    0.000000    0.000000    0.000000 Ang=   0.00 deg.
 Guess basis will be translated and rotated to current coordinates.
 Initial guess orbital symmetries:
       Occupied  (A) (A) (A) (A) (A) (A) (A) (A) (A) (A) (A) (A)
                 (A) (A) (A) (A) (A) (A) (A) (A) (A) (A) (A) (A)
                 (A) (A) (A)
       Virtual   (A) (A) (A) (A) (A) (A) (A) (A) (A) (A) (A) (A)
                 (A) (A) (A) (A) (A) (A) (A) (A) (A) (A) (A) (A)
                 (A) (A) (A) (A) (A) (A) (A) (A) (A) (A) (A) (A)
                 (A) (A) (A) (A) (A) (A) (A) (A) (A) (A) (A) (A)
                 (A) (A) (A) (A) (A) (A) (A) (A) (A) (A) (A) (A)
                 (A) (A) (A) (A) (A) (A) (A) (A) (A) (A) (A) (A)
                 (A) (A) (A) (A) (A) (A) (A) (A) (A) (A) (A) (A)
                 (A) (A) (A) (A) (A) (A) (A) (A) (A) (A) (A) (A)
                 (A) (A) (A) (A) (A) (A) (A) (A) (A) (A) (A) (A)
                 (A) (A) (A) (A) (A) (A) (A) (A) (A) (A) (A) (A)
                 (A) (A) (A) (A) (A) (A) (A) (A) (A) (A) (A) (A)
                 (A) (A) (A) (A) (A) (A) (A) (A) (A) (A) (A) (A)
                 (A) (A) (A) (A) (A) (A) (A) (A) (A) (A) (A) (A)
                 (A) (A) (A) (A) (A) (A) (A) (A) (A) (A) (A) (A)
                 (A) (A)
 The electronic state of the initial guess is 1-A.
 Generating alternative initial guess.
 Harris functional with IExCor= 4639 diagonalized for initial guess.
 ExpMin= 2.53D-02 ExpMax= 1.17D+07 ExpMxC= 1.33D+04 IAcc=3 IRadAn=         5 AccDes= 0.00D+00
 HarFok:  IExCor= 4639 AccDes= 0.00D+00 IRadAn=         5 IDoV= 1
 ScaDFX=  1.000000  1.000000  1.000000  1.000000
 FoFCou: FMM=F IPFlag=           0 FMFlag=      100000 FMFlg1=           0
         NFxFlg=           0 DoJE=T BraDBF=F KetDBF=T FulRan=T
         Omega=  0.000000  0.000000  1.000000  0.000000  0.000000 ICntrl=     500 IOpCl=  0
         NMat0=    1 NMatS0=    1 NMatT0=    0 NMatD0=    1 NMtDS0=    0 NMtDT0=    0
         I1Cent=           4 NGrid=           0.
 Petite list used in FoFCou.
 Harris En= -2875.40121768714    
 Leave Link  401 at Thu Apr 16 10:08:36 2020, MaxMem= 1073741824 cpu:       4.5
 (Enter /home/matheus/.gaussian/g09/l502.exe)
 Closed shell SCF:
 Requested convergence on RMS density matrix=1.00D-08 within 128 cycles.
 Requested convergence on MAX density matrix=1.00D-06.
 Requested convergence on             energy=1.00D-06.
 No special actions if energy rises.
 Using DIIS extrapolation, IDIIS=  1040.
 Integral symmetry usage will be decided dynamically.
       126521 words used for storage of precomputed grid.
 IEnd=      305468 IEndB=      305468 NGot=  1073741824 MDV=  1073505667
 LenX=  1073505667 LenY=  1073452785
 Fock matrices will be formed incrementally for  20 cycles.

 Cycle   1  Pass 1  IDiag  1:
 FoFJK:  IHMeth= 1 ICntrl=     0 DoSepK=T KAlg= 1 I1Cent= 0 FoldK=F
 FoFCou: FMM=F IPFlag=           0 FMFlag=      100000 FMFlg1=           0
         NFxFlg=           0 DoJE=T BraDBF=F KetDBF=F FulRan=T
         Omega=  0.000000  0.000000  1.000000  0.000000  0.000000 ICntrl=     500 IOpCl=  0
         NMat0=    1 NMatS0=    1 NMatT0=    0 NMatD0=    1 NMtDS0=    0 NMtDT0=    0
         I1Cent=           0 NGrid=           0.
 Symmetry not used in FoFCou.
 E= -2905.42911417637    
 DIIS: error= 1.05D-03 at cycle   1 NSaved=   1.
 NSaved= 1 IEnMin= 1 EnMin= -2905.42911417637     IErMin= 1 ErrMin= 1.05D-03
 ErrMax= 1.05D-03 EMaxC= 1.00D-01 BMatC= 5.26D-04 BMatP= 5.26D-04
 IDIUse=3 WtCom= 9.89D-01 WtEn= 1.05D-02
 Coeff-Com:  0.100D+01
 Coeff-En:   0.100D+01
 Coeff:      0.100D+01
 Gap=     0.447 Goal=   None    Shift=    0.000
 GapD=    0.447 DampG=2.000 DampE=1.000 DampFc=2.0000 IDamp=-1.
 RMSDP=7.15D-05 MaxDP=2.32D-03              OVMax= 3.06D-03

 Cycle   2  Pass 1  IDiag  1:
 RMSU=  5.06D-05    CP:  1.00D+00
 FoFJK:  IHMeth= 1 ICntrl=     0 DoSepK=T KAlg= 1 I1Cent= 0 FoldK=F
 E= -2905.42921421634     Delta-E=       -0.000100039970 Rises=F Damp=F
 DIIS: error= 1.00D-04 at cycle   2 NSaved=   2.
 NSaved= 2 IEnMin= 2 EnMin= -2905.42921421634     IErMin= 2 ErrMin= 1.00D-04
 ErrMax= 1.00D-04 EMaxC= 1.00D-01 BMatC= 5.29D-06 BMatP= 5.26D-04
 IDIUse=3 WtCom= 9.99D-01 WtEn= 1.00D-03
 Coeff-Com:  0.335D-03 0.100D+01
 Coeff-En:   0.000D+00 0.100D+01
 Coeff:      0.335D-03 0.100D+01
 Gap=     0.445 Goal=   None    Shift=    0.000
 RMSDP=1.66D-05 MaxDP=7.21D-04 DE=-1.00D-04 OVMax= 8.31D-04

 Cycle   3  Pass 1  IDiag  1:
 RMSU=  9.81D-06    CP:  1.00D+00  1.13D+00
 FoFJK:  IHMeth= 1 ICntrl=     0 DoSepK=T KAlg= 1 I1Cent= 0 FoldK=F
 E= -2905.42921694873     Delta-E=       -0.000002732390 Rises=F Damp=F
 DIIS: error= 8.99D-05 at cycle   3 NSaved=   3.
 NSaved= 3 IEnMin= 3 EnMin= -2905.42921694873     IErMin= 3 ErrMin= 8.99D-05
 ErrMax= 8.99D-05 EMaxC= 1.00D-01 BMatC= 4.46D-06 BMatP= 5.29D-06
 IDIUse=1 WtCom= 1.00D+00 WtEn= 0.00D+00
 Coeff-Com: -0.823D-02 0.480D+00 0.528D+00
 Coeff:     -0.823D-02 0.480D+00 0.528D+00
 Gap=     0.445 Goal=   None    Shift=    0.000
 RMSDP=6.01D-06 MaxDP=3.28D-04 DE=-2.73D-06 OVMax= 4.40D-04

 Cycle   4  Pass 1  IDiag  1:
 RMSU=  2.96D-06    CP:  1.00D+00  1.15D+00  7.08D-01
 FoFJK:  IHMeth= 1 ICntrl=     0 DoSepK=T KAlg= 1 I1Cent= 0 FoldK=F
 E= -2905.42921967713     Delta-E=       -0.000002728400 Rises=F Damp=F
 DIIS: error= 2.48D-05 at cycle   4 NSaved=   4.
 NSaved= 4 IEnMin= 4 EnMin= -2905.42921967713     IErMin= 4 ErrMin= 2.48D-05
 ErrMax= 2.48D-05 EMaxC= 1.00D-01 BMatC= 2.14D-07 BMatP= 4.46D-06
 IDIUse=1 WtCom= 1.00D+00 WtEn= 0.00D+00
 Coeff-Com: -0.270D-02 0.676D-01 0.183D+00 0.752D+00
 Coeff:     -0.270D-02 0.676D-01 0.183D+00 0.752D+00
 Gap=     0.445 Goal=   None    Shift=    0.000
 RMSDP=1.99D-06 MaxDP=6.13D-05 DE=-2.73D-06 OVMax= 1.15D-04

 Cycle   5  Pass 1  IDiag  1:
 RMSU=  1.13D-06    CP:  1.00D+00  1.16D+00  7.78D-01  1.02D+00
 FoFJK:  IHMeth= 1 ICntrl=     0 DoSepK=T KAlg= 1 I1Cent= 0 FoldK=F
 E= -2905.42921982948     Delta-E=       -0.000000152345 Rises=F Damp=F
 DIIS: error= 1.06D-05 at cycle   5 NSaved=   5.
 NSaved= 5 IEnMin= 5 EnMin= -2905.42921982948     IErMin= 5 ErrMin= 1.06D-05
 ErrMax= 1.06D-05 EMaxC= 1.00D-01 BMatC= 4.33D-08 BMatP= 2.14D-07
 IDIUse=1 WtCom= 1.00D+00 WtEn= 0.00D+00
 Coeff-Com:  0.169D-03-0.543D-01-0.952D-02 0.341D+00 0.722D+00
 Coeff:      0.169D-03-0.543D-01-0.952D-02 0.341D+00 0.722D+00
 Gap=     0.445 Goal=   None    Shift=    0.000
 RMSDP=9.48D-07 MaxDP=3.89D-05 DE=-1.52D-07 OVMax= 4.62D-05

 Cycle   6  Pass 1  IDiag  1:
 RMSU=  3.54D-07    CP:  1.00D+00  1.16D+00  8.11D-01  1.16D+00  8.90D-01
 FoFJK:  IHMeth= 1 ICntrl=     0 DoSepK=T KAlg= 1 I1Cent= 0 FoldK=F
 E= -2905.42921986366     Delta-E=       -0.000000034184 Rises=F Damp=F
 DIIS: error= 2.30D-06 at cycle   6 NSaved=   6.
 NSaved= 6 IEnMin= 6 EnMin= -2905.42921986366     IErMin= 6 ErrMin= 2.30D-06
 ErrMax= 2.30D-06 EMaxC= 1.00D-01 BMatC= 1.42D-09 BMatP= 4.33D-08
 IDIUse=1 WtCom= 1.00D+00 WtEn= 0.00D+00
 Coeff-Com:  0.187D-03-0.211D-01-0.125D-01 0.688D-01 0.227D+00 0.738D+00
 Coeff:      0.187D-03-0.211D-01-0.125D-01 0.688D-01 0.227D+00 0.738D+00
 Gap=     0.445 Goal=   None    Shift=    0.000
 RMSDP=1.92D-07 MaxDP=6.39D-06 DE=-3.42D-08 OVMax= 1.09D-05

 Cycle   7  Pass 1  IDiag  1:
 RMSU=  8.69D-08    CP:  1.00D+00  1.16D+00  8.16D-01  1.18D+00  9.47D-01
                    CP:  1.04D+00
 FoFJK:  IHMeth= 1 ICntrl=     0 DoSepK=T KAlg= 1 I1Cent= 0 FoldK=F
 E= -2905.42921986511     Delta-E=       -0.000000001445 Rises=F Damp=F
 DIIS: error= 3.95D-07 at cycle   7 NSaved=   7.
 NSaved= 7 IEnMin= 7 EnMin= -2905.42921986511     IErMin= 7 ErrMin= 3.95D-07
 ErrMax= 3.95D-07 EMaxC= 1.00D-01 BMatC= 6.33D-11 BMatP= 1.42D-09
 IDIUse=1 WtCom= 1.00D+00 WtEn= 0.00D+00
 Coeff-Com: -0.118D-04 0.523D-02 0.121D-02-0.336D-01-0.704D-01 0.118D-01
 Coeff-Com:  0.109D+01
 Coeff:     -0.118D-04 0.523D-02 0.121D-02-0.336D-01-0.704D-01 0.118D-01
 Coeff:      0.109D+01
 Gap=     0.445 Goal=   None    Shift=    0.000
 RMSDP=8.99D-08 MaxDP=3.67D-06 DE=-1.44D-09 OVMax= 5.88D-06

 Cycle   8  Pass 1  IDiag  1:
 RMSU=  2.69D-08    CP:  1.00D+00  1.16D+00  8.18D-01  1.18D+00  9.63D-01
                    CP:  1.16D+00  1.19D+00
 FoFJK:  IHMeth= 1 ICntrl=     0 DoSepK=T KAlg= 1 I1Cent= 0 FoldK=F
 E= -2905.42921986524     Delta-E=       -0.000000000132 Rises=F Damp=F
 DIIS: error= 6.96D-08 at cycle   8 NSaved=   8.
 NSaved= 8 IEnMin= 8 EnMin= -2905.42921986524     IErMin= 8 ErrMin= 6.96D-08
 ErrMax= 6.96D-08 EMaxC= 1.00D-01 BMatC= 3.32D-12 BMatP= 6.33D-11
 IDIUse=1 WtCom= 1.00D+00 WtEn= 0.00D+00
 Coeff-Com: -0.120D-04 0.211D-02 0.813D-03-0.105D-01-0.243D-01-0.271D-01
 Coeff-Com:  0.201D+00 0.858D+00
 Coeff:     -0.120D-04 0.211D-02 0.813D-03-0.105D-01-0.243D-01-0.271D-01
 Coeff:      0.201D+00 0.858D+00
 Gap=     0.445 Goal=   None    Shift=    0.000
 RMSDP=1.32D-08 MaxDP=3.45D-07 DE=-1.32D-10 OVMax= 8.42D-07

 Cycle   9  Pass 1  IDiag  1:
 RMSU=  5.67D-09    CP:  1.00D+00  1.16D+00  8.18D-01  1.18D+00  9.62D-01
                    CP:  1.17D+00  1.24D+00  1.20D+00
 FoFJK:  IHMeth= 1 ICntrl=     0 DoSepK=T KAlg= 1 I1Cent= 0 FoldK=F
 E= -2905.42921986527     Delta-E=       -0.000000000030 Rises=F Damp=F
 DIIS: error= 2.07D-08 at cycle   9 NSaved=   9.
 NSaved= 9 IEnMin= 9 EnMin= -2905.42921986527     IErMin= 9 ErrMin= 2.07D-08
 ErrMax= 2.07D-08 EMaxC= 1.00D-01 BMatC= 2.07D-13 BMatP= 3.32D-12
 IDIUse=1 WtCom= 1.00D+00 WtEn= 0.00D+00
 Coeff-Com:  0.644D-06-0.328D-03-0.901D-04 0.208D-02 0.482D-02-0.495D-03
 Coeff-Com: -0.777D-01 0.198D-01 0.105D+01
 Coeff:      0.644D-06-0.328D-03-0.901D-04 0.208D-02 0.482D-02-0.495D-03
 Coeff:     -0.777D-01 0.198D-01 0.105D+01
 Gap=     0.445 Goal=   None    Shift=    0.000
 RMSDP=6.31D-09 MaxDP=1.92D-07 DE=-2.96D-11 OVMax= 4.65D-07

 SCF Done:  E(RwB97XD) =  -2905.42921987     A.U. after    9 cycles
             Convg  =    0.6309D-08             -V/T =  2.0016
 KE= 2.900929508291D+03 PE=-7.229893678420D+03 EE= 1.277644659699D+03
 Leave Link  502 at Thu Apr 16 10:09:04 2020, MaxMem= 1073741824 cpu:     216.2
 (Enter /home/matheus/.gaussian/g09/l108.exe)
 Variable Step   Value    
 -------- ---- -----------
     1       2    6.047124
 Leave Link  108 at Thu Apr 16 10:09:04 2020, MaxMem= 1073741824 cpu:       0.0
 (Enter /home/matheus/.gaussian/g09/l202.exe)
 ---------------------------------------------------------------------------------------------------
                            Z-MATRIX (ANGSTROMS AND DEGREES)
   CD    Cent   Atom    N1       Length/X        N2       Alpha/Y        N3        Beta/Z          J
 ---------------------------------------------------------------------------------------------------
      1      1  O        0   0.000000          0.000000          0.725000
      2      2  O        0   0.000000          0.000000         -0.725000
      3      3  H        0   0.918721          0.000000          1.023510
      4      4  H        0   0.000000          0.918721         -1.023510
      5      5  Kr       0   0.000000          3.200000          0.000000
 ---------------------------------------------------------------------------------------------------
                         Z-Matrix orientation:                         
 ---------------------------------------------------------------------
 Center     Atomic      Atomic             Coordinates (Angstroms)
 Number     Number       Type             X           Y           Z
 ---------------------------------------------------------------------
      1          8           0        0.000000    0.000000    0.725000
      2          8           0        0.000000    0.000000   -0.725000
      3          1           0        0.918721    0.000000    1.023510
      4          1           0        0.000000    0.918721   -1.023510
      5         36           0        0.000000    3.200000    0.000000
 ---------------------------------------------------------------------
                    Distance matrix (angstroms):
                    1          2          3          4          5
     1  O    0.000000
     2  O    1.450000   0.000000
     3  H    0.966000   1.975180   0.000000
     4  H    1.975180   0.966000   2.424539   0.000000
     5  Kr   3.281101   3.281101   3.483048   2.500362   0.000000
 Stoichiometry    H2KrO2
 Framework group  C1[X(H2KrO2)]
 Deg. of freedom     9
 Full point group                 C1      NOp   1
 RotChk:  IX=0 Diff= 1.22D-03
 Largest Abelian subgroup         C1      NOp   1
 Largest concise Abelian subgroup C1      NOp   1
                         Standard orientation:                         
 ---------------------------------------------------------------------
 Center     Atomic      Atomic             Coordinates (Angstroms)
 Number     Number       Type             X           Y           Z
 ---------------------------------------------------------------------
      1          8           0        2.156021   -0.698078   -0.119024
      2          8           0        2.143344    0.745442    0.017321
      3          1           0        2.173943   -1.081500    0.767442
      4          1           0        1.222176    1.033183    0.059880
      5         36           0       -1.049751   -0.009183   -0.000381
 ---------------------------------------------------------------------
 Rotational constants (GHZ):     25.5925032      2.0609114      1.9185620
 Leave Link  202 at Thu Apr 16 10:09:04 2020, MaxMem= 1073741824 cpu:       0.0
 (Enter /home/matheus/.gaussian/g09/l301.exe)
 Standard basis: Aug-CC-pVTZ (5D, 7F)
 Ernie: Thresh=  0.10000D-02 Tol=  0.10000D-05 Strict=F.
 Ernie:  38 primitive shells out of 205 were deleted.
 There are   197 symmetry adapted basis functions of A   symmetry.
 Integral buffers will be    131072 words long.
 Raffenetti 2 integral format.
 Two-electron integral symmetry is turned on.
   197 basis functions,   415 primitive gaussians,   229 cartesian basis functions
    27 alpha electrons       27 beta electrons
       nuclear repulsion energy       142.6124987325 Hartrees.
 IExCor= 4639 DFT=T Ex+Corr=wB97XD ExCW=0 ScaHFX=  1.000000
 ScaDFX=  1.000000  1.000000  1.000000  1.000000 ScalE2=  1.000000  1.000000
 IRadAn=      5 IRanWt=     -1 IRanGd=            0 ICorTp=0
  HFx wShort=  0.000000 wLong=  0.250000 cFull=  0.222036 cShort=  0.000000 cLong=  0.777964
  DFx wShort=  0.000000 wLong=  0.250000 cFull=  0.000000 cShort=  0.000000 cLong=  1.000000
 NAtoms=    5 NActive=    5 NUniq=    5 SFac= 1.00D+00 NAtFMM=   60 NAOKFM=F Big=F
 R6Disp: Dispersion energy =        -0.0010534038 Hartrees.
 Nuclear repulsion after empirical dispersion term =      142.6114453287 Hartrees.
 Leave Link  301 at Thu Apr 16 10:09:04 2020, MaxMem= 1073741824 cpu:       0.2
 (Enter /home/matheus/.gaussian/g09/l302.exe)
 NPDir=0 NMtPBC=     1 NCelOv=     1 NCel=       1 NClECP=     1 NCelD=      1
         NCelK=      1 NCelE2=     1 NClLst=     1 CellRange=     0.0.
 One-electron integrals computed using PRISM.
 NBasis=   197 RedAO= T  NBF=   197
 NBsUse=   197 1.00D-06 NBFU=   197
 Precomputing XC quadrature grid using
 IXCGrd= 2 IRadAn=           5 IRanWt=          -1 IRanGd=           0 AccXCQ= 0.00D+00.
 NRdTot=     427 NPtTot=      123512 NUsed=      126579 NTot=      126611
 NSgBfM=   229   229   229   229   229 NAtAll=     5     5.
 Leave Link  302 at Thu Apr 16 10:09:04 2020, MaxMem= 1073741824 cpu:       1.0
 (Enter /home/matheus/.gaussian/g09/l303.exe)
 DipDrv:  MaxL=1.
 Leave Link  303 at Thu Apr 16 10:09:04 2020, MaxMem= 1073741824 cpu:       0.2
 (Enter /home/matheus/.gaussian/g09/l401.exe)
 Initial guess read from the read-write file.
 B after Tr=     0.000000    0.000000    0.000000
         Rot=    1.000000    0.000000    0.000000    0.000000 Ang=   0.00 deg.
 Guess basis will be translated and rotated to current coordinates.
 Initial guess orbital symmetries:
       Occupied  (A) (A) (A) (A) (A) (A) (A) (A) (A) (A) (A) (A)
                 (A) (A) (A) (A) (A) (A) (A) (A) (A) (A) (A) (A)
                 (A) (A) (A)
       Virtual   (A) (A) (A) (A) (A) (A) (A) (A) (A) (A) (A) (A)
                 (A) (A) (A) (A) (A) (A) (A) (A) (A) (A) (A) (A)
                 (A) (A) (A) (A) (A) (A) (A) (A) (A) (A) (A) (A)
                 (A) (A) (A) (A) (A) (A) (A) (A) (A) (A) (A) (A)
                 (A) (A) (A) (A) (A) (A) (A) (A) (A) (A) (A) (A)
                 (A) (A) (A) (A) (A) (A) (A) (A) (A) (A) (A) (A)
                 (A) (A) (A) (A) (A) (A) (A) (A) (A) (A) (A) (A)
                 (A) (A) (A) (A) (A) (A) (A) (A) (A) (A) (A) (A)
                 (A) (A) (A) (A) (A) (A) (A) (A) (A) (A) (A) (A)
                 (A) (A) (A) (A) (A) (A) (A) (A) (A) (A) (A) (A)
                 (A) (A) (A) (A) (A) (A) (A) (A) (A) (A) (A) (A)
                 (A) (A) (A) (A) (A) (A) (A) (A) (A) (A) (A) (A)
                 (A) (A) (A) (A) (A) (A) (A) (A) (A) (A) (A) (A)
                 (A) (A) (A) (A) (A) (A) (A) (A) (A) (A) (A) (A)
                 (A) (A)
 The electronic state of the initial guess is 1-A.
 Generating alternative initial guess.
 Harris functional with IExCor= 4639 diagonalized for initial guess.
 ExpMin= 2.53D-02 ExpMax= 1.17D+07 ExpMxC= 1.33D+04 IAcc=3 IRadAn=         5 AccDes= 0.00D+00
 HarFok:  IExCor= 4639 AccDes= 0.00D+00 IRadAn=         5 IDoV= 1
 ScaDFX=  1.000000  1.000000  1.000000  1.000000
 FoFCou: FMM=F IPFlag=           0 FMFlag=      100000 FMFlg1=           0
         NFxFlg=           0 DoJE=T BraDBF=F KetDBF=T FulRan=T
         Omega=  0.000000  0.000000  1.000000  0.000000  0.000000 ICntrl=     500 IOpCl=  0
         NMat0=    1 NMatS0=    1 NMatT0=    0 NMatD0=    1 NMtDS0=    0 NMtDT0=    0
         I1Cent=           4 NGrid=           0.
 Petite list used in FoFCou.
 Harris En= -2875.40360820570    
 Leave Link  401 at Thu Apr 16 10:09:04 2020, MaxMem= 1073741824 cpu:       4.9
 (Enter /home/matheus/.gaussian/g09/l502.exe)
 Closed shell SCF:
 Requested convergence on RMS density matrix=1.00D-08 within 128 cycles.
 Requested convergence on MAX density matrix=1.00D-06.
 Requested convergence on             energy=1.00D-06.
 No special actions if energy rises.
 Using DIIS extrapolation, IDIIS=  1040.
 Integral symmetry usage will be decided dynamically.
       126521 words used for storage of precomputed grid.
 IEnd=      305468 IEndB=      305468 NGot=  1073741824 MDV=  1073505667
 LenX=  1073505667 LenY=  1073452785
 Fock matrices will be formed incrementally for  20 cycles.

 Cycle   1  Pass 1  IDiag  1:
 FoFJK:  IHMeth= 1 ICntrl=     0 DoSepK=T KAlg= 1 I1Cent= 0 FoldK=F
 FoFCou: FMM=F IPFlag=           0 FMFlag=      100000 FMFlg1=           0
         NFxFlg=           0 DoJE=T BraDBF=F KetDBF=F FulRan=T
         Omega=  0.000000  0.000000  1.000000  0.000000  0.000000 ICntrl=     500 IOpCl=  0
         NMat0=    1 NMatS0=    1 NMatT0=    0 NMatD0=    1 NMtDS0=    0 NMtDT0=    0
         I1Cent=           0 NGrid=           0.
 Symmetry not used in FoFCou.
 E= -2905.43032555574    
 DIIS: error= 9.54D-04 at cycle   1 NSaved=   1.
 NSaved= 1 IEnMin= 1 EnMin= -2905.43032555574     IErMin= 1 ErrMin= 9.54D-04
 ErrMax= 9.54D-04 EMaxC= 1.00D-01 BMatC= 4.04D-04 BMatP= 4.04D-04
 IDIUse=3 WtCom= 9.90D-01 WtEn= 9.54D-03
 Coeff-Com:  0.100D+01
 Coeff-En:   0.100D+01
 Coeff:      0.100D+01
 Gap=     0.447 Goal=   None    Shift=    0.000
 RMSDP=6.54D-05 MaxDP=2.00D-03              OVMax= 2.78D-03

 Cycle   2  Pass 1  IDiag  1:
 RMSU=  4.63D-05    CP:  1.00D+00
 FoFJK:  IHMeth= 1 ICntrl=     0 DoSepK=T KAlg= 1 I1Cent= 0 FoldK=F
 E= -2905.43040119167     Delta-E=       -0.000075635931 Rises=F Damp=F
 DIIS: error= 9.10D-05 at cycle   2 NSaved=   2.
 NSaved= 2 IEnMin= 2 EnMin= -2905.43040119167     IErMin= 2 ErrMin= 9.10D-05
 ErrMax= 9.10D-05 EMaxC= 1.00D-01 BMatC= 3.48D-06 BMatP= 4.04D-04
 IDIUse=1 WtCom= 1.00D+00 WtEn= 0.00D+00
 Coeff-Com: -0.200D-02 0.100D+01
 Coeff:     -0.200D-02 0.100D+01
 Gap=     0.445 Goal=   None    Shift=    0.000
 RMSDP=1.41D-05 MaxDP=5.57D-04 DE=-7.56D-05 OVMax= 6.81D-04

 Cycle   3  Pass 1  IDiag  1:
 RMSU=  7.99D-06    CP:  1.00D+00  1.13D+00
 FoFJK:  IHMeth= 1 ICntrl=     0 DoSepK=T KAlg= 1 I1Cent= 0 FoldK=F
 E= -2905.43040321058     Delta-E=       -0.000002018911 Rises=F Damp=F
 DIIS: error= 7.49D-05 at cycle   3 NSaved=   3.
 NSaved= 3 IEnMin= 3 EnMin= -2905.43040321058     IErMin= 3 ErrMin= 7.49D-05
 ErrMax= 7.49D-05 EMaxC= 1.00D-01 BMatC= 2.92D-06 BMatP= 3.48D-06
 IDIUse=1 WtCom= 1.00D+00 WtEn= 0.00D+00
 Coeff-Com: -0.800D-02 0.479D+00 0.529D+00
 Coeff:     -0.800D-02 0.479D+00 0.529D+00
 Gap=     0.445 Goal=   None    Shift=    0.000
 RMSDP=4.93D-06 MaxDP=2.65D-04 DE=-2.02D-06 OVMax= 3.64D-04

 Cycle   4  Pass 1  IDiag  1:
 RMSU=  2.54D-06    CP:  1.00D+00  1.15D+00  7.29D-01
 FoFJK:  IHMeth= 1 ICntrl=     0 DoSepK=T KAlg= 1 I1Cent= 0 FoldK=F
 E= -2905.43040499840     Delta-E=       -0.000001787819 Rises=F Damp=F
 DIIS: error= 2.15D-05 at cycle   4 NSaved=   4.
 NSaved= 4 IEnMin= 4 EnMin= -2905.43040499840     IErMin= 4 ErrMin= 2.15D-05
 ErrMax= 2.15D-05 EMaxC= 1.00D-01 BMatC= 1.53D-07 BMatP= 2.92D-06
 IDIUse=1 WtCom= 1.00D+00 WtEn= 0.00D+00
 Coeff-Com: -0.236D-02 0.528D-01 0.182D+00 0.768D+00
 Coeff:     -0.236D-02 0.528D-01 0.182D+00 0.768D+00
 Gap=     0.445 Goal=   None    Shift=    0.000
 RMSDP=1.79D-06 MaxDP=5.99D-05 DE=-1.79D-06 OVMax= 1.01D-04

 Cycle   5  Pass 1  IDiag  1:
 RMSU=  9.48D-07    CP:  1.00D+00  1.16D+00  8.12D-01  1.05D+00
 FoFJK:  IHMeth= 1 ICntrl=     0 DoSepK=T KAlg= 1 I1Cent= 0 FoldK=F
 E= -2905.43040511008     Delta-E=       -0.000000111683 Rises=F Damp=F
 DIIS: error= 8.75D-06 at cycle   5 NSaved=   5.
 NSaved= 5 IEnMin= 5 EnMin= -2905.43040511008     IErMin= 5 ErrMin= 8.75D-06
 ErrMax= 8.75D-06 EMaxC= 1.00D-01 BMatC= 2.95D-08 BMatP= 1.53D-07
 IDIUse=1 WtCom= 1.00D+00 WtEn= 0.00D+00
 Coeff-Com:  0.203D-03-0.554D-01-0.414D-02 0.346D+00 0.714D+00
 Coeff:      0.203D-03-0.554D-01-0.414D-02 0.346D+00 0.714D+00
 Gap=     0.445 Goal=   None    Shift=    0.000
 RMSDP=8.16D-07 MaxDP=3.33D-05 DE=-1.12D-07 OVMax= 4.00D-05

 Cycle   6  Pass 1  IDiag  1:
 RMSU=  2.93D-07    CP:  1.00D+00  1.17D+00  8.48D-01  1.17D+00  8.88D-01
 FoFJK:  IHMeth= 1 ICntrl=     0 DoSepK=T KAlg= 1 I1Cent= 0 FoldK=F
 E= -2905.43040513343     Delta-E=       -0.000000023352 Rises=F Damp=F
 DIIS: error= 1.86D-06 at cycle   6 NSaved=   6.
 NSaved= 6 IEnMin= 6 EnMin= -2905.43040513343     IErMin= 6 ErrMin= 1.86D-06
 ErrMax= 1.86D-06 EMaxC= 1.00D-01 BMatC= 9.65D-10 BMatP= 2.95D-08
 IDIUse=1 WtCom= 1.00D+00 WtEn= 0.00D+00
 Coeff-Com:  0.179D-03-0.203D-01-0.106D-01 0.665D-01 0.219D+00 0.745D+00
 Coeff:      0.179D-03-0.203D-01-0.106D-01 0.665D-01 0.219D+00 0.745D+00
 Gap=     0.445 Goal=   None    Shift=    0.000
 RMSDP=1.65D-07 MaxDP=5.73D-06 DE=-2.34D-08 OVMax= 9.75D-06

 Cycle   7  Pass 1  IDiag  1:
 RMSU=  7.16D-08    CP:  1.00D+00  1.17D+00  8.54D-01  1.20D+00  9.44D-01
                    CP:  1.03D+00
 FoFJK:  IHMeth= 1 ICntrl=     0 DoSepK=T KAlg= 1 I1Cent= 0 FoldK=F
 E= -2905.43040513443     Delta-E=       -0.000000000996 Rises=F Damp=F
 DIIS: error= 3.49D-07 at cycle   7 NSaved=   7.
 NSaved= 7 IEnMin= 7 EnMin= -2905.43040513443     IErMin= 7 ErrMin= 3.49D-07
 ErrMax= 3.49D-07 EMaxC= 1.00D-01 BMatC= 4.83D-11 BMatP= 9.65D-10
 IDIUse=1 WtCom= 1.00D+00 WtEn= 0.00D+00
 Coeff-Com: -0.155D-04 0.559D-02 0.681D-03-0.360D-01-0.724D-01 0.201D-01
 Coeff-Com:  0.108D+01
 Coeff:     -0.155D-04 0.559D-02 0.681D-03-0.360D-01-0.724D-01 0.201D-01
 Coeff:      0.108D+01
 Gap=     0.445 Goal=   None    Shift=    0.000
 RMSDP=7.60D-08 MaxDP=3.13D-06 DE=-9.96D-10 OVMax= 5.35D-06

 Cycle   8  Pass 1  IDiag  1:
 RMSU=  2.36D-08    CP:  1.00D+00  1.17D+00  8.56D-01  1.20D+00  9.59D-01
                    CP:  1.15D+00  1.20D+00
 FoFJK:  IHMeth= 1 ICntrl=     0 DoSepK=T KAlg= 1 I1Cent= 0 FoldK=F
 E= -2905.43040513455     Delta-E=       -0.000000000122 Rises=F Damp=F
 DIIS: error= 6.29D-08 at cycle   8 NSaved=   8.
 NSaved= 8 IEnMin= 8 EnMin= -2905.43040513455     IErMin= 8 ErrMin= 6.29D-08
 ErrMax= 6.29D-08 EMaxC= 1.00D-01 BMatC= 2.45D-12 BMatP= 4.83D-11
 IDIUse=1 WtCom= 1.00D+00 WtEn= 0.00D+00
 Coeff-Com: -0.121D-04 0.208D-02 0.584D-03-0.106D-01-0.234D-01-0.247D-01
 Coeff-Com:  0.193D+00 0.863D+00
 Coeff:     -0.121D-04 0.208D-02 0.584D-03-0.106D-01-0.234D-01-0.247D-01
 Coeff:      0.193D+00 0.863D+00
 Gap=     0.445 Goal=   None    Shift=    0.000
 RMSDP=1.18D-08 MaxDP=2.77D-07 DE=-1.22D-10 OVMax= 9.03D-07

 Cycle   9  Pass 1  IDiag  1:
 RMSU=  5.08D-09    CP:  1.00D+00  1.17D+00  8.56D-01  1.20D+00  9.59D-01
                    CP:  1.16D+00  1.25D+00  1.22D+00
 FoFJK:  IHMeth= 1 ICntrl=     0 DoSepK=T KAlg= 1 I1Cent= 0 FoldK=F
 E= -2905.43040513455     Delta-E=        0.000000000001 Rises=F Damp=F
 DIIS: error= 1.97D-08 at cycle   9 NSaved=   9.
 NSaved= 9 IEnMin= 8 EnMin= -2905.43040513455     IErMin= 9 ErrMin= 1.97D-08
 ErrMax= 1.97D-08 EMaxC= 1.00D-01 BMatC= 2.01D-13 BMatP= 2.45D-12
 IDIUse=1 WtCom= 1.00D+00 WtEn= 0.00D+00
 Coeff-Com:  0.138D-05-0.476D-03-0.815D-04 0.293D-02 0.656D-02-0.744D-03
 Coeff-Com: -0.956D-01 0.210D-03 0.109D+01
 Coeff:      0.138D-05-0.476D-03-0.815D-04 0.293D-02 0.656D-02-0.744D-03
 Coeff:     -0.956D-01 0.210D-03 0.109D+01
 Gap=     0.445 Goal=   None    Shift=    0.000
 RMSDP=6.39D-09 MaxDP=2.11D-07 DE= 1.36D-12 OVMax= 5.59D-07

 SCF Done:  E(RwB97XD) =  -2905.43040513     A.U. after    9 cycles
             Convg  =    0.6389D-08             -V/T =  2.0016
 KE= 2.900920843520D+03 PE=-7.223343436950D+03 EE= 1.274380742967D+03
 Leave Link  502 at Thu Apr 16 10:09:33 2020, MaxMem= 1073741824 cpu:     226.5
 (Enter /home/matheus/.gaussian/g09/l108.exe)
 Variable Step   Value    
 -------- ---- -----------
     1       3    6.236096
 Leave Link  108 at Thu Apr 16 10:09:33 2020, MaxMem= 1073741824 cpu:       0.0
 (Enter /home/matheus/.gaussian/g09/l202.exe)
 ---------------------------------------------------------------------------------------------------
                            Z-MATRIX (ANGSTROMS AND DEGREES)
   CD    Cent   Atom    N1       Length/X        N2       Alpha/Y        N3        Beta/Z          J
 ---------------------------------------------------------------------------------------------------
      1      1  O        0   0.000000          0.000000          0.725000
      2      2  O        0   0.000000          0.000000         -0.725000
      3      3  H        0   0.918721          0.000000          1.023510
      4      4  H        0   0.000000          0.918721         -1.023510
      5      5  Kr       0   0.000000          3.300000          0.000000
 ---------------------------------------------------------------------------------------------------
                         Z-Matrix orientation:                         
 ---------------------------------------------------------------------
 Center     Atomic      Atomic             Coordinates (Angstroms)
 Number     Number       Type             X           Y           Z
 ---------------------------------------------------------------------
      1          8           0        0.000000    0.000000    0.725000
      2          8           0        0.000000    0.000000   -0.725000
      3          1           0        0.918721    0.000000    1.023510
      4          1           0        0.000000    0.918721   -1.023510
      5         36           0        0.000000    3.300000    0.000000
 ---------------------------------------------------------------------
                    Distance matrix (angstroms):
                    1          2          3          4          5
     1  O    0.000000
     2  O    1.450000   0.000000
     3  H    0.966000   1.975180   0.000000
     4  H    1.975180   0.966000   2.424539   0.000000
     5  Kr   3.378702   3.378702   3.575139   2.591923   0.000000
 Stoichiometry    H2KrO2
 Framework group  C1[X(H2KrO2)]
 Deg. of freedom     9
 Full point group                 C1      NOp   1
 RotChk:  IX=0 Diff= 1.11D-03
 Largest Abelian subgroup         C1      NOp   1
 Largest concise Abelian subgroup C1      NOp   1
                         Standard orientation:                         
 ---------------------------------------------------------------------
 Center     Atomic      Atomic             Coordinates (Angstroms)
 Number     Number       Type             X           Y           Z
 ---------------------------------------------------------------------
      1          8           0        2.222296   -0.698777   -0.119056
      2          8           0        2.210456    0.744744    0.017355
      3          1           0        2.239558   -1.082254    0.767399
      4          1           0        1.289449    1.033059    0.059491
      5         36           0       -1.083084   -0.008848   -0.000369
 ---------------------------------------------------------------------
 Rotational constants (GHZ):     25.5921436      1.9376672      1.8113100
 Leave Link  202 at Thu Apr 16 10:09:33 2020, MaxMem= 1073741824 cpu:       0.0
 (Enter /home/matheus/.gaussian/g09/l301.exe)
 Standard basis: Aug-CC-pVTZ (5D, 7F)
 Ernie: Thresh=  0.10000D-02 Tol=  0.10000D-05 Strict=F.
 Ernie:  38 primitive shells out of 205 were deleted.
 There are   197 symmetry adapted basis functions of A   symmetry.
 Integral buffers will be    131072 words long.
 Raffenetti 2 integral format.
 Two-electron integral symmetry is turned on.
   197 basis functions,   415 primitive gaussians,   229 cartesian basis functions
    27 alpha electrons       27 beta electrons
       nuclear repulsion energy       139.5189361271 Hartrees.
 IExCor= 4639 DFT=T Ex+Corr=wB97XD ExCW=0 ScaHFX=  1.000000
 ScaDFX=  1.000000  1.000000  1.000000  1.000000 ScalE2=  1.000000  1.000000
 IRadAn=      5 IRanWt=     -1 IRanGd=            0 ICorTp=0
  HFx wShort=  0.000000 wLong=  0.250000 cFull=  0.222036 cShort=  0.000000 cLong=  0.777964
  DFx wShort=  0.000000 wLong=  0.250000 cFull=  0.000000 cShort=  0.000000 cLong=  1.000000
 NAtoms=    5 NActive=    5 NUniq=    5 SFac= 1.00D+00 NAtFMM=   60 NAOKFM=F Big=F
 R6Disp: Dispersion energy =        -0.0010920321 Hartrees.
 Nuclear repulsion after empirical dispersion term =      139.5178440950 Hartrees.
 Leave Link  301 at Thu Apr 16 10:09:33 2020, MaxMem= 1073741824 cpu:       0.2
 (Enter /home/matheus/.gaussian/g09/l302.exe)
 NPDir=0 NMtPBC=     1 NCelOv=     1 NCel=       1 NClECP=     1 NCelD=      1
         NCelK=      1 NCelE2=     1 NClLst=     1 CellRange=     0.0.
 One-electron integrals computed using PRISM.
 NBasis=   197 RedAO= T  NBF=   197
 NBsUse=   197 1.00D-06 NBFU=   197
 Precomputing XC quadrature grid using
 IXCGrd= 2 IRadAn=           5 IRanWt=          -1 IRanGd=           0 AccXCQ= 0.00D+00.
 NRdTot=     427 NPtTot=      123512 NUsed=      126579 NTot=      126611
 NSgBfM=   229   229   229   229   229 NAtAll=     5     5.
 Leave Link  302 at Thu Apr 16 10:09:33 2020, MaxMem= 1073741824 cpu:       1.0
 (Enter /home/matheus/.gaussian/g09/l303.exe)
 DipDrv:  MaxL=1.
 Leave Link  303 at Thu Apr 16 10:09:33 2020, MaxMem= 1073741824 cpu:       0.2
 (Enter /home/matheus/.gaussian/g09/l401.exe)
 Initial guess read from the read-write file.
 B after Tr=     0.000000    0.000000    0.000000
         Rot=    1.000000    0.000000    0.000000    0.000000 Ang=   0.00 deg.
 Guess basis will be translated and rotated to current coordinates.
 Initial guess orbital symmetries:
       Occupied  (A) (A) (A) (A) (A) (A) (A) (A) (A) (A) (A) (A)
                 (A) (A) (A) (A) (A) (A) (A) (A) (A) (A) (A) (A)
                 (A) (A) (A)
       Virtual   (A) (A) (A) (A) (A) (A) (A) (A) (A) (A) (A) (A)
                 (A) (A) (A) (A) (A) (A) (A) (A) (A) (A) (A) (A)
                 (A) (A) (A) (A) (A) (A) (A) (A) (A) (A) (A) (A)
                 (A) (A) (A) (A) (A) (A) (A) (A) (A) (A) (A) (A)
                 (A) (A) (A) (A) (A) (A) (A) (A) (A) (A) (A) (A)
                 (A) (A) (A) (A) (A) (A) (A) (A) (A) (A) (A) (A)
                 (A) (A) (A) (A) (A) (A) (A) (A) (A) (A) (A) (A)
                 (A) (A) (A) (A) (A) (A) (A) (A) (A) (A) (A) (A)
                 (A) (A) (A) (A) (A) (A) (A) (A) (A) (A) (A) (A)
                 (A) (A) (A) (A) (A) (A) (A) (A) (A) (A) (A) (A)
                 (A) (A) (A) (A) (A) (A) (A) (A) (A) (A) (A) (A)
                 (A) (A) (A) (A) (A) (A) (A) (A) (A) (A) (A) (A)
                 (A) (A) (A) (A) (A) (A) (A) (A) (A) (A) (A) (A)
                 (A) (A) (A) (A) (A) (A) (A) (A) (A) (A) (A) (A)
                 (A) (A)
 The electronic state of the initial guess is 1-A.
 Generating alternative initial guess.
 Harris functional with IExCor= 4639 diagonalized for initial guess.
 ExpMin= 2.53D-02 ExpMax= 1.17D+07 ExpMxC= 1.33D+04 IAcc=3 IRadAn=         5 AccDes= 0.00D+00
 HarFok:  IExCor= 4639 AccDes= 0.00D+00 IRadAn=         5 IDoV= 1
 ScaDFX=  1.000000  1.000000  1.000000  1.000000
 FoFCou: FMM=F IPFlag=           0 FMFlag=      100000 FMFlg1=           0
         NFxFlg=           0 DoJE=T BraDBF=F KetDBF=T FulRan=T
         Omega=  0.000000  0.000000  1.000000  0.000000  0.000000 ICntrl=     500 IOpCl=  0
         NMat0=    1 NMatS0=    1 NMatT0=    0 NMatD0=    1 NMtDS0=    0 NMtDT0=    0
         I1Cent=           4 NGrid=           0.
 Petite list used in FoFCou.
 Harris En= -2875.40530210985    
 Leave Link  401 at Thu Apr 16 10:09:34 2020, MaxMem= 1073741824 cpu:       4.6
 (Enter /home/matheus/.gaussian/g09/l502.exe)
 Closed shell SCF:
 Requested convergence on RMS density matrix=1.00D-08 within 128 cycles.
 Requested convergence on MAX density matrix=1.00D-06.
 Requested convergence on             energy=1.00D-06.
 No special actions if energy rises.
 Using DIIS extrapolation, IDIIS=  1040.
 Integral symmetry usage will be decided dynamically.
       126521 words used for storage of precomputed grid.
 IEnd=      305468 IEndB=      305468 NGot=  1073741824 MDV=  1073505667
 LenX=  1073505667 LenY=  1073452785
 Fock matrices will be formed incrementally for  20 cycles.

 Cycle   1  Pass 1  IDiag  1:
 FoFJK:  IHMeth= 1 ICntrl=     0 DoSepK=T KAlg= 1 I1Cent= 0 FoldK=F
 FoFCou: FMM=F IPFlag=           0 FMFlag=      100000 FMFlg1=           0
         NFxFlg=           0 DoJE=T BraDBF=F KetDBF=F FulRan=T
         Omega=  0.000000  0.000000  1.000000  0.000000  0.000000 ICntrl=     500 IOpCl=  0
         NMat0=    1 NMatS0=    1 NMatT0=    0 NMatD0=    1 NMtDS0=    0 NMtDT0=    0
         I1Cent=           0 NGrid=           0.
 Symmetry not used in FoFCou.
 E= -2905.43110027625    
 DIIS: error= 9.82D-04 at cycle   1 NSaved=   1.
 NSaved= 1 IEnMin= 1 EnMin= -2905.43110027625     IErMin= 1 ErrMin= 9.82D-04
 ErrMax= 9.82D-04 EMaxC= 1.00D-01 BMatC= 3.03D-04 BMatP= 3.03D-04
 IDIUse=3 WtCom= 9.90D-01 WtEn= 9.82D-03
 Coeff-Com:  0.100D+01
 Coeff-En:   0.100D+01
 Coeff:      0.100D+01
 Gap=     0.447 Goal=   None    Shift=    0.000
 RMSDP=6.09D-05 MaxDP=1.87D-03              OVMax= 2.57D-03

 Cycle   2  Pass 1  IDiag  1:
 RMSU=  4.30D-05    CP:  1.00D+00
 FoFJK:  IHMeth= 1 ICntrl=     0 DoSepK=T KAlg= 1 I1Cent= 0 FoldK=F
 E= -2905.43115808880     Delta-E=       -0.000057812552 Rises=F Damp=F
 DIIS: error= 8.10D-05 at cycle   2 NSaved=   2.
 NSaved= 2 IEnMin= 2 EnMin= -2905.43115808880     IErMin= 2 ErrMin= 8.10D-05
 ErrMax= 8.10D-05 EMaxC= 1.00D-01 BMatC= 2.34D-06 BMatP= 3.03D-04
 IDIUse=1 WtCom= 1.00D+00 WtEn= 0.00D+00
 Coeff-Com: -0.401D-02 0.100D+01
 Coeff:     -0.401D-02 0.100D+01
 Gap=     0.445 Goal=   None    Shift=    0.000
 RMSDP=1.21D-05 MaxDP=4.42D-04 DE=-5.78D-05 OVMax= 6.05D-04

 Cycle   3  Pass 1  IDiag  1:
 RMSU=  6.51D-06    CP:  1.00D+00  1.13D+00
 FoFJK:  IHMeth= 1 ICntrl=     0 DoSepK=T KAlg= 1 I1Cent= 0 FoldK=F
 E= -2905.43115961635     Delta-E=       -0.000001527550 Rises=F Damp=F
 DIIS: error= 7.13D-05 at cycle   3 NSaved=   3.
 NSaved= 3 IEnMin= 3 EnMin= -2905.43115961635     IErMin= 3 ErrMin= 7.13D-05
 ErrMax= 7.13D-05 EMaxC= 1.00D-01 BMatC= 1.93D-06 BMatP= 2.34D-06
 IDIUse=1 WtCom= 1.00D+00 WtEn= 0.00D+00
 Coeff-Com: -0.808D-02 0.478D+00 0.530D+00
 Coeff:     -0.808D-02 0.478D+00 0.530D+00
 Gap=     0.446 Goal=   None    Shift=    0.000
 RMSDP=4.08D-06 MaxDP=2.15D-04 DE=-1.53D-06 OVMax= 3.03D-04

 Cycle   4  Pass 1  IDiag  1:
 RMSU=  2.23D-06    CP:  1.00D+00  1.15D+00  7.50D-01
 FoFJK:  IHMeth= 1 ICntrl=     0 DoSepK=T KAlg= 1 I1Cent= 0 FoldK=F
 E= -2905.43116080255     Delta-E=       -0.000001186205 Rises=F Damp=F
 DIIS: error= 1.94D-05 at cycle   4 NSaved=   4.
 NSaved= 4 IEnMin= 4 EnMin= -2905.43116080255     IErMin= 4 ErrMin= 1.94D-05
 ErrMax= 1.94D-05 EMaxC= 1.00D-01 BMatC= 1.12D-07 BMatP= 1.93D-06
 IDIUse=1 WtCom= 1.00D+00 WtEn= 0.00D+00
 Coeff-Com: -0.212D-02 0.372D-01 0.183D+00 0.782D+00
 Coeff:     -0.212D-02 0.372D-01 0.183D+00 0.782D+00
 Gap=     0.446 Goal=   None    Shift=    0.000
 RMSDP=1.62D-06 MaxDP=5.59D-05 DE=-1.19D-06 OVMax= 9.37D-05

 Cycle   5  Pass 1  IDiag  1:
 RMSU=  8.01D-07    CP:  1.00D+00  1.16D+00  8.48D-01  1.07D+00
 FoFJK:  IHMeth= 1 ICntrl=     0 DoSepK=T KAlg= 1 I1Cent= 0 FoldK=F
 E= -2905.43116088635     Delta-E=       -0.000000083799 Rises=F Damp=F
 DIIS: error= 7.14D-06 at cycle   5 NSaved=   5.
 NSaved= 5 IEnMin= 5 EnMin= -2905.43116088635     IErMin= 5 ErrMin= 7.14D-06
 ErrMax= 7.14D-06 EMaxC= 1.00D-01 BMatC= 1.99D-08 BMatP= 1.12D-07
 IDIUse=1 WtCom= 1.00D+00 WtEn= 0.00D+00
 Coeff-Com:  0.229D-03-0.559D-01 0.200D-02 0.347D+00 0.707D+00
 Coeff:      0.229D-03-0.559D-01 0.200D-02 0.347D+00 0.707D+00
 Gap=     0.446 Goal=   None    Shift=    0.000
 RMSDP=6.93D-07 MaxDP=2.76D-05 DE=-8.38D-08 OVMax= 3.48D-05

 Cycle   6  Pass 1  IDiag  1:
 RMSU=  2.43D-07    CP:  1.00D+00  1.17D+00  8.86D-01  1.19D+00  8.85D-01
 FoFJK:  IHMeth= 1 ICntrl=     0 DoSepK=T KAlg= 1 I1Cent= 0 FoldK=F
 E= -2905.43116090225     Delta-E=       -0.000000015898 Rises=F Damp=F
 DIIS: error= 1.50D-06 at cycle   6 NSaved=   6.
 NSaved= 6 IEnMin= 6 EnMin= -2905.43116090225     IErMin= 6 ErrMin= 1.50D-06
 ErrMax= 1.50D-06 EMaxC= 1.00D-01 BMatC= 6.73D-10 BMatP= 1.99D-08
 IDIUse=1 WtCom= 1.00D+00 WtEn= 0.00D+00
 Coeff-Com:  0.177D-03-0.193D-01-0.886D-02 0.634D-01 0.214D+00 0.751D+00
 Coeff:      0.177D-03-0.193D-01-0.886D-02 0.634D-01 0.214D+00 0.751D+00
 Gap=     0.446 Goal=   None    Shift=    0.000
 RMSDP=1.43D-07 MaxDP=5.50D-06 DE=-1.59D-08 OVMax= 8.78D-06

 Cycle   7  Pass 1  IDiag  1:
 RMSU=  6.02D-08    CP:  1.00D+00  1.17D+00  8.92D-01  1.21D+00  9.41D-01
                    CP:  1.03D+00
 FoFJK:  IHMeth= 1 ICntrl=     0 DoSepK=T KAlg= 1 I1Cent= 0 FoldK=F
 E= -2905.43116090299     Delta-E=       -0.000000000745 Rises=F Damp=F
 DIIS: error= 3.08D-07 at cycle   7 NSaved=   7.
 NSaved= 7 IEnMin= 7 EnMin= -2905.43116090299     IErMin= 7 ErrMin= 3.08D-07
 ErrMax= 3.08D-07 EMaxC= 1.00D-01 BMatC= 3.70D-11 BMatP= 6.73D-10
 IDIUse=1 WtCom= 1.00D+00 WtEn= 0.00D+00
 Coeff-Com: -0.195D-04 0.597D-02 0.439D-04-0.383D-01-0.753D-01 0.253D-01
 Coeff-Com:  0.108D+01
 Coeff:     -0.195D-04 0.597D-02 0.439D-04-0.383D-01-0.753D-01 0.253D-01
 Coeff:      0.108D+01
 Gap=     0.446 Goal=   None    Shift=    0.000
 RMSDP=6.52D-08 MaxDP=2.65D-06 DE=-7.45D-10 OVMax= 4.91D-06

 Cycle   8  Pass 1  IDiag  1:
 RMSU=  2.11D-08    CP:  1.00D+00  1.17D+00  8.94D-01  1.22D+00  9.56D-01
                    CP:  1.14D+00  1.23D+00
 FoFJK:  IHMeth= 1 ICntrl=     0 DoSepK=T KAlg= 1 I1Cent= 0 FoldK=F
 E= -2905.43116090306     Delta-E=       -0.000000000065 Rises=F Damp=F
 DIIS: error= 6.73D-08 at cycle   8 NSaved=   8.
 NSaved= 8 IEnMin= 8 EnMin= -2905.43116090306     IErMin= 8 ErrMin= 6.73D-08
 ErrMax= 6.73D-08 EMaxC= 1.00D-01 BMatC= 1.74D-12 BMatP= 3.70D-11
 IDIUse=1 WtCom= 1.00D+00 WtEn= 0.00D+00
 Coeff-Com: -0.118D-04 0.194D-02 0.338D-03-0.100D-01-0.216D-01-0.224D-01
 Coeff-Com:  0.176D+00 0.876D+00
 Coeff:     -0.118D-04 0.194D-02 0.338D-03-0.100D-01-0.216D-01-0.224D-01
 Coeff:      0.176D+00 0.876D+00
 Gap=     0.446 Goal=   None    Shift=    0.000
 RMSDP=1.10D-08 MaxDP=2.76D-07 DE=-6.55D-11 OVMax= 8.78D-07

 Cycle   9  Pass 1  IDiag  1:
 RMSU=  4.45D-09    CP:  1.00D+00  1.17D+00  8.94D-01  1.22D+00  9.55D-01
                    CP:  1.15D+00  1.28D+00  1.24D+00
 FoFJK:  IHMeth= 1 ICntrl=     0 DoSepK=T KAlg= 1 I1Cent= 0 FoldK=F
 E= -2905.43116090306     Delta-E=        0.000000000004 Rises=F Damp=F
 DIIS: error= 2.35D-08 at cycle   9 NSaved=   9.
 NSaved= 9 IEnMin= 8 EnMin= -2905.43116090306     IErMin= 9 ErrMin= 2.35D-08
 ErrMax= 2.35D-08 EMaxC= 1.00D-01 BMatC= 1.87D-13 BMatP= 1.74D-12
 IDIUse=1 WtCom= 1.00D+00 WtEn= 0.00D+00
 Coeff-Com:  0.217D-05-0.627D-03-0.288D-04 0.386D-02 0.833D-02-0.165D-02
 Coeff-Com: -0.115D+00-0.596D-02 0.111D+01
 Coeff:      0.217D-05-0.627D-03-0.288D-04 0.386D-02 0.833D-02-0.165D-02
 Coeff:     -0.115D+00-0.596D-02 0.111D+01
 Gap=     0.446 Goal=   None    Shift=    0.000
 RMSDP=6.46D-09 MaxDP=2.28D-07 DE= 3.64D-12 OVMax= 5.74D-07

 SCF Done:  E(RwB97XD) =  -2905.43116090     A.U. after    9 cycles
             Convg  =    0.6461D-08             -V/T =  2.0016
 KE= 2.900915589802D+03 PE=-7.217168165248D+03 EE= 1.271303570448D+03
 Leave Link  502 at Thu Apr 16 10:09:59 2020, MaxMem= 1073741824 cpu:     202.7
 (Enter /home/matheus/.gaussian/g09/l108.exe)
 Variable Step   Value    
 -------- ---- -----------
     1       4    6.425069
 Leave Link  108 at Thu Apr 16 10:09:59 2020, MaxMem= 1073741824 cpu:       0.0
 (Enter /home/matheus/.gaussian/g09/l202.exe)
 ---------------------------------------------------------------------------------------------------
                            Z-MATRIX (ANGSTROMS AND DEGREES)
   CD    Cent   Atom    N1       Length/X        N2       Alpha/Y        N3        Beta/Z          J
 ---------------------------------------------------------------------------------------------------
      1      1  O        0   0.000000          0.000000          0.725000
      2      2  O        0   0.000000          0.000000         -0.725000
      3      3  H        0   0.918721          0.000000          1.023510
      4      4  H        0   0.000000          0.918721         -1.023510
      5      5  Kr       0   0.000000          3.400000          0.000000
 ---------------------------------------------------------------------------------------------------
                         Z-Matrix orientation:                         
 ---------------------------------------------------------------------
 Center     Atomic      Atomic             Coordinates (Angstroms)
 Number     Number       Type             X           Y           Z
 ---------------------------------------------------------------------
      1          8           0        0.000000    0.000000    0.725000
      2          8           0        0.000000    0.000000   -0.725000
      3          1           0        0.918721    0.000000    1.023510
      4          1           0        0.000000    0.918721   -1.023510
      5         36           0        0.000000    3.400000    0.000000
 ---------------------------------------------------------------------
                    Distance matrix (angstroms):
                    1          2          3          4          5
     1  O    0.000000
     2  O    1.450000   0.000000
     3  H    0.966000   1.975180   0.000000
     4  H    1.975180   0.966000   2.424539   0.000000
[...]
 Gap=     0.446 Goal=   None    Shift=    0.000
 RMSDP=2.29D-06 MaxDP=8.33D-05 DE=-1.02D-06 OVMax= 8.37D-05

 Cycle   3  Pass 1  IDiag  1:
 RMSU=  8.85D-07    CP:  1.00D+00  1.11D+00
 FoFJK:  IHMeth= 1 ICntrl=     0 DoSepK=T KAlg= 1 I1Cent= 0 FoldK=F
 E= -2905.43104861052     Delta-E=       -0.000000031283 Rises=F Damp=F
 DIIS: error= 4.81D-06 at cycle   3 NSaved=   3.
 NSaved= 3 IEnMin= 3 EnMin= -2905.43104861052     IErMin= 3 ErrMin= 4.81D-06
 ErrMax= 4.81D-06 EMaxC= 1.00D-01 BMatC= 4.97D-09 BMatP= 2.41D-08
 IDIUse=1 WtCom= 1.00D+00 WtEn= 0.00D+00
 Coeff-Com: -0.601D-02 0.271D+00 0.735D+00
 Coeff:     -0.601D-02 0.271D+00 0.735D+00
 Gap=     0.446 Goal=   None    Shift=    0.000
 RMSDP=3.54D-07 MaxDP=1.11D-05 DE=-3.13D-08 OVMax= 2.63D-05

 Cycle   4  Pass 1  IDiag  1:
 RMSU=  1.94D-07    CP:  1.00D+00  1.12D+00  1.06D+00
 FoFJK:  IHMeth= 1 ICntrl=     0 DoSepK=T KAlg= 1 I1Cent= 0 FoldK=F
 E= -2905.43104861472     Delta-E=       -0.000000004205 Rises=F Damp=F
 DIIS: error= 2.11D-06 at cycle   4 NSaved=   4.
 NSaved= 4 IEnMin= 4 EnMin= -2905.43104861472     IErMin= 4 ErrMin= 2.11D-06
 ErrMax= 2.11D-06 EMaxC= 1.00D-01 BMatC= 9.62D-10 BMatP= 4.97D-09
 IDIUse=1 WtCom= 1.00D+00 WtEn= 0.00D+00
 Coeff-Com: -0.190D-02 0.313D-01 0.282D+00 0.689D+00
 Coeff:     -0.190D-02 0.313D-01 0.282D+00 0.689D+00
 Gap=     0.446 Goal=   None    Shift=    0.000
 RMSDP=1.71D-07 MaxDP=5.28D-06 DE=-4.20D-09 OVMax= 1.01D-05

 Cycle   5  Pass 1  IDiag  1:
 RMSU=  8.15D-08    CP:  1.00D+00  1.13D+00  1.15D+00  1.02D+00
 FoFJK:  IHMeth= 1 ICntrl=     0 DoSepK=T KAlg= 1 I1Cent= 0 FoldK=F
 E= -2905.43104861540     Delta-E=       -0.000000000679 Rises=F Damp=F
 DIIS: error= 1.06D-06 at cycle   5 NSaved=   5.
 NSaved= 5 IEnMin= 5 EnMin= -2905.43104861540     IErMin= 5 ErrMin= 1.06D-06
 ErrMax= 1.06D-06 EMaxC= 1.00D-01 BMatC= 2.34D-10 BMatP= 9.62D-10
 IDIUse=1 WtCom= 1.00D+00 WtEn= 0.00D+00
 Coeff-Com:  0.463D-03-0.505D-01-0.362D-01 0.346D+00 0.740D+00
 Coeff:      0.463D-03-0.505D-01-0.362D-01 0.346D+00 0.740D+00
 Gap=     0.446 Goal=   None    Shift=    0.000
 RMSDP=8.60D-08 MaxDP=2.54D-06 DE=-6.79D-10 OVMax= 5.11D-06

 Cycle   6  Pass 1  IDiag  1:
 RMSU=  2.86D-08    CP:  1.00D+00  1.13D+00  1.19D+00  1.17D+00  9.83D-01
 FoFJK:  IHMeth= 1 ICntrl=     0 DoSepK=T KAlg= 1 I1Cent= 0 FoldK=F
 E= -2905.43104861562     Delta-E=       -0.000000000212 Rises=F Damp=F
 DIIS: error= 1.15D-07 at cycle   6 NSaved=   6.
 NSaved= 6 IEnMin= 6 EnMin= -2905.43104861562     IErMin= 6 ErrMin= 1.15D-07
 ErrMax= 1.15D-07 EMaxC= 1.00D-01 BMatC= 4.91D-12 BMatP= 2.34D-10
 IDIUse=1 WtCom= 1.00D+00 WtEn= 0.00D+00
 Coeff-Com:  0.163D-03-0.962D-02-0.189D-01 0.290D-01 0.132D+00 0.867D+00
 Coeff:      0.163D-03-0.962D-02-0.189D-01 0.290D-01 0.132D+00 0.867D+00
 Gap=     0.446 Goal=   None    Shift=    0.000
 RMSDP=1.72D-08 MaxDP=4.98D-07 DE=-2.12D-10 OVMax= 1.20D-06

 Cycle   7  Pass 1  IDiag  1:
 RMSU=  8.14D-09    CP:  1.00D+00  1.13D+00  1.19D+00  1.19D+00  1.05D+00
                    CP:  1.19D+00
 FoFJK:  IHMeth= 1 ICntrl=     0 DoSepK=T KAlg= 1 I1Cent= 0 FoldK=F
 E= -2905.43104861563     Delta-E=       -0.000000000014 Rises=F Damp=F
 DIIS: error= 7.90D-08 at cycle   7 NSaved=   7.
 NSaved= 7 IEnMin= 7 EnMin= -2905.43104861563     IErMin= 7 ErrMin= 7.90D-08
 ErrMax= 7.90D-08 EMaxC= 1.00D-01 BMatC= 1.31D-12 BMatP= 4.91D-12
 IDIUse=1 WtCom= 1.00D+00 WtEn= 0.00D+00
 Coeff-Com: -0.298D-04 0.655D-02-0.498D-03-0.593D-01-0.977D-01 0.321D+00
 Coeff-Com:  0.830D+00
 Coeff:     -0.298D-04 0.655D-02-0.498D-03-0.593D-01-0.977D-01 0.321D+00
 Coeff:      0.830D+00
 Gap=     0.446 Goal=   None    Shift=    0.000
 RMSDP=8.87D-09 MaxDP=2.26D-07 DE=-1.36D-11 OVMax= 7.38D-07

 SCF Done:  E(RwB97XD) =  -2905.43104862     A.U. after    7 cycles
             Convg  =    0.8867D-08             -V/T =  2.0016
 KE= 2.900926425979D+03 PE=-7.151463507336D+03 EE= 1.238567181444D+03
 Leave Link  502 at Thu Apr 16 10:15:38 2020, MaxMem= 1073741824 cpu:     132.6
 (Enter /home/matheus/.gaussian/g09/l108.exe)
 Variable Step   Value    
 -------- ---- -----------
     1      20    9.448631
 Leave Link  108 at Thu Apr 16 10:15:38 2020, MaxMem= 1073741824 cpu:       0.0
 (Enter /home/matheus/.gaussian/g09/l202.exe)
 ---------------------------------------------------------------------------------------------------
                            Z-MATRIX (ANGSTROMS AND DEGREES)
   CD    Cent   Atom    N1       Length/X        N2       Alpha/Y        N3        Beta/Z          J
 ---------------------------------------------------------------------------------------------------
      1      1  O        0   0.000000          0.000000          0.725000
      2      2  O        0   0.000000          0.000000         -0.725000
      3      3  H        0   0.918721          0.000000          1.023510
      4      4  H        0   0.000000          0.918721         -1.023510
      5      5  Kr       0   0.000000          5.000000          0.000000
 ---------------------------------------------------------------------------------------------------
                         Z-Matrix orientation:                         
 ---------------------------------------------------------------------
 Center     Atomic      Atomic             Coordinates (Angstroms)
 Number     Number       Type             X           Y           Z
 ---------------------------------------------------------------------
      1          8           0        0.000000    0.000000    0.725000
      2          8           0        0.000000    0.000000   -0.725000
      3          1           0        0.918721    0.000000    1.023510
      4          1           0        0.000000    0.918721   -1.023510
      5         36           0        0.000000    5.000000    0.000000
 ---------------------------------------------------------------------
                    Distance matrix (angstroms):
                    1          2          3          4          5
     1  O    0.000000
     2  O    1.450000   0.000000
     3  H    0.966000   1.975180   0.000000
     4  H    1.975180   0.966000   2.424539   0.000000
     5  Kr   5.052289   5.052289   5.185713   4.207661   0.000000
 Stoichiometry    H2KrO2
 Framework group  C1[X(H2KrO2)]
 Deg. of freedom     9
 Full point group                 C1      NOp   1
 RotChk:  IX=0 Diff= 3.74D-04
 Largest Abelian subgroup         C1      NOp   1
 Largest concise Abelian subgroup C1      NOp   1
                         Standard orientation:                         
 ---------------------------------------------------------------------
 Center     Atomic      Atomic             Coordinates (Angstroms)
 Number     Number       Type             X           Y           Z
 ---------------------------------------------------------------------
      1          8           0        3.352389   -0.705668   -0.119404
      2          8           0        3.347542    0.737825    0.017723
      3          1           0        3.363018   -1.089687    0.766921
      4          1           0        2.427879    1.031028    0.055250
      5         36           0       -1.649732   -0.005516   -0.000242
 ---------------------------------------------------------------------
 Rotational constants (GHZ):     25.5890756      0.8422692      0.8174768
 Leave Link  202 at Thu Apr 16 10:15:38 2020, MaxMem= 1073741824 cpu:       0.0
 (Enter /home/matheus/.gaussian/g09/l301.exe)
 Standard basis: Aug-CC-pVTZ (5D, 7F)
 Ernie: Thresh=  0.10000D-02 Tol=  0.10000D-05 Strict=F.
 Ernie:  38 primitive shells out of 205 were deleted.
 There are   197 symmetry adapted basis functions of A   symmetry.
 Integral buffers will be    131072 words long.
 Raffenetti 2 integral format.
 Two-electron integral symmetry is turned on.
   197 basis functions,   415 primitive gaussians,   229 cartesian basis functions
    27 alpha electrons       27 beta electrons
       nuclear repulsion energy       105.1579650266 Hartrees.
 IExCor= 4639 DFT=T Ex+Corr=wB97XD ExCW=0 ScaHFX=  1.000000
 ScaDFX=  1.000000  1.000000  1.000000  1.000000 ScalE2=  1.000000  1.000000
 IRadAn=      5 IRanWt=     -1 IRanGd=            0 ICorTp=0
  HFx wShort=  0.000000 wLong=  0.250000 cFull=  0.222036 cShort=  0.000000 cLong=  0.777964
  DFx wShort=  0.000000 wLong=  0.250000 cFull=  0.000000 cShort=  0.000000 cLong=  1.000000
 NAtoms=    5 NActive=    5 NUniq=    5 SFac= 1.00D+00 NAtFMM=   60 NAOKFM=F Big=F
 R6Disp: Dispersion energy =        -0.0004946286 Hartrees.
 Nuclear repulsion after empirical dispersion term =      105.1574703981 Hartrees.
 Leave Link  301 at Thu Apr 16 10:15:38 2020, MaxMem= 1073741824 cpu:       0.2
 (Enter /home/matheus/.gaussian/g09/l302.exe)
 NPDir=0 NMtPBC=     1 NCelOv=     1 NCel=       1 NClECP=     1 NCelD=      1
         NCelK=      1 NCelE2=     1 NClLst=     1 CellRange=     0.0.
 One-electron integrals computed using PRISM.
 NBasis=   197 RedAO= T  NBF=   197
 NBsUse=   197 1.00D-06 NBFU=   197
 Precomputing XC quadrature grid using
 IXCGrd= 2 IRadAn=           5 IRanWt=          -1 IRanGd=           0 AccXCQ= 0.00D+00.
 NRdTot=     427 NPtTot=      123814 NUsed=      126881 NTot=      126913
 NSgBfM=   228   228   229   229   229 NAtAll=     5     5.
 Leave Link  302 at Thu Apr 16 10:15:39 2020, MaxMem= 1073741824 cpu:       1.1
 (Enter /home/matheus/.gaussian/g09/l303.exe)
 DipDrv:  MaxL=1.
 Leave Link  303 at Thu Apr 16 10:15:39 2020, MaxMem= 1073741824 cpu:       0.2
 (Enter /home/matheus/.gaussian/g09/l401.exe)
 Initial guess read from the read-write file.
 B after Tr=     0.000000    0.000000    0.000000
         Rot=    1.000000    0.000000    0.000000    0.000000 Ang=   0.00 deg.
 Guess basis will be translated and rotated to current coordinates.
 Initial guess orbital symmetries:
       Occupied  (A) (A) (A) (A) (A) (A) (A) (A) (A) (A) (A) (A)
                 (A) (A) (A) (A) (A) (A) (A) (A) (A) (A) (A) (A)
                 (A) (A) (A)
       Virtual   (A) (A) (A) (A) (A) (A) (A) (A) (A) (A) (A) (A)
                 (A) (A) (A) (A) (A) (A) (A) (A) (A) (A) (A) (A)
                 (A) (A) (A) (A) (A) (A) (A) (A) (A) (A) (A) (A)
                 (A) (A) (A) (A) (A) (A) (A) (A) (A) (A) (A) (A)
                 (A) (A) (A) (A) (A) (A) (A) (A) (A) (A) (A) (A)
                 (A) (A) (A) (A) (A) (A) (A) (A) (A) (A) (A) (A)
                 (A) (A) (A) (A) (A) (A) (A) (A) (A) (A) (A) (A)
                 (A) (A) (A) (A) (A) (A) (A) (A) (A) (A) (A) (A)
                 (A) (A) (A) (A) (A) (A) (A) (A) (A) (A) (A) (A)
                 (A) (A) (A) (A) (A) (A) (A) (A) (A) (A) (A) (A)
                 (A) (A) (A) (A) (A) (A) (A) (A) (A) (A) (A) (A)
                 (A) (A) (A) (A) (A) (A) (A) (A) (A) (A) (A) (A)
                 (A) (A) (A) (A) (A) (A) (A) (A) (A) (A) (A) (A)
                 (A) (A) (A) (A) (A) (A) (A) (A) (A) (A) (A) (A)
                 (A) (A)
 The electronic state of the initial guess is 1-A.
 Generating alternative initial guess.
 Harris functional with IExCor= 4639 diagonalized for initial guess.
 ExpMin= 2.53D-02 ExpMax= 1.17D+07 ExpMxC= 1.33D+04 IAcc=3 IRadAn=         5 AccDes= 0.00D+00
 HarFok:  IExCor= 4639 AccDes= 0.00D+00 IRadAn=         5 IDoV= 1
 ScaDFX=  1.000000  1.000000  1.000000  1.000000
 FoFCou: FMM=F IPFlag=           0 FMFlag=      100000 FMFlg1=           0
         NFxFlg=           0 DoJE=T BraDBF=F KetDBF=T FulRan=T
         Omega=  0.000000  0.000000  1.000000  0.000000  0.000000 ICntrl=     500 IOpCl=  0
         NMat0=    1 NMatS0=    1 NMatT0=    0 NMatD0=    1 NMtDS0=    0 NMtDT0=    0
         I1Cent=           4 NGrid=           0.
 Petite list used in FoFCou.
 DSYEVD returned Info=         395 IAlg= 4 N=   197 NDim=   197 NE2=     5449925 trying DSYEV.
 Harris En= -2875.40616734613    
 Leave Link  401 at Thu Apr 16 10:15:39 2020, MaxMem= 1073741824 cpu:       4.0
 (Enter /home/matheus/.gaussian/g09/l502.exe)
 Closed shell SCF:
 Requested convergence on RMS density matrix=1.00D-08 within 128 cycles.
 Requested convergence on MAX density matrix=1.00D-06.
 Requested convergence on             energy=1.00D-06.
 No special actions if energy rises.
 Using DIIS extrapolation, IDIIS=  1040.
 Integral symmetry usage will be decided dynamically.
       126823 words used for storage of precomputed grid.
 IEnd=      305770 IEndB=      305770 NGot=  1073741824 MDV=  1073505365
 LenX=  1073505365 LenY=  1073452483
 Fock matrices will be formed incrementally for  20 cycles.

 Cycle   1  Pass 1  IDiag  1:
 FoFJK:  IHMeth= 1 ICntrl=     0 DoSepK=T KAlg= 1 I1Cent= 0 FoldK=F
 FoFCou: FMM=F IPFlag=           0 FMFlag=      100000 FMFlg1=           0
         NFxFlg=           0 DoJE=T BraDBF=F KetDBF=F FulRan=T
         Omega=  0.000000  0.000000  1.000000  0.000000  0.000000 ICntrl=     500 IOpCl=  0
         NMat0=    1 NMatS0=    1 NMatT0=    0 NMatD0=    1 NMtDS0=    0 NMtDT0=    0
         I1Cent=           0 NGrid=           0.
 Symmetry not used in FoFCou.
 E= -2905.43099835957    
 DIIS: error= 1.13D-04 at cycle   1 NSaved=   1.
 NSaved= 1 IEnMin= 1 EnMin= -2905.43099835957     IErMin= 1 ErrMin= 1.13D-04
 ErrMax= 1.13D-04 EMaxC= 1.00D-01 BMatC= 3.51D-06 BMatP= 3.51D-06
 IDIUse=3 WtCom= 9.99D-01 WtEn= 1.13D-03
 Coeff-Com:  0.100D+01
 Coeff-En:   0.100D+01
 Coeff:      0.100D+01
 Gap=     0.446 Goal=   None    Shift=    0.000
 RMSDP=1.68D-05 MaxDP=6.45D-04              OVMax= 4.00D-04

 Cycle   2  Pass 1  IDiag  1:
 RMSU=  1.18D-05    CP:  1.00D+00
 FoFJK:  IHMeth= 1 ICntrl=     0 DoSepK=T KAlg= 1 I1Cent= 0 FoldK=F
 E= -2905.43099921448     Delta-E=       -0.000000854917 Rises=F Damp=F
 DIIS: error= 1.17D-05 at cycle   2 NSaved=   2.
 NSaved= 2 IEnMin= 2 EnMin= -2905.43099921448     IErMin= 2 ErrMin= 1.17D-05
 ErrMax= 1.17D-05 EMaxC= 1.00D-01 BMatC= 1.99D-08 BMatP= 3.51D-06
 IDIUse=1 WtCom= 1.00D+00 WtEn= 0.00D+00
 Coeff-Com: -0.561D-02 0.101D+01
 Coeff:     -0.561D-02 0.101D+01
 Gap=     0.446 Goal=   None    Shift=    0.000
 RMSDP=2.07D-06 MaxDP=7.34D-05 DE=-8.55D-07 OVMax= 7.66D-05

 Cycle   3  Pass 1  IDiag  1:
 RMSU=  8.02D-07    CP:  1.00D+00  1.10D+00
 FoFJK:  IHMeth= 1 ICntrl=     0 DoSepK=T KAlg= 1 I1Cent= 0 FoldK=F
 E= -2905.43099924011     Delta-E=       -0.000000025630 Rises=F Damp=F
 DIIS: error= 4.30D-06 at cycle   3 NSaved=   3.
 NSaved= 3 IEnMin= 3 EnMin= -2905.43099924011     IErMin= 3 ErrMin= 4.30D-06
 ErrMax= 4.30D-06 EMaxC= 1.00D-01 BMatC= 4.03D-09 BMatP= 1.99D-08
 IDIUse=1 WtCom= 1.00D+00 WtEn= 0.00D+00
 Coeff-Com: -0.564D-02 0.270D+00 0.736D+00
 Coeff:     -0.564D-02 0.270D+00 0.736D+00
 Gap=     0.446 Goal=   None    Shift=    0.000
 RMSDP=3.12D-07 MaxDP=9.82D-06 DE=-2.56D-08 OVMax= 2.38D-05

 Cycle   4  Pass 1  IDiag  1:
 RMSU=  1.73D-07    CP:  1.00D+00  1.11D+00  1.06D+00
 FoFJK:  IHMeth= 1 ICntrl=     0 DoSepK=T KAlg= 1 I1Cent= 0 FoldK=F
 E= -2905.43099924355     Delta-E=       -0.000000003433 Rises=F Damp=F
 DIIS: error= 1.83D-06 at cycle   4 NSaved=   4.
 NSaved= 4 IEnMin= 4 EnMin= -2905.43099924355     IErMin= 4 ErrMin= 1.83D-06
 ErrMax= 1.83D-06 EMaxC= 1.00D-01 BMatC= 7.34D-10 BMatP= 4.03D-09
 IDIUse=1 WtCom= 1.00D+00 WtEn= 0.00D+00
 Coeff-Com: -0.173D-02 0.292D-01 0.273D+00 0.700D+00
 Coeff:     -0.173D-02 0.292D-01 0.273D+00 0.700D+00
 Gap=     0.446 Goal=   None    Shift=    0.000
 RMSDP=1.55D-07 MaxDP=4.82D-06 DE=-3.43D-09 OVMax= 9.05D-06

 Cycle   5  Pass 1  IDiag  1:
 RMSU=  7.35D-08    CP:  1.00D+00  1.12D+00  1.14D+00  1.04D+00
 FoFJK:  IHMeth= 1 ICntrl=     0 DoSepK=T KAlg= 1 I1Cent= 0 FoldK=F
 E= -2905.43099924408     Delta-E=       -0.000000000535 Rises=F Damp=F
 DIIS: error= 9.76D-07 at cycle   5 NSaved=   5.
 NSaved= 5 IEnMin= 5 EnMin= -2905.43099924408     IErMin= 5 ErrMin= 9.76D-07
 ErrMax= 9.76D-07 EMaxC= 1.00D-01 BMatC= 1.96D-10 BMatP= 7.34D-10
 IDIUse=1 WtCom= 1.00D+00 WtEn= 0.00D+00
 Coeff-Com:  0.439D-03-0.504D-01-0.369D-01 0.359D+00 0.728D+00
 Coeff:      0.439D-03-0.504D-01-0.369D-01 0.359D+00 0.728D+00
 Gap=     0.446 Goal=   None    Shift=    0.000
 RMSDP=7.51D-08 MaxDP=2.12D-06 DE=-5.35D-10 OVMax= 4.49D-06

 Cycle   6  Pass 1  IDiag  1:
 RMSU=  2.63D-08    CP:  1.00D+00  1.12D+00  1.18D+00  1.18D+00  9.79D-01
 FoFJK:  IHMeth= 1 ICntrl=     0 DoSepK=T KAlg= 1 I1Cent= 0 FoldK=F
 E= -2905.43099924425     Delta-E=       -0.000000000166 Rises=F Damp=F
 DIIS: error= 1.06D-07 at cycle   6 NSaved=   6.
 NSaved= 6 IEnMin= 6 EnMin= -2905.43099924425     IErMin= 6 ErrMin= 1.06D-07
 ErrMax= 1.06D-07 EMaxC= 1.00D-01 BMatC= 4.32D-12 BMatP= 1.96D-10
 IDIUse=1 WtCom= 1.00D+00 WtEn= 0.00D+00
 Coeff-Com:  0.162D-03-0.103D-01-0.197D-01 0.341D-01 0.140D+00 0.856D+00
 Coeff:      0.162D-03-0.103D-01-0.197D-01 0.341D-01 0.140D+00 0.856D+00
 Gap=     0.446 Goal=   None    Shift=    0.000
 RMSDP=1.57D-08 MaxDP=4.35D-07 DE=-1.66D-10 OVMax= 1.13D-06

 Cycle   7  Pass 1  IDiag  1:
 RMSU=  7.56D-09    CP:  1.00D+00  1.12D+00  1.19D+00  1.20D+00  1.05D+00
                    CP:  1.19D+00
 FoFJK:  IHMeth= 1 ICntrl=     0 DoSepK=T KAlg= 1 I1Cent= 0 FoldK=F
 E= -2905.43099924426     Delta-E=       -0.000000000015 Rises=F Damp=F
 DIIS: error= 7.57D-08 at cycle   7 NSaved=   7.
 NSaved= 7 IEnMin= 7 EnMin= -2905.43099924426     IErMin= 7 ErrMin= 7.57D-08
 ErrMax= 7.57D-08 EMaxC= 1.00D-01 BMatC= 1.09D-12 BMatP= 4.32D-12
 IDIUse=1 WtCom= 1.00D+00 WtEn= 0.00D+00
 Coeff-Com: -0.283D-04 0.653D-02-0.396D-03-0.614D-01-0.956D-01 0.310D+00
 Coeff-Com:  0.841D+00
 Coeff:     -0.283D-04 0.653D-02-0.396D-03-0.614D-01-0.956D-01 0.310D+00
 Coeff:      0.841D+00
 Gap=     0.446 Goal=   None    Shift=    0.000
 RMSDP=8.27D-09 MaxDP=2.02D-07 DE=-1.50D-11 OVMax= 7.16D-07

 SCF Done:  E(RwB97XD) =  -2905.43099924     A.U. after    7 cycles
             Convg  =    0.8273D-08             -V/T =  2.0016
 KE= 2.900926908975D+03 PE=-7.148710525433D+03 EE= 1.237195146816D+03
 Leave Link  502 at Thu Apr 16 10:15:55 2020, MaxMem= 1073741824 cpu:     130.5
 (Enter /home/matheus/.gaussian/g09/l108.exe)
 Scan completed.

 Summary of the potential surface scan:
   N      R1          SCF    
 ----  ---------  -----------
    1     3.0000  -2905.42740
    2     3.1000  -2905.42922
    3     3.2000  -2905.43041
    4     3.3000  -2905.43116
    5     3.4000  -2905.43160
    6     3.5000  -2905.43185
    7     3.6000  -2905.43195
    8     3.7000  -2905.43196
    9     3.8000  -2905.43193
   10     3.9000  -2905.43185
   11     4.0000  -2905.43177
   12     4.1000  -2905.43167
   13     4.2000  -2905.43158
   14     4.3000  -2905.43148
   15     4.4000  -2905.43139
   16     4.5000  -2905.43131
   17     4.6000  -2905.43123
   18     4.7000  -2905.43117
   19     4.8000  -2905.43110
   20     4.9000  -2905.43105
   21     5.0000  -2905.43100
 ----  ---------  -----------
  
 Leave Link  108 at Thu Apr 16 10:15:55 2020, MaxMem= 1073741824 cpu:       0.0
 (Enter /home/matheus/.gaussian/g09/l9999.exe)

 Test job not archived.
 1\1\GINC-REDGIANT\Scan\RwB97XD\Aug-CC-pVTZ\H2Kr1O2\ROOT\16-Apr-2020\1\
 \#p wb97xd/aug-cc-PVTz iop(3/107=0250000000) iop(3/108=0250000000) int
 =ultrafine Scan\\TCC\\0,1\O,0,0.,0.,0.725\O,0,0.,0.,-0.725\H,0,0.91872
 05947,0.,1.0235104166\H,0,0.,0.9187205947,-1.0235104166\Kr,0,0.,R1,0.\
 \R1=3.,s,20,0.1\\Version=EM64L-G09RevC.01\State=1-A\HF=-2905.4274023,-
 2905.4292199,-2905.4304051,-2905.4311609,-2905.4316049,-2905.4318452,-
 2905.4319464,-2905.4319647,-2905.4319254,-2905.4318536,-2905.4317662,-
 2905.4316717,-2905.431576,-2905.4314809,-2905.4313934,-2905.4313119,-2
 905.4312349,-2905.4311658,-2905.4311047,-2905.4310486,-2905.4309992\RM
 SD=7.933e-09,6.309e-09,6.389e-09,6.461e-09,6.357e-09,5.683e-09,4.924e-
 09,3.793e-09,3.226e-09,9.330e-09,8.435e-09,7.149e-09,6.164e-09,5.299e-
 09,4.483e-09,3.993e-09,3.795e-09,9.943e-09,8.899e-09,8.867e-09,8.273e-
 09\PG=C01 [X(H2Kr1O2)]\\@


 THE FIRST AND LAST THING REQUIRED OF GENIUS IS THE LOVE OF TRUTH.

                          -- GOETHE
 Job cpu time:  0 days  1 hours  3 minutes 26.2 seconds.
 File lengths (MBytes):  RWF=     27 Int=      0 D2E=      0 Chk=      4 Scr=      1
 Normal termination of Gaussian 09 at Thu Apr 16 10:15:56 2020.
