 Entering Gaussian System, Link 0=g09
 Input=/home/matheus/.tcc/Inputs-wb97xd/H2O2-Kr_21.com
 Output=/home/matheus/.tcc/Logs-wb97xd/H2O2-Kr_21.log
 Initial command:
 /home/matheus/.gaussian/g09/l1.exe /home/matheus/.gaussian/g09/scratch/Gau-14283.inp -scrdir=/home/matheus/.gaussian/g09/scratch/
 Entering Link 1 = /home/matheus/.gaussian/g09/l1.exe PID=     14286.
  
 Copyright (c) 1988,1990,1992,1993,1995,1998,2003,2009,2011,
            Gaussian, Inc.  All Rights Reserved.
  
 This is part of the Gaussian(R) 09 program.  It is based on
 the Gaussian(R) 03 system (copyright 2003, Gaussian, Inc.),
 the Gaussian(R) 98 system (copyright 1998, Gaussian, Inc.),
 the Gaussian(R) 94 system (copyright 1995, Gaussian, Inc.),
 the Gaussian 92(TM) system (copyright 1992, Gaussian, Inc.),
 the Gaussian 90(TM) system (copyright 1990, Gaussian, Inc.),
 the Gaussian 88(TM) system (copyright 1988, Gaussian, Inc.),
 the Gaussian 86(TM) system (copyright 1986, Carnegie Mellon
 University), and the Gaussian 82(TM) system (copyright 1983,
 Carnegie Mellon University). Gaussian is a federally registered
 trademark of Gaussian, Inc.
  
 This software contains proprietary and confidential information,
 including trade secrets, belonging to Gaussian, Inc.
  
 This software is provided under written license and may be
 used, copied, transmitted, or stored only in accord with that
 written license.
  
 The following legend is applicable only to US Government
 contracts under FAR:
  
                    RESTRICTED RIGHTS LEGEND
  
 Use, reproduction and disclosure by the US Government is
 subject to restrictions as set forth in subparagraphs (a)
 and (c) of the Commercial Computer Software - Restricted
 Rights clause in FAR 52.227-19.
  
 Gaussian, Inc.
 340 Quinnipiac St., Bldg. 40, Wallingford CT 06492
  
  
 ---------------------------------------------------------------
 Warning -- This program may not be used in any manner that
 competes with the business of Gaussian, Inc. or will provide
 assistance to any competitor of Gaussian, Inc.  The licensee
 of this program is prohibited from giving any competitor of
 Gaussian, Inc. access to this program.  By using this program,
 the user acknowledges that Gaussian, Inc. is engaged in the
 business of creating and licensing software in the field of
 computational chemistry and represents and warrants to the
 licensee that it is not a competitor of Gaussian, Inc. and that
 it will not use this program in any manner prohibited above.
 ---------------------------------------------------------------
  

 Cite this work as:
 Gaussian 09, Revision C.01,
 M. J. Frisch, G. W. Trucks, H. B. Schlegel, G. E. Scuseria, 
 M. A. Robb, J. R. Cheeseman, G. Scalmani, V. Barone, B. Mennucci, 
 G. A. Petersson, H. Nakatsuji, M. Caricato, X. Li, H. P. Hratchian, 
 A. F. Izmaylov, J. Bloino, G. Zheng, J. L. Sonnenberg, M. Hada, 
 M. Ehara, K. Toyota, R. Fukuda, J. Hasegawa, M. Ishida, T. Nakajima, 
 Y. Honda, O. Kitao, H. Nakai, T. Vreven, J. A. Montgomery, Jr., 
 J. E. Peralta, F. Ogliaro, M. Bearpark, J. J. Heyd, E. Brothers, 
 K. N. Kudin, V. N. Staroverov, T. Keith, R. Kobayashi, J. Normand, 
 K. Raghavachari, A. Rendell, J. C. Burant, S. S. Iyengar, J. Tomasi, 
 M. Cossi, N. Rega, J. M. Millam, M. Klene, J. E. Knox, J. B. Cross, 
 V. Bakken, C. Adamo, J. Jaramillo, R. Gomperts, R. E. Stratmann, 
 O. Yazyev, A. J. Austin, R. Cammi, C. Pomelli, J. W. Ochterski, 
 R. L. Martin, K. Morokuma, V. G. Zakrzewski, G. A. Voth, 
 P. Salvador, J. J. Dannenberg, S. Dapprich, A. D. Daniels, 
 O. Farkas, J. B. Foresman, J. V. Ortiz, J. Cioslowski, 
 and D. J. Fox, Gaussian, Inc., Wallingford CT, 2010.
 
 ******************************************
 Gaussian 09:  EM64L-G09RevC.01 23-Sep-2011
                16-Apr-2020 
 ******************************************
 %mem=8GB
 %nproc=8
 Will use up to    8 processors via shared memory.
 ----------------------------------------------------------------------
 #p wb97xd/aug-cc-PVTz iop(3/107=0250000000) iop(3/108=0250000000) int=
 ultrafine Scan
 ----------------------------------------------------------------------
 1/38=1,60=1/1,8;
 2/12=2,17=6,18=5,29=3,40=1/2;
 3/5=16,6=1,7=10,11=2,16=1,25=1,30=1,74=-58,75=-5,107=250000000,108=250000000/1,2,3;
 4//1;
 5/5=2,38=5/2;
 6/7=2,8=2,9=2,10=2,18=1,28=1/1;
 1/60=1/8(1);
 99/9=1/99;
 2/29=3/2;
 3/5=16,6=1,7=10,11=2,16=1,25=1,30=1,74=-58,75=-5,107=250000000,108=250000000/1,2,3;
 4/5=5,16=3/1;
 5/5=2,38=5/2;
 1/60=1/8(-4);
 99/9=1/99;
 Leave Link    1 at Thu Apr 16 12:02:07 2020, MaxMem= 1073741824 cpu:       0.2
 (Enter /home/matheus/.gaussian/g09/l101.exe)
 ---
 TCC
 ---
 Charge =  0 Multiplicity = 1
 Symbolic Z-Matrix:
 O                     0.        0.        0.725 
 O                     0.        0.       -0.725 
 H                    -0.45936  -0.79564   1.02351 
 H                     0.        0.91872  -1.02351 
 Kr                    0.       R1        0. 
       Variables:
  R1                    3.     Scan 20    0.1    
 
 NAtoms=      5 NQM=        0 NQMF=       0 NMMI=      5 NMMIF=      0
                NMic=       0 NMicF=      0.
                    Isotopes and Nuclear Properties:
 (Nuclear quadrupole moments (NQMom) in fm**2, nuclear magnetic moments (NMagM)
  in nuclear magnetons)

  Atom         1           2           3           4           5
 IAtWgt=          16          16           1           1          84
 AtmWgt=  15.9949146  15.9949146   1.0078250   1.0078250  83.9115064
 NucSpn=           0           0           1           1           0
 AtZEff=   0.0000000   0.0000000   0.0000000   0.0000000   0.0000000
 NQMom=    0.0000000   0.0000000   0.0000000   0.0000000   0.0000000
 NMagM=    0.0000000   0.0000000   2.7928460   2.7928460   0.0000000
 Leave Link  101 at Thu Apr 16 12:02:07 2020, MaxMem= 1073741824 cpu:       0.5
 (Enter /home/matheus/.gaussian/g09/l108.exe)
 Scan the potential surface.
 Variable   Value     No. Steps Step-Size
 -------- ----------- --------- ---------
     1       3.000000      20      0.1000
 A total of     21 points will be computed.
 Leave Link  108 at Thu Apr 16 12:02:07 2020, MaxMem= 1073741824 cpu:       0.0
 (Enter /home/matheus/.gaussian/g09/l202.exe)
 ---------------------------------------------------------------------------------------------------
                            Z-MATRIX (ANGSTROMS AND DEGREES)
   CD    Cent   Atom    N1       Length/X        N2       Alpha/Y        N3        Beta/Z          J
 ---------------------------------------------------------------------------------------------------
      1      1  O        0   0.000000          0.000000          0.725000
      2      2  O        0   0.000000          0.000000         -0.725000
      3      3  H        0  -0.459360         -0.795635          1.023510
      4      4  H        0   0.000000          0.918721         -1.023510
      5      5  Kr       0   0.000000          3.000000          0.000000
 ---------------------------------------------------------------------------------------------------
                         Z-Matrix orientation:                         
 ---------------------------------------------------------------------
 Center     Atomic      Atomic             Coordinates (Angstroms)
 Number     Number       Type             X           Y           Z
 ---------------------------------------------------------------------
      1          8           0        0.000000    0.000000    0.725000
      2          8           0        0.000000    0.000000   -0.725000
      3          1           0       -0.459360   -0.795635    1.023510
      4          1           0        0.000000    0.918721   -1.023510
      5         36           0        0.000000    3.000000    0.000000
 ---------------------------------------------------------------------
                    Distance matrix (angstroms):
                    1          2          3          4          5
     1  O    0.000000
     2  O    1.450000   0.000000
     3  H    0.966000   1.975180   0.000000
     4  H    1.975180   0.966000   2.709303   0.000000
     5  Kr   3.086361   3.086361   3.957958   2.319331   0.000000
 Stoichiometry    H2KrO2
 Framework group  C1[X(H2KrO2)]
 Deg. of freedom     9
 Full point group                 C1      NOp   1
 Largest Abelian subgroup         C1      NOp   1
 Largest concise Abelian subgroup C1      NOp   1
                         Standard orientation:                         
 ---------------------------------------------------------------------
 Center     Atomic      Atomic             Coordinates (Angstroms)
 Number     Number       Type             X           Y           Z
 ---------------------------------------------------------------------
      1          8           0       -2.014667   -0.687062   -0.062307
      2          8           0       -1.988768    0.761329    0.000872
      3          1           0       -2.820911   -0.990551    0.374753
      4          1           0       -1.064927    1.042640    0.024073
      5         36           0        0.997592   -0.017951    0.002574
 ---------------------------------------------------------------------
 Rotational constants (GHZ):     26.4417565      2.3080537      2.1261727
 Leave Link  202 at Thu Apr 16 12:02:07 2020, MaxMem= 1073741824 cpu:       0.0
 (Enter /home/matheus/.gaussian/g09/l301.exe)
 Standard basis: Aug-CC-pVTZ (5D, 7F)
 Ernie: Thresh=  0.10000D-02 Tol=  0.10000D-05 Strict=F.
 Ernie:  38 primitive shells out of 205 were deleted.
 There are   197 symmetry adapted basis functions of A   symmetry.
 Integral buffers will be    131072 words long.
 Raffenetti 2 integral format.
 Two-electron integral symmetry is turned on.
   197 basis functions,   415 primitive gaussians,   229 cartesian basis functions
    27 alpha electrons       27 beta electrons
       nuclear repulsion energy       148.3895250152 Hartrees.
 IExCor= 4639 DFT=T Ex+Corr=wB97XD ExCW=0 ScaHFX=  1.000000
 ScaDFX=  1.000000  1.000000  1.000000  1.000000 ScalE2=  1.000000  1.000000
 IRadAn=      5 IRanWt=     -1 IRanGd=            0 ICorTp=0
  HFx wShort=  0.000000 wLong=  0.250000 cFull=  0.222036 cShort=  0.000000 cLong=  0.777964
  DFx wShort=  0.000000 wLong=  0.250000 cFull=  0.000000 cShort=  0.000000 cLong=  1.000000
 NAtoms=    5 NActive=    5 NUniq=    5 SFac= 1.00D+00 NAtFMM=   60 NAOKFM=F Big=F
 R6Disp: Dispersion energy =        -0.0007854865 Hartrees.
 Nuclear repulsion after empirical dispersion term =      148.3887395288 Hartrees.
 Leave Link  301 at Thu Apr 16 12:02:07 2020, MaxMem= 1073741824 cpu:       0.2
 (Enter /home/matheus/.gaussian/g09/l302.exe)
 NPDir=0 NMtPBC=     1 NCelOv=     1 NCel=       1 NClECP=     1 NCelD=      1
         NCelK=      1 NCelE2=     1 NClLst=     1 CellRange=     0.0.
 One-electron integrals computed using PRISM.
 NBasis=   197 RedAO= T  NBF=   197
 NBsUse=   197 1.00D-06 NBFU=   197
 Precomputing XC quadrature grid using
 IXCGrd= 2 IRadAn=           5 IRanWt=          -1 IRanGd=           0 AccXCQ= 0.00D+00.
 NRdTot=     427 NPtTot=      123814 NUsed=      126881 NTot=      126913
 NSgBfM=   229   229   229   229   229 NAtAll=     5     5.
 Leave Link  302 at Thu Apr 16 12:02:07 2020, MaxMem= 1073741824 cpu:       1.2
 (Enter /home/matheus/.gaussian/g09/l303.exe)
 DipDrv:  MaxL=1.
 Leave Link  303 at Thu Apr 16 12:02:07 2020, MaxMem= 1073741824 cpu:       0.2
 (Enter /home/matheus/.gaussian/g09/l401.exe)
 Harris functional with IExCor= 4639 diagonalized for initial guess.
 ExpMin= 2.53D-02 ExpMax= 1.17D+07 ExpMxC= 1.33D+04 IAcc=3 IRadAn=         5 AccDes= 0.00D+00
 HarFok:  IExCor= 4639 AccDes= 0.00D+00 IRadAn=         5 IDoV= 1
 ScaDFX=  1.000000  1.000000  1.000000  1.000000
 FoFCou: FMM=F IPFlag=           0 FMFlag=      100000 FMFlg1=           0
         NFxFlg=           0 DoJE=T BraDBF=F KetDBF=T FulRan=T
         Omega=  0.000000  0.000000  1.000000  0.000000  0.000000 ICntrl=     500 IOpCl=  0
         NMat0=    1 NMatS0=    1 NMatT0=    0 NMatD0=    1 NMtDS0=    0 NMtDT0=    0
         I1Cent=           4 NGrid=           0.
 Petite list used in FoFCou.
 Harris En= -2875.39445537538    
 Initial guess orbital symmetries:
       Occupied  (A) (A) (A) (A) (A) (A) (A) (A) (A) (A) (A) (A)
                 (A) (A) (A) (A) (A) (A) (A) (A) (A) (A) (A) (A)
                 (A) (A) (A)
       Virtual   (A) (A) (A) (A) (A) (A) (A) (A) (A) (A) (A) (A)
                 (A) (A) (A) (A) (A) (A) (A) (A) (A) (A) (A) (A)
                 (A) (A) (A) (A) (A) (A) (A) (A) (A) (A) (A) (A)
                 (A) (A) (A) (A) (A) (A) (A) (A) (A) (A) (A) (A)
                 (A) (A) (A) (A) (A) (A) (A) (A) (A) (A) (A) (A)
                 (A) (A) (A) (A) (A) (A) (A) (A) (A) (A) (A) (A)
                 (A) (A) (A) (A) (A) (A) (A) (A) (A) (A) (A) (A)
                 (A) (A) (A) (A) (A) (A) (A) (A) (A) (A) (A) (A)
                 (A) (A) (A) (A) (A) (A) (A) (A) (A) (A) (A) (A)
                 (A) (A) (A) (A) (A) (A) (A) (A) (A) (A) (A) (A)
                 (A) (A) (A) (A) (A) (A) (A) (A) (A) (A) (A) (A)
                 (A) (A) (A) (A) (A) (A) (A) (A) (A) (A) (A) (A)
                 (A) (A) (A) (A) (A) (A) (A) (A) (A) (A) (A) (A)
                 (A) (A) (A) (A) (A) (A) (A) (A) (A) (A) (A) (A)
                 (A) (A)
 The electronic state of the initial guess is 1-A.
 Leave Link  401 at Thu Apr 16 12:02:07 2020, MaxMem= 1073741824 cpu:       4.2
 (Enter /home/matheus/.gaussian/g09/l502.exe)
 Closed shell SCF:
 Requested convergence on RMS density matrix=1.00D-08 within 128 cycles.
 Requested convergence on MAX density matrix=1.00D-06.
 Requested convergence on             energy=1.00D-06.
 No special actions if energy rises.
 Using DIIS extrapolation, IDIIS=  1040.
 Integral symmetry usage will be decided dynamically.
       126823 words used for storage of precomputed grid.
 IEnd=      305770 IEndB=      305770 NGot=  1073741824 MDV=  1073505365
 LenX=  1073505365 LenY=  1073452483
 Fock matrices will be formed incrementally for  20 cycles.

 Cycle   1  Pass 1  IDiag  1:
 FoFJK:  IHMeth= 1 ICntrl=     0 DoSepK=T KAlg= 1 I1Cent= 0 FoldK=F
 FoFCou: FMM=F IPFlag=           0 FMFlag=      100000 FMFlg1=           0
         NFxFlg=           0 DoJE=T BraDBF=F KetDBF=F FulRan=T
         Omega=  0.000000  0.000000  1.000000  0.000000  0.000000 ICntrl=     500 IOpCl=  0
         NMat0=    1 NMatS0=    1 NMatT0=    0 NMatD0=    1 NMtDS0=    0 NMtDT0=    0
         I1Cent=           0 NGrid=           0.
 Symmetry not used in FoFCou.
 E= -2904.90178610743    
 DIIS: error= 6.00D-02 at cycle   1 NSaved=   1.
 NSaved= 1 IEnMin= 1 EnMin= -2904.90178610743     IErMin= 1 ErrMin= 6.00D-02
 ErrMax= 6.00D-02 EMaxC= 1.00D-01 BMatC= 2.21D+00 BMatP= 2.21D+00
 IDIUse=3 WtCom= 4.00D-01 WtEn= 6.00D-01
 Coeff-Com:  0.100D+01
 Coeff-En:   0.100D+01
 Coeff:      0.100D+01
 Gap=     0.534 Goal=   None    Shift=    0.000
 GapD=    0.534 DampG=2.000 DampE=0.500 DampFc=1.0000 IDamp=-1.
 RMSDP=6.11D-03 MaxDP=3.66D-01              OVMax= 1.79D-01

 Cycle   2  Pass 1  IDiag  1:
 RMSU=  4.29D-03    CP:  1.03D+00
 FoFJK:  IHMeth= 1 ICntrl=     0 DoSepK=T KAlg= 1 I1Cent= 0 FoldK=F
 E= -2905.22089542480     Delta-E=       -0.319109317367 Rises=F Damp=F
 DIIS: error= 2.84D-02 at cycle   2 NSaved=   2.
 NSaved= 2 IEnMin= 2 EnMin= -2905.22089542480     IErMin= 2 ErrMin= 2.84D-02
 ErrMax= 2.84D-02 EMaxC= 1.00D-01 BMatC= 5.65D-01 BMatP= 2.21D+00
 IDIUse=3 WtCom= 7.16D-01 WtEn= 2.84D-01
 Coeff-Com:  0.328D+00 0.672D+00
 Coeff-En:   0.199D+00 0.801D+00
 Coeff:      0.291D+00 0.709D+00
 Gap=     0.474 Goal=   None    Shift=    0.000
 RMSDP=2.66D-03 MaxDP=1.56D-01 DE=-3.19D-01 OVMax= 7.32D-02

 Cycle   3  Pass 1  IDiag  1:
 RMSU=  5.70D-04    CP:  1.02D+00  5.85D-01
 FoFJK:  IHMeth= 1 ICntrl=     0 DoSepK=T KAlg= 1 I1Cent= 0 FoldK=F
 E= -2905.41606835146     Delta-E=       -0.195172926663 Rises=F Damp=F
 DIIS: error= 6.25D-03 at cycle   3 NSaved=   3.
 NSaved= 3 IEnMin= 3 EnMin= -2905.41606835146     IErMin= 3 ErrMin= 6.25D-03
 ErrMax= 6.25D-03 EMaxC= 1.00D-01 BMatC= 1.69D-02 BMatP= 5.65D-01
 IDIUse=3 WtCom= 9.38D-01 WtEn= 6.25D-02
 Coeff-Com:  0.333D-01 0.183D+00 0.784D+00
 Coeff-En:   0.000D+00 0.000D+00 0.100D+01
 Coeff:      0.313D-01 0.171D+00 0.798D+00
 Gap=     0.426 Goal=   None    Shift=    0.000
 RMSDP=4.58D-04 MaxDP=1.78D-02 DE=-1.95D-01 OVMax= 2.57D-02

 Cycle   4  Pass 1  IDiag  1:
 RMSU=  2.27D-04    CP:  1.02D+00  6.38D-01  9.15D-01
 FoFJK:  IHMeth= 1 ICntrl=     0 DoSepK=T KAlg= 1 I1Cent= 0 FoldK=F
 E= -2905.42380300682     Delta-E=       -0.007734655360 Rises=F Damp=F
 DIIS: error= 2.61D-03 at cycle   4 NSaved=   4.
 NSaved= 4 IEnMin= 4 EnMin= -2905.42380300682     IErMin= 4 ErrMin= 2.61D-03
 ErrMax= 2.61D-03 EMaxC= 1.00D-01 BMatC= 1.71D-03 BMatP= 1.69D-02
 IDIUse=3 WtCom= 9.74D-01 WtEn= 2.61D-02
 Coeff-Com: -0.232D-02 0.462D-01 0.371D+00 0.585D+00
 Coeff-En:   0.000D+00 0.000D+00 0.000D+00 0.100D+01
 Coeff:     -0.226D-02 0.450D-01 0.361D+00 0.596D+00
 Gap=     0.411 Goal=   None    Shift=    0.000
 RMSDP=1.12D-04 MaxDP=6.25D-03 DE=-7.73D-03 OVMax= 6.84D-03

 Cycle   5  Pass 1  IDiag  1:
 RMSU=  4.09D-05    CP:  1.02D+00  6.37D-01  9.60D-01  7.26D-01
 FoFJK:  IHMeth= 1 ICntrl=     0 DoSepK=T KAlg= 1 I1Cent= 0 FoldK=F
 E= -2905.42482402514     Delta-E=       -0.001021018314 Rises=F Damp=F
 DIIS: error= 2.82D-04 at cycle   5 NSaved=   5.
 NSaved= 5 IEnMin= 5 EnMin= -2905.42482402514     IErMin= 5 ErrMin= 2.82D-04
 ErrMax= 2.82D-04 EMaxC= 1.00D-01 BMatC= 2.68D-05 BMatP= 1.71D-03
 IDIUse=3 WtCom= 9.97D-01 WtEn= 2.82D-03
 Coeff-Com: -0.149D-02 0.110D-01 0.108D+00 0.196D+00 0.686D+00
 Coeff-En:   0.000D+00 0.000D+00 0.000D+00 0.000D+00 0.100D+01
 Coeff:     -0.149D-02 0.110D-01 0.108D+00 0.195D+00 0.687D+00
 Gap=     0.410 Goal=   None    Shift=    0.000
 RMSDP=2.33D-05 MaxDP=9.63D-04 DE=-1.02D-03 OVMax= 1.64D-03

 Cycle   6  Pass 1  IDiag  1:
 RMSU=  1.47D-05    CP:  1.02D+00  6.37D-01  9.68D-01  7.49D-01  1.07D+00
 FoFJK:  IHMeth= 1 ICntrl=     0 DoSepK=T KAlg= 1 I1Cent= 0 FoldK=F
 E= -2905.42483841784     Delta-E=       -0.000014392703 Rises=F Damp=F
 DIIS: error= 1.86D-04 at cycle   6 NSaved=   6.
 NSaved= 6 IEnMin= 6 EnMin= -2905.42483841784     IErMin= 6 ErrMin= 1.86D-04
 ErrMax= 1.86D-04 EMaxC= 1.00D-01 BMatC= 9.69D-06 BMatP= 2.68D-05
 IDIUse=3 WtCom= 9.98D-01 WtEn= 1.86D-03
 Coeff-Com: -0.239D-03-0.635D-02-0.372D-01-0.504D-01 0.378D+00 0.716D+00
 Coeff-En:   0.000D+00 0.000D+00 0.000D+00 0.000D+00 0.165D+00 0.835D+00
 Coeff:     -0.238D-03-0.634D-02-0.371D-01-0.503D-01 0.378D+00 0.716D+00
 Gap=     0.410 Goal=   None    Shift=    0.000
 RMSDP=1.36D-05 MaxDP=4.51D-04 DE=-1.44D-05 OVMax= 7.80D-04

 Cycle   7  Pass 1  IDiag  1:
 RMSU=  3.73D-06    CP:  1.02D+00  6.37D-01  9.76D-01  7.61D-01  1.24D+00
                    CP:  8.85D-01
 FoFJK:  IHMeth= 1 ICntrl=     0 DoSepK=T KAlg= 1 I1Cent= 0 FoldK=F
 E= -2905.42484564807     Delta-E=       -0.000007230225 Rises=F Damp=F
 DIIS: error= 1.43D-05 at cycle   7 NSaved=   7.
 NSaved= 7 IEnMin= 7 EnMin= -2905.42484564807     IErMin= 7 ErrMin= 1.43D-05
 ErrMax= 1.43D-05 EMaxC= 1.00D-01 BMatC= 5.20D-08 BMatP= 9.69D-06
 IDIUse=1 WtCom= 1.00D+00 WtEn= 0.00D+00
 Coeff-Com:  0.348D-04-0.733D-03-0.582D-02-0.870D-02-0.154D-01 0.305D-01
 Coeff-Com:  0.100D+01
 Coeff:      0.348D-04-0.733D-03-0.582D-02-0.870D-02-0.154D-01 0.305D-01
 Coeff:      0.100D+01
 Gap=     0.410 Goal=   None    Shift=    0.000
 RMSDP=2.73D-06 MaxDP=9.41D-05 DE=-7.23D-06 OVMax= 1.93D-04

 Cycle   8  Pass 1  IDiag  1:
 RMSU=  7.98D-07    CP:  1.02D+00  6.37D-01  9.77D-01  7.65D-01  1.26D+00
                    CP:  9.40D-01  1.21D+00
 FoFJK:  IHMeth= 1 ICntrl=     0 DoSepK=T KAlg= 1 I1Cent= 0 FoldK=F
 E= -2905.42484576770     Delta-E=       -0.000000119639 Rises=F Damp=F
 DIIS: error= 2.77D-06 at cycle   8 NSaved=   8.
 NSaved= 8 IEnMin= 8 EnMin= -2905.42484576770     IErMin= 8 ErrMin= 2.77D-06
 ErrMax= 2.77D-06 EMaxC= 1.00D-01 BMatC= 2.95D-09 BMatP= 5.20D-08
 IDIUse=1 WtCom= 1.00D+00 WtEn= 0.00D+00
 Coeff-Com:  0.106D-04 0.203D-03 0.114D-02 0.120D-02-0.173D-01-0.281D-01
 Coeff-Com:  0.378D-01 0.101D+01
 Coeff:      0.106D-04 0.203D-03 0.114D-02 0.120D-02-0.173D-01-0.281D-01
 Coeff:      0.378D-01 0.101D+01
 Gap=     0.410 Goal=   None    Shift=    0.000
 RMSDP=6.20D-07 MaxDP=1.83D-05 DE=-1.20D-07 OVMax= 5.11D-05

 Cycle   9  Pass 1  IDiag  1:
 RMSU=  1.78D-07    CP:  1.02D+00  6.37D-01  9.77D-01  7.65D-01  1.26D+00
                    CP:  9.50D-01  1.28D+00  1.23D+00
 FoFJK:  IHMeth= 1 ICntrl=     0 DoSepK=T KAlg= 1 I1Cent= 0 FoldK=F
 E= -2905.42484577531     Delta-E=       -0.000000007608 Rises=F Damp=F
 DIIS: error= 8.26D-07 at cycle   9 NSaved=   9.
 NSaved= 9 IEnMin= 9 EnMin= -2905.42484577531     IErMin= 9 ErrMin= 8.26D-07
 ErrMax= 8.26D-07 EMaxC= 1.00D-01 BMatC= 2.53D-10 BMatP= 2.95D-09
 IDIUse=1 WtCom= 1.00D+00 WtEn= 0.00D+00
 Coeff-Com: -0.151D-05 0.617D-04 0.456D-03 0.518D-03-0.480D-04-0.286D-02
 Coeff-Com: -0.611D-01 0.368D-01 0.103D+01
 Coeff:     -0.151D-05 0.617D-04 0.456D-03 0.518D-03-0.480D-04-0.286D-02
 Coeff:     -0.611D-01 0.368D-01 0.103D+01
 Gap=     0.410 Goal=   None    Shift=    0.000
 RMSDP=1.60D-07 MaxDP=4.35D-06 DE=-7.61D-09 OVMax= 1.71D-05

 Cycle  10  Pass 1  IDiag  1:
 RMSU=  6.01D-08    CP:  1.02D+00  6.37D-01  9.77D-01  7.65D-01  1.26D+00
                    CP:  9.52D-01  1.29D+00  1.31D+00  1.27D+00
 FoFJK:  IHMeth= 1 ICntrl=     0 DoSepK=T KAlg= 1 I1Cent= 0 FoldK=F
 E= -2905.42484577604     Delta-E=       -0.000000000729 Rises=F Damp=F
 DIIS: error= 2.94D-07 at cycle  10 NSaved=  10.
 NSaved=10 IEnMin=10 EnMin= -2905.42484577604     IErMin=10 ErrMin= 2.94D-07
 ErrMax= 2.94D-07 EMaxC= 1.00D-01 BMatC= 2.25D-11 BMatP= 2.53D-10
 IDIUse=1 WtCom= 1.00D+00 WtEn= 0.00D+00
 Coeff-Com: -0.332D-06-0.103D-04-0.649D-04-0.549D-04 0.123D-02 0.202D-02
 Coeff-Com: -0.127D-02-0.864D-01 0.459D-01 0.104D+01
 Coeff:     -0.332D-06-0.103D-04-0.649D-04-0.549D-04 0.123D-02 0.202D-02
 Coeff:     -0.127D-02-0.864D-01 0.459D-01 0.104D+01
 Gap=     0.410 Goal=   None    Shift=    0.000
 RMSDP=5.25D-08 MaxDP=1.01D-06 DE=-7.29D-10 OVMax= 7.26D-06

 Cycle  11  Pass 1  IDiag  1:
 RMSU=  1.70D-08    CP:  1.02D+00  6.37D-01  9.77D-01  7.65D-01  1.26D+00
                    CP:  9.52D-01  1.29D+00  1.32D+00  1.41D+00  1.32D+00
 FoFJK:  IHMeth= 1 ICntrl=     0 DoSepK=T KAlg= 1 I1Cent= 0 FoldK=F
 E= -2905.42484577612     Delta-E=       -0.000000000082 Rises=F Damp=F
 DIIS: error= 1.19D-07 at cycle  11 NSaved=  11.
 NSaved=11 IEnMin=11 EnMin= -2905.42484577612     IErMin=11 ErrMin= 1.19D-07
 ErrMax= 1.19D-07 EMaxC= 1.00D-01 BMatC= 3.11D-12 BMatP= 2.25D-11
 IDIUse=1 WtCom= 1.00D+00 WtEn= 0.00D+00
 Coeff-Com:  0.300D-06-0.448D-05-0.376D-04-0.299D-04-0.198D-03-0.386D-04
 Coeff-Com:  0.703D-02 0.192D-02-0.902D-01-0.141D+00 0.122D+01
 Coeff:      0.300D-06-0.448D-05-0.376D-04-0.299D-04-0.198D-03-0.386D-04
 Coeff:      0.703D-02 0.192D-02-0.902D-01-0.141D+00 0.122D+01
 Gap=     0.410 Goal=   None    Shift=    0.000
 RMSDP=2.43D-08 MaxDP=5.45D-07 DE=-8.23D-11 OVMax= 3.75D-06

 Cycle  12  Pass 1  IDiag  1:
 RMSU=  6.02D-09    CP:  1.02D+00  6.37D-01  9.77D-01  7.65D-01  1.26D+00
                    CP:  9.52D-01  1.29D+00  1.32D+00  1.45D+00  1.51D+00
                    CP:  1.54D+00
 FoFJK:  IHMeth= 1 ICntrl=     0 DoSepK=T KAlg= 1 I1Cent= 0 FoldK=F
 E= -2905.42484577614     Delta-E=       -0.000000000017 Rises=F Damp=F
 DIIS: error= 5.28D-08 at cycle  12 NSaved=  12.
 NSaved=12 IEnMin=12 EnMin= -2905.42484577614     IErMin=12 ErrMin= 5.28D-08
 ErrMax= 5.28D-08 EMaxC= 1.00D-01 BMatC= 2.96D-13 BMatP= 3.11D-12
 IDIUse=1 WtCom= 1.00D+00 WtEn= 0.00D+00
 Coeff-Com: -0.331D-07 0.987D-06 0.805D-05 0.420D-06-0.109D-03-0.182D-03
 Coeff-Com: -0.275D-03 0.722D-02 0.816D-02-0.898D-01-0.204D+00 0.128D+01
 Coeff:     -0.331D-07 0.987D-06 0.805D-05 0.420D-06-0.109D-03-0.182D-03
 Coeff:     -0.275D-03 0.722D-02 0.816D-02-0.898D-01-0.204D+00 0.128D+01
 Gap=     0.410 Goal=   None    Shift=    0.000
 RMSDP=1.05D-08 MaxDP=2.30D-07 DE=-1.68D-11 OVMax= 1.58D-06

 Cycle  13  Pass 1  IDiag  1:
 RMSU=  1.75D-09    CP:  1.02D+00  6.37D-01  9.77D-01  7.65D-01  1.26D+00
                    CP:  9.52D-01  1.29D+00  1.32D+00  1.46D+00  1.56D+00
                    CP:  1.79D+00  1.68D+00
 FoFJK:  IHMeth= 1 ICntrl=     0 DoSepK=T KAlg= 1 I1Cent= 0 FoldK=F
 E= -2905.42484577614     Delta-E=       -0.000000000005 Rises=F Damp=F
 DIIS: error= 1.14D-08 at cycle  13 NSaved=  13.
 NSaved=13 IEnMin=13 EnMin= -2905.42484577614     IErMin=13 ErrMin= 1.14D-08
 ErrMax= 1.14D-08 EMaxC= 1.00D-01 BMatC= 2.67D-14 BMatP= 2.96D-13
 IDIUse=1 WtCom= 1.00D+00 WtEn= 0.00D+00
 Coeff-Com: -0.360D-07 0.419D-06 0.373D-05 0.980D-06 0.150D-04 0.765D-05
 Coeff-Com: -0.594D-03-0.238D-03 0.928D-02 0.106D-01-0.139D+00 0.103D+00
 Coeff-Com:  0.102D+01
 Coeff:     -0.360D-07 0.419D-06 0.373D-05 0.980D-06 0.150D-04 0.765D-05
 Coeff:     -0.594D-03-0.238D-03 0.928D-02 0.106D-01-0.139D+00 0.103D+00
 Coeff:      0.102D+01
 Gap=     0.410 Goal=   None    Shift=    0.000
 RMSDP=2.68D-09 MaxDP=5.95D-08 DE=-4.55D-12 OVMax= 3.24D-07

 SCF Done:  E(RwB97XD) =  -2905.42484578     A.U. after   13 cycles
             Convg  =    0.2685D-08             -V/T =  2.0015
 KE= 2.900928516785D+03 PE=-7.235131372149D+03 EE= 1.280389270059D+03
 Leave Link  502 at Thu Apr 16 12:02:56 2020, MaxMem= 1073741824 cpu:     386.4
 (Enter /home/matheus/.gaussian/g09/l601.exe)
 Copying SCF densities to generalized density rwf, IOpCl= 0 IROHF=0.

 **********************************************************************

            Population analysis using the SCF density.

 **********************************************************************

 Orbital symmetries:
       Occupied  (A) (A) (A) (A) (A) (A) (A) (A) (A) (A) (A) (A)
                 (A) (A) (A) (A) (A) (A) (A) (A) (A) (A) (A) (A)
                 (A) (A) (A)
       Virtual   (A) (A) (A) (A) (A) (A) (A) (A) (A) (A) (A) (A)
                 (A) (A) (A) (A) (A) (A) (A) (A) (A) (A) (A) (A)
                 (A) (A) (A) (A) (A) (A) (A) (A) (A) (A) (A) (A)
                 (A) (A) (A) (A) (A) (A) (A) (A) (A) (A) (A) (A)
                 (A) (A) (A) (A) (A) (A) (A) (A) (A) (A) (A) (A)
                 (A) (A) (A) (A) (A) (A) (A) (A) (A) (A) (A) (A)
                 (A) (A) (A) (A) (A) (A) (A) (A) (A) (A) (A) (A)
                 (A) (A) (A) (A) (A) (A) (A) (A) (A) (A) (A) (A)
                 (A) (A) (A) (A) (A) (A) (A) (A) (A) (A) (A) (A)
                 (A) (A) (A) (A) (A) (A) (A) (A) (A) (A) (A) (A)
                 (A) (A) (A) (A) (A) (A) (A) (A) (A) (A) (A) (A)
                 (A) (A) (A) (A) (A) (A) (A) (A) (A) (A) (A) (A)
                 (A) (A) (A) (A) (A) (A) (A) (A) (A) (A) (A) (A)
                 (A) (A) (A) (A) (A) (A) (A) (A) (A) (A) (A) (A)
                 (A) (A)
 The electronic state is 1-A.
 Alpha  occ. eigenvalues -- -513.08955 -67.35781 -60.90663 -60.90649 -60.90641
 Alpha  occ. eigenvalues --  -19.33770 -19.33367  -9.81109  -7.50447  -7.50399
 Alpha  occ. eigenvalues --   -7.50377  -3.37127  -3.37117  -3.37100  -3.37062
 Alpha  occ. eigenvalues --   -3.37060  -1.24306  -1.03288  -1.01771  -0.65167
 Alpha  occ. eigenvalues --   -0.61446  -0.52319  -0.49679  -0.49067  -0.48504
 Alpha  occ. eigenvalues --   -0.44896  -0.37315
 Alpha virt. eigenvalues --    0.03652   0.04339   0.08154   0.10064   0.10761
 Alpha virt. eigenvalues --    0.11704   0.13612   0.14415   0.16897   0.17701
 Alpha virt. eigenvalues --    0.18634   0.19341   0.20749   0.22919   0.23583
 Alpha virt. eigenvalues --    0.24539   0.26277   0.28618   0.30895   0.33541
 Alpha virt. eigenvalues --    0.33956   0.34602   0.36432   0.38855   0.40014
 Alpha virt. eigenvalues --    0.40641   0.42002   0.47928   0.51760   0.54711
 Alpha virt. eigenvalues --    0.56436   0.58537   0.62708   0.65112   0.68119
 Alpha virt. eigenvalues --    0.70344   0.71077   0.72121   0.72717   0.74996
 Alpha virt. eigenvalues --    0.75613   0.76974   0.78032   0.78980   0.81582
 Alpha virt. eigenvalues --    0.83634   0.84430   0.86687   0.88590   0.90034
 Alpha virt. eigenvalues --    0.92012   0.93357   0.95391   0.96908   0.98292
 Alpha virt. eigenvalues --    1.01618   1.02428   1.03694   1.06239   1.08930
 Alpha virt. eigenvalues --    1.10810   1.12213   1.15083   1.17211   1.19980
 Alpha virt. eigenvalues --    1.26720   1.30395   1.33843   1.37808   1.39503
 Alpha virt. eigenvalues --    1.43500   1.50140   1.51867   1.55086   1.60107
 Alpha virt. eigenvalues --    1.61674   1.75610   1.80829   1.83599   1.92749
 Alpha virt. eigenvalues --    1.97887   2.00140   2.02206   2.12383   2.13733
 Alpha virt. eigenvalues --    2.14887   2.18634   2.19454   2.20557   2.22957
 Alpha virt. eigenvalues --    2.25808   2.29049   2.29977   2.31163   2.32951
 Alpha virt. eigenvalues --    2.36091   2.38032   2.43798   2.46384   2.47593
 Alpha virt. eigenvalues --    2.47733   2.50588   2.52692   2.53857   2.55790
 Alpha virt. eigenvalues --    2.57809   2.60287   2.64778   2.65030   2.68715
 Alpha virt. eigenvalues --    2.72107   2.73236   2.78573   2.83603   2.87992
 Alpha virt. eigenvalues --    2.94245   3.05171   3.08387   3.13995   3.56557
 Alpha virt. eigenvalues --    3.68529   3.85217   3.95234   4.01952   4.06779
 Alpha virt. eigenvalues --    4.06960   4.15512   4.17358   4.21906   4.24776
 Alpha virt. eigenvalues --    4.42987   4.46877   4.52361   4.53690   4.72574
 Alpha virt. eigenvalues --    4.92342   4.98494   5.01384   5.06213   5.10927
 Alpha virt. eigenvalues --    5.31845   5.43335   5.83203   6.01554   6.06794
 Alpha virt. eigenvalues --    6.11725   6.33032   6.33322   6.40363   6.49867
 Alpha virt. eigenvalues --    6.67583   6.72097   6.75265   6.82045   6.85533
 Alpha virt. eigenvalues --    6.86442   6.91547   6.92750   6.95687   7.00069
 Alpha virt. eigenvalues --    7.03675   7.22830   7.25070   7.38156   7.67645
 Alpha virt. eigenvalues --    7.83058   8.07050   8.12864  14.05590  14.62063
          Condensed to atoms (all electrons):
              1          2          3          4          5
     1  O    8.145719  -0.156518   0.224444   0.001973  -0.024442
     2  O   -0.156518   8.225549   0.006894   0.214312  -0.017467
     3  H    0.224444   0.006894   0.555044   0.003456   0.002986
     4  H    0.001973   0.214312   0.003456   0.534700  -0.004073
     5  Kr  -0.024442  -0.017467   0.002986  -0.004073  36.035856
 Mulliken atomic charges:
              1
     1  O   -0.191176
     2  O   -0.272771
     3  H    0.207175
     4  H    0.249632
     5  Kr   0.007140
 Sum of Mulliken atomic charges =   0.00000
 Mulliken charges with hydrogens summed into heavy atoms:
              1
     1  O    0.015999
     2  O   -0.023139
     5  Kr   0.007140
 Sum of Mulliken charges with hydrogens summed into heavy atoms =   0.00000
 Electronic spatial extent (au):  <R**2>=            491.4073
 Charge=              0.0000 electrons
 Dipole moment (field-independent basis, Debye):
    X=              0.3728    Y=             -0.3212    Z=              0.7784  Tot=              0.9209
 Quadrupole moment (field-independent basis, Debye-Ang):
   XX=            -27.4800   YY=            -28.2667   ZZ=            -30.2851
   XY=              3.7260   XZ=             -2.4162   YZ=             -0.8387
 Traceless Quadrupole moment (field-independent basis, Debye-Ang):
   XX=              1.1972   YY=              0.4106   ZZ=             -1.6078
   XY=              3.7260   XZ=             -2.4162   YZ=             -0.8387
 Octapole moment (field-independent basis, Debye-Ang**2):
  XXX=              5.2639  YYY=             -0.7419  ZZZ=              0.3520  XYY=              4.2399
  XXY=            -15.3284  XXZ=              7.0890  XZZ=              7.6677  YZZ=             -0.6760
  YYZ=              0.9855  XYZ=              2.5457
 Hexadecapole moment (field-independent basis, Debye-Ang**3):
 XXXX=           -361.9580 YYYY=            -63.8369 ZZZZ=            -29.8946 XXXY=             46.6990
 XXXZ=            -21.1187 YYYX=              5.5720 YYYZ=             -1.0565 ZZZX=             -1.1942
 ZZZY=             -0.5346 XXYY=            -75.3893 XXZZ=            -77.3329 YYZZ=            -17.2339
 XXYZ=             -7.5201 YYXZ=             -2.8475 ZZXY=              1.3471
 N-N= 1.483887395288D+02 E-N=-7.235131371732D+03  KE= 2.900928516785D+03
 No NMR shielding tensors so no spin-rotation constants.
 Leave Link  601 at Thu Apr 16 12:03:00 2020, MaxMem= 1073741824 cpu:      15.8
 (Enter /home/matheus/.gaussian/g09/l108.exe)
 Variable Step   Value    
 -------- ---- -----------
     1       1    5.858151
 Leave Link  108 at Thu Apr 16 12:03:01 2020, MaxMem= 1073741824 cpu:       0.0
 (Enter /home/matheus/.gaussian/g09/l202.exe)
 ---------------------------------------------------------------------------------------------------
                            Z-MATRIX (ANGSTROMS AND DEGREES)
   CD    Cent   Atom    N1       Length/X        N2       Alpha/Y        N3        Beta/Z          J
 ---------------------------------------------------------------------------------------------------
      1      1  O        0   0.000000          0.000000          0.725000
      2      2  O        0   0.000000          0.000000         -0.725000
      3      3  H        0  -0.459360         -0.795635          1.023510
      4      4  H        0   0.000000          0.918721         -1.023510
      5      5  Kr       0   0.000000          3.100000          0.000000
 ---------------------------------------------------------------------------------------------------
                         Z-Matrix orientation:                         
 ---------------------------------------------------------------------
 Center     Atomic      Atomic             Coordinates (Angstroms)
 Number     Number       Type             X           Y           Z
 ---------------------------------------------------------------------
      1          8           0        0.000000    0.000000    0.725000
      2          8           0        0.000000    0.000000   -0.725000
      3          1           0       -0.459360   -0.795635    1.023510
      4          1           0        0.000000    0.918721   -1.023510
      5         36           0        0.000000    3.100000    0.000000
 ---------------------------------------------------------------------
                    Distance matrix (angstroms):
                    1          2          3          4          5
     1  O    0.000000
     2  O    1.450000   0.000000
     3  H    0.966000   1.975180   0.000000
     4  H    1.975180   0.966000   2.709303   0.000000
     5  Kr   3.183650   3.183650   4.053956   2.409472   0.000000
 Stoichiometry    H2KrO2
 Framework group  C1[X(H2KrO2)]
 Deg. of freedom     9
 Full point group                 C1      NOp   1
 RotChk:  IX=0 Diff= 1.88D-03
 Largest Abelian subgroup         C1      NOp   1
 Largest concise Abelian subgroup C1      NOp   1
                         Standard orientation:                         
 ---------------------------------------------------------------------
 Center     Atomic      Atomic             Coordinates (Angstroms)
 Number     Number       Type             X           Y           Z
 ---------------------------------------------------------------------
      1          8           0       -2.080484   -0.688443   -0.062199
      2          8           0       -2.056374    0.759975    0.001087
      3          1           0       -2.886156   -0.992979    0.375186
      4          1           0       -1.132876    1.042442    0.023911
      5         36           0        1.030941   -0.017270    0.002494
 ---------------------------------------------------------------------
 Rotational constants (GHZ):     26.4400616      2.1624582      2.0019947
 Leave Link  202 at Thu Apr 16 12:03:01 2020, MaxMem= 1073741824 cpu:       0.0
 (Enter /home/matheus/.gaussian/g09/l301.exe)
 Standard basis: Aug-CC-pVTZ (5D, 7F)
 Ernie: Thresh=  0.10000D-02 Tol=  0.10000D-05 Strict=F.
 Ernie:  38 primitive shells out of 205 were deleted.
 There are   197 symmetry adapted basis functions of A   symmetry.
 Integral buffers will be    131072 words long.
 Raffenetti 2 integral format.
 Two-electron integral symmetry is turned on.
   197 basis functions,   415 primitive gaussians,   229 cartesian basis functions
    27 alpha electrons       27 beta electrons
       nuclear repulsion energy       144.9503080274 Hartrees.
 IExCor= 4639 DFT=T Ex+Corr=wB97XD ExCW=0 ScaHFX=  1.000000
 ScaDFX=  1.000000  1.000000  1.000000  1.000000 ScalE2=  1.000000  1.000000
 IRadAn=      5 IRanWt=     -1 IRanGd=            0 ICorTp=0
  HFx wShort=  0.000000 wLong=  0.250000 cFull=  0.222036 cShort=  0.000000 cLong=  0.777964
  DFx wShort=  0.000000 wLong=  0.250000 cFull=  0.000000 cShort=  0.000000 cLong=  1.000000
 NAtoms=    5 NActive=    5 NUniq=    5 SFac= 1.00D+00 NAtFMM=   60 NAOKFM=F Big=F
 R6Disp: Dispersion energy =        -0.0008381781 Hartrees.
 Nuclear repulsion after empirical dispersion term =      144.9494698494 Hartrees.
 Leave Link  301 at Thu Apr 16 12:03:01 2020, MaxMem= 1073741824 cpu:       0.4
 (Enter /home/matheus/.gaussian/g09/l302.exe)
 NPDir=0 NMtPBC=     1 NCelOv=     1 NCel=       1 NClECP=     1 NCelD=      1
         NCelK=      1 NCelE2=     1 NClLst=     1 CellRange=     0.0.
 One-electron integrals computed using PRISM.
 NBasis=   197 RedAO= T  NBF=   197
 NBsUse=   197 1.00D-06 NBFU=   197
 Precomputing XC quadrature grid using
 IXCGrd= 2 IRadAn=           5 IRanWt=          -1 IRanGd=           0 AccXCQ= 0.00D+00.
 NRdTot=     427 NPtTot=      123814 NUsed=      126881 NTot=      126913
 NSgBfM=   229   229   229   229   229 NAtAll=     5     5.
 Leave Link  302 at Thu Apr 16 12:03:01 2020, MaxMem= 1073741824 cpu:       1.1
 (Enter /home/matheus/.gaussian/g09/l303.exe)
 DipDrv:  MaxL=1.
 Leave Link  303 at Thu Apr 16 12:03:02 2020, MaxMem= 1073741824 cpu:       0.2
 (Enter /home/matheus/.gaussian/g09/l401.exe)
 Initial guess read from the read-write file.
 B after Tr=     0.000000    0.000000    0.000000
         Rot=    1.000000    0.000000    0.000000    0.000000 Ang=   0.00 deg.
 Guess basis will be translated and rotated to current coordinates.
 Initial guess orbital symmetries:
       Occupied  (A) (A) (A) (A) (A) (A) (A) (A) (A) (A) (A) (A)
                 (A) (A) (A) (A) (A) (A) (A) (A) (A) (A) (A) (A)
                 (A) (A) (A)
       Virtual   (A) (A) (A) (A) (A) (A) (A) (A) (A) (A) (A) (A)
                 (A) (A) (A) (A) (A) (A) (A) (A) (A) (A) (A) (A)
                 (A) (A) (A) (A) (A) (A) (A) (A) (A) (A) (A) (A)
                 (A) (A) (A) (A) (A) (A) (A) (A) (A) (A) (A) (A)
                 (A) (A) (A) (A) (A) (A) (A) (A) (A) (A) (A) (A)
                 (A) (A) (A) (A) (A) (A) (A) (A) (A) (A) (A) (A)
                 (A) (A) (A) (A) (A) (A) (A) (A) (A) (A) (A) (A)
                 (A) (A) (A) (A) (A) (A) (A) (A) (A) (A) (A) (A)
                 (A) (A) (A) (A) (A) (A) (A) (A) (A) (A) (A) (A)
                 (A) (A) (A) (A) (A) (A) (A) (A) (A) (A) (A) (A)
                 (A) (A) (A) (A) (A) (A) (A) (A) (A) (A) (A) (A)
                 (A) (A) (A) (A) (A) (A) (A) (A) (A) (A) (A) (A)
                 (A) (A) (A) (A) (A) (A) (A) (A) (A) (A) (A) (A)
                 (A) (A) (A) (A) (A) (A) (A) (A) (A) (A) (A) (A)
                 (A) (A)
 The electronic state of the initial guess is 1-A.
 Generating alternative initial guess.
 Harris functional with IExCor= 4639 diagonalized for initial guess.
 ExpMin= 2.53D-02 ExpMax= 1.17D+07 ExpMxC= 1.33D+04 IAcc=3 IRadAn=         5 AccDes= 0.00D+00
 HarFok:  IExCor= 4639 AccDes= 0.00D+00 IRadAn=         5 IDoV= 1
 ScaDFX=  1.000000  1.000000  1.000000  1.000000
 FoFCou: FMM=F IPFlag=           0 FMFlag=      100000 FMFlg1=           0
         NFxFlg=           0 DoJE=T BraDBF=F KetDBF=T FulRan=T
         Omega=  0.000000  0.000000  1.000000  0.000000  0.000000 ICntrl=     500 IOpCl=  0
         NMat0=    1 NMatS0=    1 NMatT0=    0 NMatD0=    1 NMtDS0=    0 NMtDT0=    0
         I1Cent=           4 NGrid=           0.
 Petite list used in FoFCou.
 Harris En= -2875.39760676956    
 Leave Link  401 at Thu Apr 16 12:03:02 2020, MaxMem= 1073741824 cpu:       5.1
 (Enter /home/matheus/.gaussian/g09/l502.exe)
 Closed shell SCF:
 Requested convergence on RMS density matrix=1.00D-08 within 128 cycles.
 Requested convergence on MAX density matrix=1.00D-06.
 Requested convergence on             energy=1.00D-06.
 No special actions if energy rises.
 Using DIIS extrapolation, IDIIS=  1040.
 Integral symmetry usage will be decided dynamically.
       126823 words used for storage of precomputed grid.
 IEnd=      305770 IEndB=      305770 NGot=  1073741824 MDV=  1073505365
 LenX=  1073505365 LenY=  1073452483
 Fock matrices will be formed incrementally for  20 cycles.

 Cycle   1  Pass 1  IDiag  1:
 FoFJK:  IHMeth= 1 ICntrl=     0 DoSepK=T KAlg= 1 I1Cent= 0 FoldK=F
 FoFCou: FMM=F IPFlag=           0 FMFlag=      100000 FMFlg1=           0
         NFxFlg=           0 DoJE=T BraDBF=F KetDBF=F FulRan=T
         Omega=  0.000000  0.000000  1.000000  0.000000  0.000000 ICntrl=     500 IOpCl=  0
         NMat0=    1 NMatS0=    1 NMatT0=    0 NMatD0=    1 NMtDS0=    0 NMtDT0=    0
         I1Cent=           0 NGrid=           0.
 Symmetry not used in FoFCou.
 E= -2905.42643526113    
 DIIS: error= 1.12D-03 at cycle   1 NSaved=   1.
 NSaved= 1 IEnMin= 1 EnMin= -2905.42643526113     IErMin= 1 ErrMin= 1.12D-03
 ErrMax= 1.12D-03 EMaxC= 1.00D-01 BMatC= 5.01D-04 BMatP= 5.01D-04
 IDIUse=3 WtCom= 9.89D-01 WtEn= 1.12D-02
 Coeff-Com:  0.100D+01
 Coeff-En:   0.100D+01
 Coeff:      0.100D+01
 Gap=     0.411 Goal=   None    Shift=    0.000
 GapD=    0.411 DampG=2.000 DampE=1.000 DampFc=2.0000 IDamp=-1.
 RMSDP=7.67D-05 MaxDP=2.40D-03              OVMax= 3.65D-03

 Cycle   2  Pass 1  IDiag  1:
 RMSU=  5.42D-05    CP:  1.00D+00
 FoFJK:  IHMeth= 1 ICntrl=     0 DoSepK=T KAlg= 1 I1Cent= 0 FoldK=F
 E= -2905.42653477547     Delta-E=       -0.000099514333 Rises=F Damp=F
 DIIS: error= 1.15D-04 at cycle   2 NSaved=   2.
 NSaved= 2 IEnMin= 2 EnMin= -2905.42653477547     IErMin= 2 ErrMin= 1.15D-04
 ErrMax= 1.15D-04 EMaxC= 1.00D-01 BMatC= 5.27D-06 BMatP= 5.01D-04
 IDIUse=3 WtCom= 9.99D-01 WtEn= 1.15D-03
 Coeff-Com:  0.180D-03 0.100D+01
 Coeff-En:   0.000D+00 0.100D+01
 Coeff:      0.180D-03 0.100D+01
 Gap=     0.410 Goal=   None    Shift=    0.000
 RMSDP=1.77D-05 MaxDP=7.36D-04 DE=-9.95D-05 OVMax= 8.38D-04

 Cycle   3  Pass 1  IDiag  1:
 RMSU=  9.99D-06    CP:  1.00D+00  1.14D+00
 FoFJK:  IHMeth= 1 ICntrl=     0 DoSepK=T KAlg= 1 I1Cent= 0 FoldK=F
 E= -2905.42653718514     Delta-E=       -0.000002409670 Rises=F Damp=F
 DIIS: error= 1.20D-04 at cycle   3 NSaved=   3.
 NSaved= 3 IEnMin= 3 EnMin= -2905.42653718514     IErMin= 2 ErrMin= 1.15D-04
 ErrMax= 1.20D-04 EMaxC= 1.00D-01 BMatC= 5.00D-06 BMatP= 5.27D-06
 IDIUse=3 WtCom= 9.99D-01 WtEn= 1.20D-03
 Coeff-Com: -0.872D-02 0.497D+00 0.512D+00
 Coeff-En:   0.000D+00 0.263D+00 0.737D+00
 Coeff:     -0.871D-02 0.497D+00 0.512D+00
 Gap=     0.410 Goal=   None    Shift=    0.000
 RMSDP=6.15D-06 MaxDP=3.11D-04 DE=-2.41D-06 OVMax= 5.31D-04

 Cycle   4  Pass 1  IDiag  1:
 RMSU=  3.30D-06    CP:  1.00D+00  1.16D+00  7.32D-01
 FoFJK:  IHMeth= 1 ICntrl=     0 DoSepK=T KAlg= 1 I1Cent= 0 FoldK=F
 E= -2905.42654022562     Delta-E=       -0.000003040483 Rises=F Damp=F
 DIIS: error= 2.64D-05 at cycle   4 NSaved=   4.
 NSaved= 4 IEnMin= 4 EnMin= -2905.42654022562     IErMin= 4 ErrMin= 2.64D-05
 ErrMax= 2.64D-05 EMaxC= 1.00D-01 BMatC= 2.22D-07 BMatP= 5.00D-06
 IDIUse=1 WtCom= 1.00D+00 WtEn= 0.00D+00
 Coeff-Com: -0.281D-02 0.621D-01 0.176D+00 0.765D+00
 Coeff:     -0.281D-02 0.621D-01 0.176D+00 0.765D+00
 Gap=     0.410 Goal=   None    Shift=    0.000
 RMSDP=2.09D-06 MaxDP=6.79D-05 DE=-3.04D-06 OVMax= 1.28D-04

 Cycle   5  Pass 1  IDiag  1:
 RMSU=  1.10D-06    CP:  1.00D+00  1.17D+00  8.12D-01  1.04D+00
 FoFJK:  IHMeth= 1 ICntrl=     0 DoSepK=T KAlg= 1 I1Cent= 0 FoldK=F
 E= -2905.42654039275     Delta-E=       -0.000000167136 Rises=F Damp=F
 DIIS: error= 1.03D-05 at cycle   5 NSaved=   5.
 NSaved= 5 IEnMin= 5 EnMin= -2905.42654039275     IErMin= 5 ErrMin= 1.03D-05
 ErrMax= 1.03D-05 EMaxC= 1.00D-01 BMatC= 3.41D-08 BMatP= 2.22D-07
 IDIUse=1 WtCom= 1.00D+00 WtEn= 0.00D+00
 Coeff-Com:  0.205D-03-0.546D-01-0.105D-01 0.308D+00 0.757D+00
 Coeff:      0.205D-03-0.546D-01-0.105D-01 0.308D+00 0.757D+00
 Gap=     0.410 Goal=   None    Shift=    0.000
 RMSDP=1.06D-06 MaxDP=5.51D-05 DE=-1.67D-07 OVMax= 5.11D-05

 Cycle   6  Pass 1  IDiag  1:
 RMSU=  3.69D-07    CP:  1.00D+00  1.17D+00  8.50D-01  1.17D+00  9.63D-01
 FoFJK:  IHMeth= 1 ICntrl=     0 DoSepK=T KAlg= 1 I1Cent= 0 FoldK=F
 E= -2905.42654042192     Delta-E=       -0.000000029170 Rises=F Damp=F
 DIIS: error= 1.99D-06 at cycle   6 NSaved=   6.
 NSaved= 6 IEnMin= 6 EnMin= -2905.42654042192     IErMin= 6 ErrMin= 1.99D-06
 ErrMax= 1.99D-06 EMaxC= 1.00D-01 BMatC= 1.40D-09 BMatP= 3.41D-08
 IDIUse=1 WtCom= 1.00D+00 WtEn= 0.00D+00
 Coeff-Com:  0.195D-03-0.201D-01-0.121D-01 0.552D-01 0.234D+00 0.743D+00
 Coeff:      0.195D-03-0.201D-01-0.121D-01 0.552D-01 0.234D+00 0.743D+00
 Gap=     0.410 Goal=   None    Shift=    0.000
 RMSDP=2.05D-07 MaxDP=6.77D-06 DE=-2.92D-08 OVMax= 1.10D-05

 Cycle   7  Pass 1  IDiag  1:
 RMSU=  9.01D-08    CP:  1.00D+00  1.17D+00  8.56D-01  1.19D+00  1.02D+00
                    CP:  1.07D+00
 FoFJK:  IHMeth= 1 ICntrl=     0 DoSepK=T KAlg= 1 I1Cent= 0 FoldK=F
 E= -2905.42654042346     Delta-E=       -0.000000001535 Rises=F Damp=F
 DIIS: error= 6.19D-07 at cycle   7 NSaved=   7.
 NSaved= 7 IEnMin= 7 EnMin= -2905.42654042346     IErMin= 7 ErrMin= 6.19D-07
 ErrMax= 6.19D-07 EMaxC= 1.00D-01 BMatC= 7.58D-11 BMatP= 1.40D-09
 IDIUse=1 WtCom= 1.00D+00 WtEn= 0.00D+00
 Coeff-Com: -0.182D-04 0.617D-02 0.142D-02-0.359D-01-0.849D-01 0.147D-01
 Coeff-Com:  0.110D+01
 Coeff:     -0.182D-04 0.617D-02 0.142D-02-0.359D-01-0.849D-01 0.147D-01
 Coeff:      0.110D+01
 Gap=     0.410 Goal=   None    Shift=    0.000
 RMSDP=1.09D-07 MaxDP=4.94D-06 DE=-1.53D-09 OVMax= 6.66D-06

 Cycle   8  Pass 1  IDiag  1:
 RMSU=  3.03D-08    CP:  1.00D+00  1.17D+00  8.58D-01  1.20D+00  1.05D+00
                    CP:  1.20D+00  1.22D+00
 FoFJK:  IHMeth= 1 ICntrl=     0 DoSepK=T KAlg= 1 I1Cent= 0 FoldK=F
 E= -2905.42654042364     Delta-E=       -0.000000000176 Rises=F Damp=F
 DIIS: error= 6.90D-08 at cycle   8 NSaved=   8.
 NSaved= 8 IEnMin= 8 EnMin= -2905.42654042364     IErMin= 8 ErrMin= 6.90D-08
 ErrMax= 6.90D-08 EMaxC= 1.00D-01 BMatC= 3.28D-12 BMatP= 7.58D-11
 IDIUse=1 WtCom= 1.00D+00 WtEn= 0.00D+00
 Coeff-Com: -0.125D-04 0.202D-02 0.758D-03-0.923D-02-0.245D-01-0.256D-01
 Coeff-Com:  0.177D+00 0.880D+00
 Coeff:     -0.125D-04 0.202D-02 0.758D-03-0.923D-02-0.245D-01-0.256D-01
 Coeff:      0.177D+00 0.880D+00
 Gap=     0.410 Goal=   None    Shift=    0.000
 RMSDP=1.50D-08 MaxDP=5.99D-07 DE=-1.76D-10 OVMax= 1.12D-06

 Cycle   9  Pass 1  IDiag  1:
 RMSU=  6.08D-09    CP:  1.00D+00  1.17D+00  8.58D-01  1.20D+00  1.05D+00
                    CP:  1.21D+00  1.27D+00  1.22D+00
 FoFJK:  IHMeth= 1 ICntrl=     0 DoSepK=T KAlg= 1 I1Cent= 0 FoldK=F
 E= -2905.42654042367     Delta-E=       -0.000000000031 Rises=F Damp=F
 DIIS: error= 2.46D-08 at cycle   9 NSaved=   9.
 NSaved= 9 IEnMin= 9 EnMin= -2905.42654042367     IErMin= 9 ErrMin= 2.46D-08
 ErrMax= 2.46D-08 EMaxC= 1.00D-01 BMatC= 2.64D-13 BMatP= 3.28D-12
 IDIUse=1 WtCom= 1.00D+00 WtEn= 0.00D+00
 Coeff-Com:  0.125D-05-0.450D-03-0.104D-03 0.260D-02 0.654D-02-0.187D-02
 Coeff-Com: -0.880D-01 0.454D-01 0.104D+01
 Coeff:      0.125D-05-0.450D-03-0.104D-03 0.260D-02 0.654D-02-0.187D-02
 Coeff:     -0.880D-01 0.454D-01 0.104D+01
 Gap=     0.410 Goal=   None    Shift=    0.000
 RMSDP=7.23D-09 MaxDP=2.57D-07 DE=-3.14D-11 OVMax= 5.21D-07

 SCF Done:  E(RwB97XD) =  -2905.42654042     A.U. after    9 cycles
             Convg  =    0.7228D-08             -V/T =  2.0016
 KE= 2.900916244075D+03 PE=-7.228250398472D+03 EE= 1.276958144124D+03
 Leave Link  502 at Thu Apr 16 12:03:35 2020, MaxMem= 1073741824 cpu:     259.0
 (Enter /home/matheus/.gaussian/g09/l108.exe)
 Variable Step   Value    
 -------- ---- -----------
     1       2    6.047124
 Leave Link  108 at Thu Apr 16 12:03:35 2020, MaxMem= 1073741824 cpu:       0.0
 (Enter /home/matheus/.gaussian/g09/l202.exe)
 ---------------------------------------------------------------------------------------------------
                            Z-MATRIX (ANGSTROMS AND DEGREES)
   CD    Cent   Atom    N1       Length/X        N2       Alpha/Y        N3        Beta/Z          J
 ---------------------------------------------------------------------------------------------------
      1      1  O        0   0.000000          0.000000          0.725000
      2      2  O        0   0.000000          0.000000         -0.725000
      3      3  H        0  -0.459360         -0.795635          1.023510
      4      4  H        0   0.000000          0.918721         -1.023510
      5      5  Kr       0   0.000000          3.200000          0.000000
 ---------------------------------------------------------------------------------------------------
                         Z-Matrix orientation:                         
 ---------------------------------------------------------------------
 Center     Atomic      Atomic             Coordinates (Angstroms)
 Number     Number       Type             X           Y           Z
 ---------------------------------------------------------------------
      1          8           0        0.000000    0.000000    0.725000
      2          8           0        0.000000    0.000000   -0.725000
      3          1           0       -0.459360   -0.795635    1.023510
      4          1           0        0.000000    0.918721   -1.023510
      5         36           0        0.000000    3.200000    0.000000
 ---------------------------------------------------------------------
                    Distance matrix (angstroms):
                    1          2          3          4          5
     1  O    0.000000
     2  O    1.450000   0.000000
     3  H    0.966000   1.975180   0.000000
     4  H    1.975180   0.966000   2.709303   0.000000
     5  Kr   3.281101   3.281101   4.150143   2.500362   0.000000
 Stoichiometry    H2KrO2
 Framework group  C1[X(H2KrO2)]
 Deg. of freedom     9
 Full point group                 C1      NOp   1
 RotChk:  IX=0 Diff= 1.70D-03
 Largest Abelian subgroup         C1      NOp   1
 Largest concise Abelian subgroup C1      NOp   1
                         Standard orientation:                         
 ---------------------------------------------------------------------
 Center     Atomic      Atomic             Coordinates (Angstroms)
 Number     Number       Type             X           Y           Z
 ---------------------------------------------------------------------
      1          8           0       -2.146386   -0.689716   -0.062098
      2          8           0       -2.123882    0.758723    0.001289
      3          1           0       -2.951539   -0.995193    0.375588
      4          1           0       -1.200695    1.042229    0.023763
      5         36           0        1.064288   -0.016642    0.002420
 ---------------------------------------------------------------------
 Rotational constants (GHZ):     26.4385333      2.0301857      1.8881011
 Leave Link  202 at Thu Apr 16 12:03:35 2020, MaxMem= 1073741824 cpu:       0.0
 (Enter /home/matheus/.gaussian/g09/l301.exe)
 Standard basis: Aug-CC-pVTZ (5D, 7F)
 Ernie: Thresh=  0.10000D-02 Tol=  0.10000D-05 Strict=F.
 Ernie:  38 primitive shells out of 205 were deleted.
 There are   197 symmetry adapted basis functions of A   symmetry.
 Integral buffers will be    131072 words long.
 Raffenetti 2 integral format.
 Two-electron integral symmetry is turned on.
   197 basis functions,   415 primitive gaussians,   229 cartesian basis functions
    27 alpha electrons       27 beta electrons
       nuclear repulsion energy       141.7103960537 Hartrees.
 IExCor= 4639 DFT=T Ex+Corr=wB97XD ExCW=0 ScaHFX=  1.000000
 ScaDFX=  1.000000  1.000000  1.000000  1.000000 ScalE2=  1.000000  1.000000
 IRadAn=      5 IRanWt=     -1 IRanGd=            0 ICorTp=0
  HFx wShort=  0.000000 wLong=  0.250000 cFull=  0.222036 cShort=  0.000000 cLong=  0.777964
  DFx wShort=  0.000000 wLong=  0.250000 cFull=  0.000000 cShort=  0.000000 cLong=  1.000000
 NAtoms=    5 NActive=    5 NUniq=    5 SFac= 1.00D+00 NAtFMM=   60 NAOKFM=F Big=F
 R6Disp: Dispersion energy =        -0.0008893813 Hartrees.
 Nuclear repulsion after empirical dispersion term =      141.7095066724 Hartrees.
 Leave Link  301 at Thu Apr 16 12:03:35 2020, MaxMem= 1073741824 cpu:       0.2
 (Enter /home/matheus/.gaussian/g09/l302.exe)
 NPDir=0 NMtPBC=     1 NCelOv=     1 NCel=       1 NClECP=     1 NCelD=      1
         NCelK=      1 NCelE2=     1 NClLst=     1 CellRange=     0.0.
 One-electron integrals computed using PRISM.
 NBasis=   197 RedAO= T  NBF=   197
 NBsUse=   197 1.00D-06 NBFU=   197
 Precomputing XC quadrature grid using
 IXCGrd= 2 IRadAn=           5 IRanWt=          -1 IRanGd=           0 AccXCQ= 0.00D+00.
 NRdTot=     427 NPtTot=      123814 NUsed=      126881 NTot=      126913
 NSgBfM=   229   229   229   229   229 NAtAll=     5     5.
 Leave Link  302 at Thu Apr 16 12:03:35 2020, MaxMem= 1073741824 cpu:       1.0
 (Enter /home/matheus/.gaussian/g09/l303.exe)
 DipDrv:  MaxL=1.
 Leave Link  303 at Thu Apr 16 12:03:35 2020, MaxMem= 1073741824 cpu:       0.2
 (Enter /home/matheus/.gaussian/g09/l401.exe)
 Initial guess read from the read-write file.
 B after Tr=     0.000000    0.000000    0.000000
         Rot=    1.000000    0.000000    0.000000    0.000000 Ang=   0.00 deg.
 Guess basis will be translated and rotated to current coordinates.
 Initial guess orbital symmetries:
       Occupied  (A) (A) (A) (A) (A) (A) (A) (A) (A) (A) (A) (A)
                 (A) (A) (A) (A) (A) (A) (A) (A) (A) (A) (A) (A)
                 (A) (A) (A)
       Virtual   (A) (A) (A) (A) (A) (A) (A) (A) (A) (A) (A) (A)
                 (A) (A) (A) (A) (A) (A) (A) (A) (A) (A) (A) (A)
                 (A) (A) (A) (A) (A) (A) (A) (A) (A) (A) (A) (A)
                 (A) (A) (A) (A) (A) (A) (A) (A) (A) (A) (A) (A)
                 (A) (A) (A) (A) (A) (A) (A) (A) (A) (A) (A) (A)
                 (A) (A) (A) (A) (A) (A) (A) (A) (A) (A) (A) (A)
                 (A) (A) (A) (A) (A) (A) (A) (A) (A) (A) (A) (A)
                 (A) (A) (A) (A) (A) (A) (A) (A) (A) (A) (A) (A)
                 (A) (A) (A) (A) (A) (A) (A) (A) (A) (A) (A) (A)
                 (A) (A) (A) (A) (A) (A) (A) (A) (A) (A) (A) (A)
                 (A) (A) (A) (A) (A) (A) (A) (A) (A) (A) (A) (A)
                 (A) (A) (A) (A) (A) (A) (A) (A) (A) (A) (A) (A)
                 (A) (A) (A) (A) (A) (A) (A) (A) (A) (A) (A) (A)
                 (A) (A) (A) (A) (A) (A) (A) (A) (A) (A) (A) (A)
                 (A) (A)
 The electronic state of the initial guess is 1-A.
 Generating alternative initial guess.
 Harris functional with IExCor= 4639 diagonalized for initial guess.
 ExpMin= 2.53D-02 ExpMax= 1.17D+07 ExpMxC= 1.33D+04 IAcc=3 IRadAn=         5 AccDes= 0.00D+00
 HarFok:  IExCor= 4639 AccDes= 0.00D+00 IRadAn=         5 IDoV= 1
 ScaDFX=  1.000000  1.000000  1.000000  1.000000
 FoFCou: FMM=F IPFlag=           0 FMFlag=      100000 FMFlg1=           0
         NFxFlg=           0 DoJE=T BraDBF=F KetDBF=T FulRan=T
         Omega=  0.000000  0.000000  1.000000  0.000000  0.000000 ICntrl=     500 IOpCl=  0
         NMat0=    1 NMatS0=    1 NMatT0=    0 NMatD0=    1 NMtDS0=    0 NMtDT0=    0
         I1Cent=           4 NGrid=           0.
 Petite list used in FoFCou.
 Harris En= -2875.39987770360    
 Leave Link  401 at Thu Apr 16 12:03:36 2020, MaxMem= 1073741824 cpu:       4.8
 (Enter /home/matheus/.gaussian/g09/l502.exe)
 Closed shell SCF:
 Requested convergence on RMS density matrix=1.00D-08 within 128 cycles.
 Requested convergence on MAX density matrix=1.00D-06.
 Requested convergence on             energy=1.00D-06.
 No special actions if energy rises.
 Using DIIS extrapolation, IDIIS=  1040.
 Integral symmetry usage will be decided dynamically.
       126823 words used for storage of precomputed grid.
 IEnd=      305770 IEndB=      305770 NGot=  1073741824 MDV=  1073505365
 LenX=  1073505365 LenY=  1073452483
 Fock matrices will be formed incrementally for  20 cycles.

 Cycle   1  Pass 1  IDiag  1:
 FoFJK:  IHMeth= 1 ICntrl=     0 DoSepK=T KAlg= 1 I1Cent= 0 FoldK=F
 FoFCou: FMM=F IPFlag=           0 FMFlag=      100000 FMFlg1=           0
         NFxFlg=           0 DoJE=T BraDBF=F KetDBF=F FulRan=T
         Omega=  0.000000  0.000000  1.000000  0.000000  0.000000 ICntrl=     500 IOpCl=  0
         NMat0=    1 NMatS0=    1 NMatT0=    0 NMatD0=    1 NMtDS0=    0 NMtDT0=    0
         I1Cent=           0 NGrid=           0.
 Symmetry not used in FoFCou.
 E= -2905.42756432090    
 DIIS: error= 9.48D-04 at cycle   1 NSaved=   1.
 NSaved= 1 IEnMin= 1 EnMin= -2905.42756432090     IErMin= 1 ErrMin= 9.48D-04
 ErrMax= 9.48D-04 EMaxC= 1.00D-01 BMatC= 3.84D-04 BMatP= 3.84D-04
 IDIUse=3 WtCom= 9.91D-01 WtEn= 9.48D-03
 Coeff-Com:  0.100D+01
 Coeff-En:   0.100D+01
 Coeff:      0.100D+01
 Gap=     0.412 Goal=   None    Shift=    0.000
 RMSDP=7.22D-05 MaxDP=2.06D-03              OVMax= 3.34D-03

 Cycle   2  Pass 1  IDiag  1:
 RMSU=  5.11D-05    CP:  1.00D+00
 FoFJK:  IHMeth= 1 ICntrl=     0 DoSepK=T KAlg= 1 I1Cent= 0 FoldK=F
 E= -2905.42764013715     Delta-E=       -0.000075816253 Rises=F Damp=F
 DIIS: error= 9.31D-05 at cycle   2 NSaved=   2.
 NSaved= 2 IEnMin= 2 EnMin= -2905.42764013715     IErMin= 2 ErrMin= 9.31D-05
 ErrMax= 9.31D-05 EMaxC= 1.00D-01 BMatC= 3.54D-06 BMatP= 3.84D-04
 IDIUse=1 WtCom= 1.00D+00 WtEn= 0.00D+00
 Coeff-Com: -0.209D-02 0.100D+01
 Coeff:     -0.209D-02 0.100D+01
 Gap=     0.410 Goal=   None    Shift=    0.000
 RMSDP=1.55D-05 MaxDP=5.79D-04 DE=-7.58D-05 OVMax= 7.19D-04

 Cycle   3  Pass 1  IDiag  1:
 RMSU=  8.19D-06    CP:  1.00D+00  1.14D+00
 FoFJK:  IHMeth= 1 ICntrl=     0 DoSepK=T KAlg= 1 I1Cent= 0 FoldK=F
 E= -2905.42764203929     Delta-E=       -0.000001902142 Rises=F Damp=F
 DIIS: error= 1.00D-04 at cycle   3 NSaved=   3.
 NSaved= 3 IEnMin= 3 EnMin= -2905.42764203929     IErMin= 2 ErrMin= 9.31D-05
 ErrMax= 1.00D-04 EMaxC= 1.00D-01 BMatC= 3.23D-06 BMatP= 3.54D-06
 IDIUse=3 WtCom= 9.99D-01 WtEn= 1.00D-03
 Coeff-Com: -0.859D-02 0.492D+00 0.516D+00
 Coeff-En:   0.000D+00 0.203D+00 0.797D+00
 Coeff:     -0.858D-02 0.492D+00 0.517D+00
 Gap=     0.410 Goal=   None    Shift=    0.000
 RMSDP=5.08D-06 MaxDP=2.55D-04 DE=-1.90D-06 OVMax= 4.33D-04

 Cycle   4  Pass 1  IDiag  1:
 RMSU=  2.80D-06    CP:  1.00D+00  1.16D+00  7.50D-01
 FoFJK:  IHMeth= 1 ICntrl=     0 DoSepK=T KAlg= 1 I1Cent= 0 FoldK=F
 E= -2905.42764401054     Delta-E=       -0.000001971249 Rises=F Damp=F
 DIIS: error= 2.13D-05 at cycle   4 NSaved=   4.
 NSaved= 4 IEnMin= 4 EnMin= -2905.42764401054     IErMin= 4 ErrMin= 2.13D-05
 ErrMax= 2.13D-05 EMaxC= 1.00D-01 BMatC= 1.61D-07 BMatP= 3.23D-06
 IDIUse=1 WtCom= 1.00D+00 WtEn= 0.00D+00
 Coeff-Com: -0.249D-02 0.475D-01 0.177D+00 0.779D+00
 Coeff:     -0.249D-02 0.475D-01 0.177D+00 0.779D+00
 Gap=     0.410 Goal=   None    Shift=    0.000
 RMSDP=1.92D-06 MaxDP=6.53D-05 DE=-1.97D-06 OVMax= 1.17D-04

 Cycle   5  Pass 1  IDiag  1:
 RMSU=  9.40D-07    CP:  1.00D+00  1.17D+00  8.42D-01  1.05D+00
 FoFJK:  IHMeth= 1 ICntrl=     0 DoSepK=T KAlg= 1 I1Cent= 0 FoldK=F
 E= -2905.42764413379     Delta-E=       -0.000000123247 Rises=F Damp=F
 DIIS: error= 8.74D-06 at cycle   5 NSaved=   5.
 NSaved= 5 IEnMin= 5 EnMin= -2905.42764413379     IErMin= 5 ErrMin= 8.74D-06
 ErrMax= 8.74D-06 EMaxC= 1.00D-01 BMatC= 2.46D-08 BMatP= 1.61D-07
 IDIUse=1 WtCom= 1.00D+00 WtEn= 0.00D+00
 Coeff-Com:  0.234D-03-0.558D-01-0.586D-02 0.317D+00 0.744D+00
 Coeff:      0.234D-03-0.558D-01-0.586D-02 0.317D+00 0.744D+00
 Gap=     0.410 Goal=   None    Shift=    0.000
 RMSDP=9.23D-07 MaxDP=5.01D-05 DE=-1.23D-07 OVMax= 4.45D-05

 Cycle   6  Pass 1  IDiag  1:
 RMSU=  3.09D-07    CP:  1.00D+00  1.18D+00  8.82D-01  1.19D+00  9.55D-01
 FoFJK:  IHMeth= 1 ICntrl=     0 DoSepK=T KAlg= 1 I1Cent= 0 FoldK=F
 E= -2905.42764415473     Delta-E=       -0.000000020937 Rises=F Damp=F
 DIIS: error= 1.68D-06 at cycle   6 NSaved=   6.
 NSaved= 6 IEnMin= 6 EnMin= -2905.42764415473     IErMin= 6 ErrMin= 1.68D-06
 ErrMax= 1.68D-06 EMaxC= 1.00D-01 BMatC= 9.92D-10 BMatP= 2.46D-08
 IDIUse=1 WtCom= 1.00D+00 WtEn= 0.00D+00
 Coeff-Com:  0.190D-03-0.194D-01-0.107D-01 0.544D-01 0.226D+00 0.750D+00
 Coeff:      0.190D-03-0.194D-01-0.107D-01 0.544D-01 0.226D+00 0.750D+00
 Gap=     0.410 Goal=   None    Shift=    0.000
 RMSDP=1.79D-07 MaxDP=6.52D-06 DE=-2.09D-08 OVMax= 9.56D-06

 Cycle   7  Pass 1  IDiag  1:
 RMSU=  7.61D-08    CP:  1.00D+00  1.18D+00  8.88D-01  1.21D+00  1.02D+00
                    CP:  1.06D+00
 FoFJK:  IHMeth= 1 ICntrl=     0 DoSepK=T KAlg= 1 I1Cent= 0 FoldK=F
 E= -2905.42764415583     Delta-E=       -0.000000001101 Rises=F Damp=F
 DIIS: error= 5.06D-07 at cycle   7 NSaved=   7.
 NSaved= 7 IEnMin= 7 EnMin= -2905.42764415583     IErMin= 7 ErrMin= 5.06D-07
 ErrMax= 5.06D-07 EMaxC= 1.00D-01 BMatC= 5.84D-11 BMatP= 9.92D-10
 IDIUse=1 WtCom= 1.00D+00 WtEn= 0.00D+00
 Coeff-Com: -0.219D-04 0.654D-02 0.883D-03-0.388D-01-0.861D-01 0.202D-01
 Coeff-Com:  0.110D+01
 Coeff:     -0.219D-04 0.654D-02 0.883D-03-0.388D-01-0.861D-01 0.202D-01
 Coeff:      0.110D+01
 Gap=     0.410 Goal=   None    Shift=    0.000
 RMSDP=9.39D-08 MaxDP=4.56D-06 DE=-1.10D-09 OVMax= 6.02D-06

 Cycle   8  Pass 1  IDiag  1:
 RMSU=  2.71D-08    CP:  1.00D+00  1.18D+00  8.91D-01  1.22D+00  1.04D+00
                    CP:  1.20D+00  1.24D+00
 FoFJK:  IHMeth= 1 ICntrl=     0 DoSepK=T KAlg= 1 I1Cent= 0 FoldK=F
 E= -2905.42764415599     Delta-E=       -0.000000000162 Rises=F Damp=F
 DIIS: error= 7.09D-08 at cycle   8 NSaved=   8.
 NSaved= 8 IEnMin= 8 EnMin= -2905.42764415599     IErMin= 8 ErrMin= 7.09D-08
 ErrMax= 7.09D-08 EMaxC= 1.00D-01 BMatC= 2.42D-12 BMatP= 5.84D-11
 IDIUse=1 WtCom= 1.00D+00 WtEn= 0.00D+00
 Coeff-Com: -0.122D-04 0.193D-02 0.567D-03-0.912D-02-0.227D-01-0.243D-01
 Coeff-Com:  0.163D+00 0.890D+00
 Coeff:     -0.122D-04 0.193D-02 0.567D-03-0.912D-02-0.227D-01-0.243D-01
 Coeff:      0.163D+00 0.890D+00
 Gap=     0.410 Goal=   None    Shift=    0.000
 RMSDP=1.38D-08 MaxDP=5.17D-07 DE=-1.62D-10 OVMax= 1.04D-06

 Cycle   9  Pass 1  IDiag  1:
 RMSU=  5.42D-09    CP:  1.00D+00  1.18D+00  8.91D-01  1.22D+00  1.04D+00
                    CP:  1.20D+00  1.29D+00  1.24D+00
 FoFJK:  IHMeth= 1 ICntrl=     0 DoSepK=T KAlg= 1 I1Cent= 0 FoldK=F
 E= -2905.42764415599     Delta-E=        0.000000000005 Rises=F Damp=F
 DIIS: error= 2.48D-08 at cycle   9 NSaved=   9.
 NSaved= 9 IEnMin= 8 EnMin= -2905.42764415599     IErMin= 9 ErrMin= 2.48D-08
 ErrMax= 2.48D-08 EMaxC= 1.00D-01 BMatC= 2.43D-13 BMatP= 2.42D-12
 IDIUse=1 WtCom= 1.00D+00 WtEn= 0.00D+00
 Coeff-Com:  0.193D-05-0.577D-03-0.793D-04 0.337D-02 0.794D-02-0.255D-02
 Coeff-Com: -0.102D+00 0.418D-01 0.105D+01
 Coeff:      0.193D-05-0.577D-03-0.793D-04 0.337D-02 0.794D-02-0.255D-02
 Coeff:     -0.102D+00 0.418D-01 0.105D+01
 Gap=     0.410 Goal=   None    Shift=    0.000
 RMSDP=7.15D-09 MaxDP=2.69D-07 DE= 4.55D-12 OVMax= 6.16D-07

 SCF Done:  E(RwB97XD) =  -2905.42764416     A.U. after    9 cycles
             Convg  =    0.7149D-08             -V/T =  2.0016
 KE= 2.900908463509D+03 PE=-7.221774006002D+03 EE= 1.273728391666D+03
 Leave Link  502 at Thu Apr 16 12:04:07 2020, MaxMem= 1073741824 cpu:     252.2
 (Enter /home/matheus/.gaussian/g09/l108.exe)
 Variable Step   Value    
 -------- ---- -----------
     1       3    6.236096
 Leave Link  108 at Thu Apr 16 12:04:07 2020, MaxMem= 1073741824 cpu:       0.0
 (Enter /home/matheus/.gaussian/g09/l202.exe)
 ---------------------------------------------------------------------------------------------------
                            Z-MATRIX (ANGSTROMS AND DEGREES)
   CD    Cent   Atom    N1       Length/X        N2       Alpha/Y        N3        Beta/Z          J
 ---------------------------------------------------------------------------------------------------
      1      1  O        0   0.000000          0.000000          0.725000
      2      2  O        0   0.000000          0.000000         -0.725000
      3      3  H        0  -0.459360         -0.795635          1.023510
      4      4  H        0   0.000000          0.918721         -1.023510
      5      5  Kr       0   0.000000          3.300000          0.000000
 ---------------------------------------------------------------------------------------------------
                         Z-Matrix orientation:                         
 ---------------------------------------------------------------------
 Center     Atomic      Atomic             Coordinates (Angstroms)
 Number     Number       Type             X           Y           Z
 ---------------------------------------------------------------------
      1          8           0        0.000000    0.000000    0.725000
      2          8           0        0.000000    0.000000   -0.725000
      3          1           0       -0.459360   -0.795635    1.023510
      4          1           0        0.000000    0.918721   -1.023510
      5         36           0        0.000000    3.300000    0.000000
 ---------------------------------------------------------------------
                    Distance matrix (angstroms):
                    1          2          3          4          5
     1  O    0.000000
     2  O    1.450000   0.000000
     3  H    0.966000   1.975180   0.000000
     4  H    1.975180   0.966000   2.709303   0.000000
     5  Kr   3.378702   3.378702   4.246506   2.591923   0.000000
 Stoichiometry    H2KrO2
 Framework group  C1[X(H2KrO2)]
 Deg. of freedom     9
 Full point group                 C1      NOp   1
 RotChk:  IX=0 Diff= 1.53D-03
 Largest Abelian subgroup         C1      NOp   1
 Largest concise Abelian subgroup C1      NOp   1
                         Standard orientation:                         
 ---------------------------------------------------------------------
 Center     Atomic      Atomic             Coordinates (Angstroms)
 Number     Number       Type             X           Y           Z
 ---------------------------------------------------------------------
      1          8           0       -2.212364   -0.690893   -0.062002
      2          8           0       -2.191307    0.757563    0.001479
      3          1           0       -3.017042   -0.997218    0.375965
      4          1           0       -1.268399    1.042005    0.023627
      5         36           0        1.097634   -0.016060    0.002350
 ---------------------------------------------------------------------
 Rotational constants (GHZ):     26.4371498      1.9096627      1.7834177
 Leave Link  202 at Thu Apr 16 12:04:07 2020, MaxMem= 1073741824 cpu:       0.0
 (Enter /home/matheus/.gaussian/g09/l301.exe)
 Standard basis: Aug-CC-pVTZ (5D, 7F)
 Ernie: Thresh=  0.10000D-02 Tol=  0.10000D-05 Strict=F.
 Ernie:  38 primitive shells out of 205 were deleted.
 There are   197 symmetry adapted basis functions of A   symmetry.
 Integral buffers will be    131072 words long.
 Raffenetti 2 integral format.
 Two-electron integral symmetry is turned on.
   197 basis functions,   415 primitive gaussians,   229 cartesian basis functions
    27 alpha electrons       27 beta electrons
       nuclear repulsion energy       138.6535561660 Hartrees.
 IExCor= 4639 DFT=T Ex+Corr=wB97XD ExCW=0 ScaHFX=  1.000000
 ScaDFX=  1.000000  1.000000  1.000000  1.000000 ScalE2=  1.000000  1.000000
 IRadAn=      5 IRanWt=     -1 IRanGd=            0 ICorTp=0
  HFx wShort=  0.000000 wLong=  0.250000 cFull=  0.222036 cShort=  0.000000 cLong=  0.777964
  DFx wShort=  0.000000 wLong=  0.250000 cFull=  0.000000 cShort=  0.000000 cLong=  1.000000
 NAtoms=    5 NActive=    5 NUniq=    5 SFac= 1.00D+00 NAtFMM=   60 NAOKFM=F Big=F
 R6Disp: Dispersion energy =        -0.0009346718 Hartrees.
 Nuclear repulsion after empirical dispersion term =      138.6526214942 Hartrees.
 Leave Link  301 at Thu Apr 16 12:04:07 2020, MaxMem= 1073741824 cpu:       0.2
 (Enter /home/matheus/.gaussian/g09/l302.exe)
 NPDir=0 NMtPBC=     1 NCelOv=     1 NCel=       1 NClECP=     1 NCelD=      1
         NCelK=      1 NCelE2=     1 NClLst=     1 CellRange=     0.0.
 One-electron integrals computed using PRISM.
 NBasis=   197 RedAO= T  NBF=   197
 NBsUse=   197 1.00D-06 NBFU=   197
 Precomputing XC quadrature grid using
 IXCGrd= 2 IRadAn=           5 IRanWt=          -1 IRanGd=           0 AccXCQ= 0.00D+00.
 NRdTot=     427 NPtTot=      123814 NUsed=      126881 NTot=      126913
 NSgBfM=   229   229   229   229   229 NAtAll=     5     5.
 Leave Link  302 at Thu Apr 16 12:04:07 2020, MaxMem= 1073741824 cpu:       1.0
 (Enter /home/matheus/.gaussian/g09/l303.exe)
 DipDrv:  MaxL=1.
 Leave Link  303 at Thu Apr 16 12:04:07 2020, MaxMem= 1073741824 cpu:       0.2
 (Enter /home/matheus/.gaussian/g09/l401.exe)
 Initial guess read from the read-write file.
 B after Tr=     0.000000    0.000000    0.000000
         Rot=    1.000000    0.000000    0.000000    0.000000 Ang=   0.00 deg.
 Guess basis will be translated and rotated to current coordinates.
 Initial guess orbital symmetries:
       Occupied  (A) (A) (A) (A) (A) (A) (A) (A) (A) (A) (A) (A)
                 (A) (A) (A) (A) (A) (A) (A) (A) (A) (A) (A) (A)
                 (A) (A) (A)
       Virtual   (A) (A) (A) (A) (A) (A) (A) (A) (A) (A) (A) (A)
                 (A) (A) (A) (A) (A) (A) (A) (A) (A) (A) (A) (A)
                 (A) (A) (A) (A) (A) (A) (A) (A) (A) (A) (A) (A)
                 (A) (A) (A) (A) (A) (A) (A) (A) (A) (A) (A) (A)
                 (A) (A) (A) (A) (A) (A) (A) (A) (A) (A) (A) (A)
                 (A) (A) (A) (A) (A) (A) (A) (A) (A) (A) (A) (A)
                 (A) (A) (A) (A) (A) (A) (A) (A) (A) (A) (A) (A)
                 (A) (A) (A) (A) (A) (A) (A) (A) (A) (A) (A) (A)
                 (A) (A) (A) (A) (A) (A) (A) (A) (A) (A) (A) (A)
                 (A) (A) (A) (A) (A) (A) (A) (A) (A) (A) (A) (A)
                 (A) (A) (A) (A) (A) (A) (A) (A) (A) (A) (A) (A)
                 (A) (A) (A) (A) (A) (A) (A) (A) (A) (A) (A) (A)
                 (A) (A) (A) (A) (A) (A) (A) (A) (A) (A) (A) (A)
                 (A) (A) (A) (A) (A) (A) (A) (A) (A) (A) (A) (A)
                 (A) (A)
 The electronic state of the initial guess is 1-A.
 Generating alternative initial guess.
 Harris functional with IExCor= 4639 diagonalized for initial guess.
 ExpMin= 2.53D-02 ExpMax= 1.17D+07 ExpMxC= 1.33D+04 IAcc=3 IRadAn=         5 AccDes= 0.00D+00
 HarFok:  IExCor= 4639 AccDes= 0.00D+00 IRadAn=         5 IDoV= 1
 ScaDFX=  1.000000  1.000000  1.000000  1.000000
 FoFCou: FMM=F IPFlag=           0 FMFlag=      100000 FMFlg1=           0
         NFxFlg=           0 DoJE=T BraDBF=F KetDBF=T FulRan=T
         Omega=  0.000000  0.000000  1.000000  0.000000  0.000000 ICntrl=     500 IOpCl=  0
         NMat0=    1 NMatS0=    1 NMatT0=    0 NMatD0=    1 NMtDS0=    0 NMtDT0=    0
         I1Cent=           4 NGrid=           0.
 Petite list used in FoFCou.
 Harris En= -2875.40150167106    
 Leave Link  401 at Thu Apr 16 12:04:08 2020, MaxMem= 1073741824 cpu:       4.9
 (Enter /home/matheus/.gaussian/g09/l502.exe)
 Closed shell SCF:
 Requested convergence on RMS density matrix=1.00D-08 within 128 cycles.
 Requested convergence on MAX density matrix=1.00D-06.
 Requested convergence on             energy=1.00D-06.
 No special actions if energy rises.
 Using DIIS extrapolation, IDIIS=  1040.
 Integral symmetry usage will be decided dynamically.
       126823 words used for storage of precomputed grid.
 IEnd=      305770 IEndB=      305770 NGot=  1073741824 MDV=  1073505365
 LenX=  1073505365 LenY=  1073452483
 Fock matrices will be formed incrementally for  20 cycles.

 Cycle   1  Pass 1  IDiag  1:
 FoFJK:  IHMeth= 1 ICntrl=     0 DoSepK=T KAlg= 1 I1Cent= 0 FoldK=F
 FoFCou: FMM=F IPFlag=           0 FMFlag=      100000 FMFlg1=           0
         NFxFlg=           0 DoJE=T BraDBF=F KetDBF=F FulRan=T
         Omega=  0.000000  0.000000  1.000000  0.000000  0.000000 ICntrl=     500 IOpCl=  0
         NMat0=    1 NMatS0=    1 NMatT0=    0 NMatD0=    1 NMtDS0=    0 NMtDT0=    0
         I1Cent=           0 NGrid=           0.
 Symmetry not used in FoFCou.
 E= -2905.42829019604    
 DIIS: error= 8.03D-04 at cycle   1 NSaved=   1.
 NSaved= 1 IEnMin= 1 EnMin= -2905.42829019604     IErMin= 1 ErrMin= 8.03D-04
 ErrMax= 8.03D-04 EMaxC= 1.00D-01 BMatC= 2.87D-04 BMatP= 2.87D-04
 IDIUse=3 WtCom= 9.92D-01 WtEn= 8.03D-03
 Coeff-Com:  0.100D+01
 Coeff-En:   0.100D+01
 Coeff:      0.100D+01
 Gap=     0.412 Goal=   None    Shift=    0.000
 RMSDP=6.67D-05 MaxDP=1.90D-03              OVMax= 3.04D-03

 Cycle   2  Pass 1  IDiag  1:
 RMSU=  4.72D-05    CP:  1.00D+00
 FoFJK:  IHMeth= 1 ICntrl=     0 DoSepK=T KAlg= 1 I1Cent= 0 FoldK=F
 E= -2905.42834799337     Delta-E=       -0.000057797334 Rises=F Damp=F
 DIIS: error= 7.58D-05 at cycle   2 NSaved=   2.
 NSaved= 2 IEnMin= 2 EnMin= -2905.42834799337     IErMin= 2 ErrMin= 7.58D-05
 ErrMax= 7.58D-05 EMaxC= 1.00D-01 BMatC= 2.37D-06 BMatP= 2.87D-04
 IDIUse=1 WtCom= 1.00D+00 WtEn= 0.00D+00
 Coeff-Com: -0.413D-02 0.100D+01
 Coeff:     -0.413D-02 0.100D+01
 Gap=     0.410 Goal=   None    Shift=    0.000
 RMSDP=1.34D-05 MaxDP=4.65D-04 DE=-5.78D-05 OVMax= 6.60D-04

 Cycle   3  Pass 1  IDiag  1:
 RMSU=  6.69D-06    CP:  1.00D+00  1.14D+00
 FoFJK:  IHMeth= 1 ICntrl=     0 DoSepK=T KAlg= 1 I1Cent= 0 FoldK=F
 E= -2905.42834949321     Delta-E=       -0.000001499839 Rises=F Damp=F
 DIIS: error= 8.26D-05 at cycle   3 NSaved=   3.
 NSaved= 3 IEnMin= 3 EnMin= -2905.42834949321     IErMin= 2 ErrMin= 7.58D-05
 ErrMax= 8.26D-05 EMaxC= 1.00D-01 BMatC= 2.06D-06 BMatP= 2.37D-06
 IDIUse=1 WtCom= 1.00D+00 WtEn= 0.00D+00
 Coeff-Com: -0.861D-02 0.486D+00 0.523D+00
 Coeff:     -0.861D-02 0.486D+00 0.523D+00
 Gap=     0.411 Goal=   None    Shift=    0.000
 RMSDP=4.18D-06 MaxDP=2.06D-04 DE=-1.50D-06 OVMax= 3.52D-04

 Cycle   4  Pass 1  IDiag  1:
 RMSU=  2.42D-06    CP:  1.00D+00  1.16D+00  7.77D-01
 FoFJK:  IHMeth= 1 ICntrl=     0 DoSepK=T KAlg= 1 I1Cent= 0 FoldK=F
 E= -2905.42835075561     Delta-E=       -0.000001262395 Rises=F Damp=F
 DIIS: error= 1.80D-05 at cycle   4 NSaved=   4.
 NSaved= 4 IEnMin= 4 EnMin= -2905.42835075561     IErMin= 4 ErrMin= 1.80D-05
 ErrMax= 1.80D-05 EMaxC= 1.00D-01 BMatC= 1.18D-07 BMatP= 2.06D-06
 IDIUse=1 WtCom= 1.00D+00 WtEn= 0.00D+00
 Coeff-Com: -0.225D-02 0.332D-01 0.180D+00 0.789D+00
 Coeff:     -0.225D-02 0.332D-01 0.180D+00 0.789D+00
 Gap=     0.411 Goal=   None    Shift=    0.000
 RMSDP=1.74D-06 MaxDP=6.01D-05 DE=-1.26D-06 OVMax= 1.07D-04

 Cycle   5  Pass 1  IDiag  1:
 RMSU=  7.98D-07    CP:  1.00D+00  1.17D+00  8.83D-01  1.07D+00
 FoFJK:  IHMeth= 1 ICntrl=     0 DoSepK=T KAlg= 1 I1Cent= 0 FoldK=F
 E= -2905.42835084733     Delta-E=       -0.000000091721 Rises=F Damp=F
 DIIS: error= 7.24D-06 at cycle   5 NSaved=   5.
 NSaved= 5 IEnMin= 5 EnMin= -2905.42835084733     IErMin= 5 ErrMin= 7.24D-06
 ErrMax= 7.24D-06 EMaxC= 1.00D-01 BMatC= 1.71D-08 BMatP= 1.18D-07
 IDIUse=1 WtCom= 1.00D+00 WtEn= 0.00D+00
 Coeff-Com:  0.260D-03-0.563D-01-0.515D-03 0.321D+00 0.736D+00
 Coeff:      0.260D-03-0.563D-01-0.515D-03 0.321D+00 0.736D+00
 Gap=     0.410 Goal=   None    Shift=    0.000
 RMSDP=7.84D-07 MaxDP=4.25D-05 DE=-9.17D-08 OVMax= 3.87D-05

 Cycle   6  Pass 1  IDiag  1:
 RMSU=  2.54D-07    CP:  1.00D+00  1.18D+00  9.26D-01  1.20D+00  9.46D-01
 FoFJK:  IHMeth= 1 ICntrl=     0 DoSepK=T KAlg= 1 I1Cent= 0 FoldK=F
 E= -2905.42835086201     Delta-E=       -0.000000014682 Rises=F Damp=F
 DIIS: error= 1.44D-06 at cycle   6 NSaved=   6.
 NSaved= 6 IEnMin= 6 EnMin= -2905.42835086201     IErMin= 6 ErrMin= 1.44D-06
 ErrMax= 1.44D-06 EMaxC= 1.00D-01 BMatC= 7.16D-10 BMatP= 1.71D-08
 IDIUse=1 WtCom= 1.00D+00 WtEn= 0.00D+00
 Coeff-Com:  0.190D-03-0.187D-01-0.957D-02 0.525D-01 0.222D+00 0.753D+00
 Coeff:      0.190D-03-0.187D-01-0.957D-02 0.525D-01 0.222D+00 0.753D+00
 Gap=     0.411 Goal=   None    Shift=    0.000
 RMSDP=1.55D-07 MaxDP=6.10D-06 DE=-1.47D-08 OVMax= 8.64D-06

 Cycle   7  Pass 1  IDiag  1:
 RMSU=  6.48D-08    CP:  1.00D+00  1.18D+00  9.33D-01  1.22D+00  1.01D+00
                    CP:  1.05D+00
 FoFJK:  IHMeth= 1 ICntrl=     0 DoSepK=T KAlg= 1 I1Cent= 0 FoldK=F
 E= -2905.42835086281     Delta-E=       -0.000000000799 Rises=F Damp=F
 DIIS: error= 4.02D-07 at cycle   7 NSaved=   7.
 NSaved= 7 IEnMin= 7 EnMin= -2905.42835086281     IErMin= 7 ErrMin= 4.02D-07
 ErrMax= 4.02D-07 EMaxC= 1.00D-01 BMatC= 4.39D-11 BMatP= 7.16D-10
 IDIUse=1 WtCom= 1.00D+00 WtEn= 0.00D+00
 Coeff-Com: -0.264D-04 0.688D-02 0.250D-03-0.410D-01-0.880D-01 0.233D-01
 Coeff-Com:  0.110D+01
 Coeff:     -0.264D-04 0.688D-02 0.250D-03-0.410D-01-0.880D-01 0.233D-01
 Coeff:      0.110D+01
 Gap=     0.411 Goal=   None    Shift=    0.000
 RMSDP=8.07D-08 MaxDP=4.07D-06 DE=-7.99D-10 OVMax= 5.47D-06

 Cycle   8  Pass 1  IDiag  1:
 RMSU=  2.39D-08    CP:  1.00D+00  1.18D+00  9.35D-01  1.23D+00  1.03D+00
                    CP:  1.19D+00  1.27D+00
 FoFJK:  IHMeth= 1 ICntrl=     0 DoSepK=T KAlg= 1 I1Cent= 0 FoldK=F
 E= -2905.42835086293     Delta-E=       -0.000000000114 Rises=F Damp=F
 DIIS: error= 6.65D-08 at cycle   8 NSaved=   8.
 NSaved= 8 IEnMin= 8 EnMin= -2905.42835086293     IErMin= 8 ErrMin= 6.65D-08
 ErrMax= 6.65D-08 EMaxC= 1.00D-01 BMatC= 1.64D-12 BMatP= 4.39D-11
 IDIUse=1 WtCom= 1.00D+00 WtEn= 0.00D+00
 Coeff-Com: -0.114D-04 0.168D-02 0.361D-03-0.797D-02-0.194D-01-0.224D-01
 Coeff-Com:  0.135D+00 0.913D+00
 Coeff:     -0.114D-04 0.168D-02 0.361D-03-0.797D-02-0.194D-01-0.224D-01
 Coeff:      0.135D+00 0.913D+00
 Gap=     0.411 Goal=   None    Shift=    0.000
 RMSDP=1.28D-08 MaxDP=4.27D-07 DE=-1.14D-10 OVMax= 1.06D-06

 Cycle   9  Pass 1  IDiag  1:
 RMSU=  4.66D-09    CP:  1.00D+00  1.18D+00  9.35D-01  1.23D+00  1.03D+00
                    CP:  1.20D+00  1.33D+00  1.26D+00
 FoFJK:  IHMeth= 1 ICntrl=     0 DoSepK=T KAlg= 1 I1Cent= 0 FoldK=F
 E= -2905.42835086295     Delta-E=       -0.000000000020 Rises=F Damp=F
 DIIS: error= 2.49D-08 at cycle   9 NSaved=   9.
 NSaved= 9 IEnMin= 9 EnMin= -2905.42835086295     IErMin= 9 ErrMin= 2.49D-08
 ErrMax= 2.49D-08 EMaxC= 1.00D-01 BMatC= 2.11D-13 BMatP= 1.64D-12
 IDIUse=1 WtCom= 1.00D+00 WtEn= 0.00D+00
 Coeff-Com:  0.265D-05-0.703D-03-0.208D-04 0.415D-02 0.934D-02-0.361D-02
 Coeff-Com: -0.116D+00 0.524D-01 0.105D+01
 Coeff:      0.265D-05-0.703D-03-0.208D-04 0.415D-02 0.934D-02-0.361D-02
 Coeff:     -0.116D+00 0.524D-01 0.105D+01
 Gap=     0.411 Goal=   None    Shift=    0.000
 RMSDP=6.82D-09 MaxDP=2.65D-07 DE=-2.00D-11 OVMax= 6.47D-07

 SCF Done:  E(RwB97XD) =  -2905.42835086     A.U. after    9 cycles
             Convg  =    0.6824D-08             -V/T =  2.0016
 KE= 2.900903873571D+03 PE=-7.215667721151D+03 EE= 1.270682875223D+03
 Leave Link  502 at Thu Apr 16 12:04:39 2020, MaxMem= 1073741824 cpu:     247.4
 (Enter /home/matheus/.gaussian/g09/l108.exe)
 Variable Step   Value    
 -------- ---- -----------
     1       4    6.425069
 Leave Link  108 at Thu Apr 16 12:04:39 2020, MaxMem= 1073741824 cpu:       0.0
 (Enter /home/matheus/.gaussian/g09/l202.exe)
 ---------------------------------------------------------------------------------------------------
                            Z-MATRIX (ANGSTROMS AND DEGREES)
   CD    Cent   Atom    N1       Length/X        N2       Alpha/Y        N3        Beta/Z          J
 ---------------------------------------------------------------------------------------------------
      1      1  O        0   0.000000          0.000000          0.725000
      2      2  O        0   0.000000          0.000000         -0.725000
      3      3  H        0  -0.459360         -0.795635          1.023510
      4      4  H        0   0.000000          0.918721         -1.023510
      5      5  Kr       0   0.000000          3.400000          0.000000
[...]
 FoFJK:  IHMeth= 1 ICntrl=     0 DoSepK=T KAlg= 1 I1Cent= 0 FoldK=F
 E= -2905.42835841583     Delta-E=       -0.000000005100 Rises=F Damp=F
 DIIS: error= 2.45D-06 at cycle   4 NSaved=   4.
 NSaved= 4 IEnMin= 4 EnMin= -2905.42835841583     IErMin= 4 ErrMin= 2.45D-06
 ErrMax= 2.45D-06 EMaxC= 1.00D-01 BMatC= 1.54D-09 BMatP= 6.85D-09
 IDIUse=1 WtCom= 1.00D+00 WtEn= 0.00D+00
 Coeff-Com: -0.206D-02 0.416D-01 0.309D+00 0.652D+00
 Coeff:     -0.206D-02 0.416D-01 0.309D+00 0.652D+00
 Gap=     0.411 Goal=   None    Shift=    0.000
 RMSDP=1.83D-07 MaxDP=6.07D-06 DE=-5.10D-09 OVMax= 1.01D-05

 Cycle   5  Pass 1  IDiag  1:
 RMSU=  8.58D-08    CP:  1.00D+00  1.12D+00  1.10D+00  9.30D-01
 FoFJK:  IHMeth= 1 ICntrl=     0 DoSepK=T KAlg= 1 I1Cent= 0 FoldK=F
 E= -2905.42835841695     Delta-E=       -0.000000001115 Rises=F Damp=F
 DIIS: error= 9.02D-07 at cycle   5 NSaved=   5.
 NSaved= 5 IEnMin= 5 EnMin= -2905.42835841695     IErMin= 5 ErrMin= 9.02D-07
 ErrMax= 9.02D-07 EMaxC= 1.00D-01 BMatC= 2.11D-10 BMatP= 1.54D-09
 IDIUse=1 WtCom= 1.00D+00 WtEn= 0.00D+00
 Coeff-Com:  0.433D-03-0.556D-01-0.355D-01 0.268D+00 0.823D+00
 Coeff:      0.433D-03-0.556D-01-0.355D-01 0.268D+00 0.823D+00
 Gap=     0.411 Goal=   None    Shift=    0.000
 RMSDP=9.27D-08 MaxDP=3.28D-06 DE=-1.12D-09 OVMax= 5.93D-06

 Cycle   6  Pass 1  IDiag  1:
 RMSU=  3.32D-08    CP:  1.00D+00  1.12D+00  1.15D+00  1.07D+00  1.04D+00
 FoFJK:  IHMeth= 1 ICntrl=     0 DoSepK=T KAlg= 1 I1Cent= 0 FoldK=F
 E= -2905.42835841717     Delta-E=       -0.000000000224 Rises=F Damp=F
 DIIS: error= 1.80D-07 at cycle   6 NSaved=   6.
 NSaved= 6 IEnMin= 6 EnMin= -2905.42835841717     IErMin= 6 ErrMin= 1.80D-07
 ErrMax= 1.80D-07 EMaxC= 1.00D-01 BMatC= 9.01D-12 BMatP= 2.11D-10
 IDIUse=1 WtCom= 1.00D+00 WtEn= 0.00D+00
 Coeff-Com:  0.218D-03-0.178D-01-0.242D-01 0.493D-01 0.250D+00 0.743D+00
 Coeff:      0.218D-03-0.178D-01-0.242D-01 0.493D-01 0.250D+00 0.743D+00
 Gap=     0.411 Goal=   None    Shift=    0.000
 RMSDP=1.58D-08 MaxDP=5.94D-07 DE=-2.24D-10 OVMax= 1.06D-06

 Cycle   7  Pass 1  IDiag  1:
 RMSU=  8.82D-09    CP:  1.00D+00  1.12D+00  1.15D+00  1.08D+00  1.09D+00
                    CP:  1.11D+00
 FoFJK:  IHMeth= 1 ICntrl=     0 DoSepK=T KAlg= 1 I1Cent= 0 FoldK=F
 E= -2905.42835841718     Delta-E=       -0.000000000006 Rises=F Damp=F
 DIIS: error= 8.89D-08 at cycle   7 NSaved=   7.
 NSaved= 7 IEnMin= 7 EnMin= -2905.42835841718     IErMin= 7 ErrMin= 8.89D-08
 ErrMax= 8.89D-08 EMaxC= 1.00D-01 BMatC= 1.17D-12 BMatP= 9.01D-12
 IDIUse=1 WtCom= 1.00D+00 WtEn= 0.00D+00
 Coeff-Com: -0.289D-04 0.661D-02 0.245D-03-0.421D-01-0.994D-01 0.182D+00
 Coeff-Com:  0.952D+00
 Coeff:     -0.289D-04 0.661D-02 0.245D-03-0.421D-01-0.994D-01 0.182D+00
 Coeff:      0.952D+00
 Gap=     0.411 Goal=   None    Shift=    0.000
 RMSDP=1.09D-08 MaxDP=3.32D-07 DE=-6.37D-12 OVMax= 8.50D-07

 Cycle   8  Pass 1  IDiag  1:
 RMSU=  3.41D-09    CP:  1.00D+00  1.12D+00  1.15D+00  1.09D+00  1.12D+00
                    CP:  1.27D+00  1.19D+00
 FoFJK:  IHMeth= 1 ICntrl=     0 DoSepK=T KAlg= 1 I1Cent= 0 FoldK=F
 E= -2905.42835841720     Delta-E=       -0.000000000019 Rises=F Damp=F
 DIIS: error= 1.50D-08 at cycle   8 NSaved=   8.
 NSaved= 8 IEnMin= 8 EnMin= -2905.42835841720     IErMin= 8 ErrMin= 1.50D-08
 ErrMax= 1.50D-08 EMaxC= 1.00D-01 BMatC= 3.55D-14 BMatP= 1.17D-12
 IDIUse=1 WtCom= 1.00D+00 WtEn= 0.00D+00
 Coeff-Com: -0.484D-05-0.113D-03 0.755D-03 0.301D-02 0.220D-02-0.486D-01
 Coeff-Com: -0.101D+00 0.114D+01
 Coeff:     -0.484D-05-0.113D-03 0.755D-03 0.301D-02 0.220D-02-0.486D-01
 Coeff:     -0.101D+00 0.114D+01
 Gap=     0.411 Goal=   None    Shift=    0.000
 RMSDP=2.88D-09 MaxDP=8.73D-08 DE=-1.91D-11 OVMax= 3.59D-07

 SCF Done:  E(RwB97XD) =  -2905.42835842     A.U. after    8 cycles
             Convg  =    0.2875D-08             -V/T =  2.0016
 KE= 2.900916318038D+03 PE=-7.150655057606D+03 EE= 1.238255903462D+03
 Leave Link  502 at Thu Apr 16 12:11:42 2020, MaxMem= 1073741824 cpu:     175.9
 (Enter /home/matheus/.gaussian/g09/l108.exe)
 Variable Step   Value    
 -------- ---- -----------
     1      20    9.448631
 Leave Link  108 at Thu Apr 16 12:11:42 2020, MaxMem= 1073741824 cpu:       0.0
 (Enter /home/matheus/.gaussian/g09/l202.exe)
 ---------------------------------------------------------------------------------------------------
                            Z-MATRIX (ANGSTROMS AND DEGREES)
   CD    Cent   Atom    N1       Length/X        N2       Alpha/Y        N3        Beta/Z          J
 ---------------------------------------------------------------------------------------------------
      1      1  O        0   0.000000          0.000000          0.725000
      2      2  O        0   0.000000          0.000000         -0.725000
      3      3  H        0  -0.459360         -0.795635          1.023510
      4      4  H        0   0.000000          0.918721         -1.023510
      5      5  Kr       0   0.000000          5.000000          0.000000
 ---------------------------------------------------------------------------------------------------
                         Z-Matrix orientation:                         
 ---------------------------------------------------------------------
 Center     Atomic      Atomic             Coordinates (Angstroms)
 Number     Number       Type             X           Y           Z
 ---------------------------------------------------------------------
      1          8           0        0.000000    0.000000    0.725000
      2          8           0        0.000000    0.000000   -0.725000
      3          1           0       -0.459360   -0.795635    1.023510
      4          1           0        0.000000    0.918721   -1.023510
      5         36           0        0.000000    5.000000    0.000000
 ---------------------------------------------------------------------
                    Distance matrix (angstroms):
                    1          2          3          4          5
     1  O    0.000000
     2  O    1.450000   0.000000
     3  H    0.966000   1.975180   0.000000
     4  H    1.975180   0.966000   2.709303   0.000000
     5  Kr   5.052289   5.052289   5.903217   4.207661   0.000000
 Stoichiometry    H2KrO2
 Framework group  C1[X(H2KrO2)]
 Deg. of freedom     9
 Full point group                 C1      NOp   1
 RotChk:  IX=0 Diff= 4.27D-04
 Largest Abelian subgroup         C1      NOp   1
 Largest concise Abelian subgroup C1      NOp   1
                         Standard orientation:                         
 ---------------------------------------------------------------------
 Center     Atomic      Atomic             Coordinates (Angstroms)
 Number     Number       Type             X           Y           Z
 ---------------------------------------------------------------------
      1          8           0       -3.339822   -0.702772   -0.060896
      2          8           0       -3.331040    0.745769    0.003540
      3          1           0       -4.140141   -1.016340    0.379923
      4          1           0       -2.410546    1.038162    0.022364
      5         36           0        1.664377   -0.010161    0.001571
 ---------------------------------------------------------------------
 Rotational constants (GHZ):     26.4250637      0.8342608      0.8092270
 Leave Link  202 at Thu Apr 16 12:11:42 2020, MaxMem= 1073741824 cpu:       0.0
 (Enter /home/matheus/.gaussian/g09/l301.exe)
 Standard basis: Aug-CC-pVTZ (5D, 7F)
 Ernie: Thresh=  0.10000D-02 Tol=  0.10000D-05 Strict=F.
 Ernie:  38 primitive shells out of 205 were deleted.
 There are   197 symmetry adapted basis functions of A   symmetry.
 Integral buffers will be    131072 words long.
 Raffenetti 2 integral format.
 Two-electron integral symmetry is turned on.
   197 basis functions,   415 primitive gaussians,   229 cartesian basis functions
    27 alpha electrons       27 beta electrons
       nuclear repulsion energy       104.6885151205 Hartrees.
 IExCor= 4639 DFT=T Ex+Corr=wB97XD ExCW=0 ScaHFX=  1.000000
 ScaDFX=  1.000000  1.000000  1.000000  1.000000 ScalE2=  1.000000  1.000000
 IRadAn=      5 IRanWt=     -1 IRanGd=            0 ICorTp=0
  HFx wShort=  0.000000 wLong=  0.250000 cFull=  0.222036 cShort=  0.000000 cLong=  0.777964
  DFx wShort=  0.000000 wLong=  0.250000 cFull=  0.000000 cShort=  0.000000 cLong=  1.000000
 NAtoms=    5 NActive=    5 NUniq=    5 SFac= 1.00D+00 NAtFMM=   60 NAOKFM=F Big=F
 R6Disp: Dispersion energy =        -0.0004335111 Hartrees.
 Nuclear repulsion after empirical dispersion term =      104.6880816094 Hartrees.
 Leave Link  301 at Thu Apr 16 12:11:42 2020, MaxMem= 1073741824 cpu:       0.2
 (Enter /home/matheus/.gaussian/g09/l302.exe)
 NPDir=0 NMtPBC=     1 NCelOv=     1 NCel=       1 NClECP=     1 NCelD=      1
         NCelK=      1 NCelE2=     1 NClLst=     1 CellRange=     0.0.
 One-electron integrals computed using PRISM.
 NBasis=   197 RedAO= T  NBF=   197
 NBsUse=   197 1.00D-06 NBFU=   197
 Precomputing XC quadrature grid using
 IXCGrd= 2 IRadAn=           5 IRanWt=          -1 IRanGd=           0 AccXCQ= 0.00D+00.
 NRdTot=     428 NPtTot=      124116 NUsed=      127190 NTot=      127222
 NSgBfM=   228   228   229   229   229 NAtAll=     5     5.
 Leave Link  302 at Thu Apr 16 12:11:42 2020, MaxMem= 1073741824 cpu:       1.1
 (Enter /home/matheus/.gaussian/g09/l303.exe)
 DipDrv:  MaxL=1.
 Leave Link  303 at Thu Apr 16 12:11:42 2020, MaxMem= 1073741824 cpu:       0.2
 (Enter /home/matheus/.gaussian/g09/l401.exe)
 Initial guess read from the read-write file.
 B after Tr=     0.000000    0.000000    0.000000
         Rot=    1.000000    0.000000    0.000000    0.000000 Ang=   0.00 deg.
 Guess basis will be translated and rotated to current coordinates.
 Initial guess orbital symmetries:
       Occupied  (A) (A) (A) (A) (A) (A) (A) (A) (A) (A) (A) (A)
                 (A) (A) (A) (A) (A) (A) (A) (A) (A) (A) (A) (A)
                 (A) (A) (A)
       Virtual   (A) (A) (A) (A) (A) (A) (A) (A) (A) (A) (A) (A)
                 (A) (A) (A) (A) (A) (A) (A) (A) (A) (A) (A) (A)
                 (A) (A) (A) (A) (A) (A) (A) (A) (A) (A) (A) (A)
                 (A) (A) (A) (A) (A) (A) (A) (A) (A) (A) (A) (A)
                 (A) (A) (A) (A) (A) (A) (A) (A) (A) (A) (A) (A)
                 (A) (A) (A) (A) (A) (A) (A) (A) (A) (A) (A) (A)
                 (A) (A) (A) (A) (A) (A) (A) (A) (A) (A) (A) (A)
                 (A) (A) (A) (A) (A) (A) (A) (A) (A) (A) (A) (A)
                 (A) (A) (A) (A) (A) (A) (A) (A) (A) (A) (A) (A)
                 (A) (A) (A) (A) (A) (A) (A) (A) (A) (A) (A) (A)
                 (A) (A) (A) (A) (A) (A) (A) (A) (A) (A) (A) (A)
                 (A) (A) (A) (A) (A) (A) (A) (A) (A) (A) (A) (A)
                 (A) (A) (A) (A) (A) (A) (A) (A) (A) (A) (A) (A)
                 (A) (A) (A) (A) (A) (A) (A) (A) (A) (A) (A) (A)
                 (A) (A)
 The electronic state of the initial guess is 1-A.
 Generating alternative initial guess.
 Harris functional with IExCor= 4639 diagonalized for initial guess.
 ExpMin= 2.53D-02 ExpMax= 1.17D+07 ExpMxC= 1.33D+04 IAcc=3 IRadAn=         5 AccDes= 0.00D+00
 HarFok:  IExCor= 4639 AccDes= 0.00D+00 IRadAn=         5 IDoV= 1
 ScaDFX=  1.000000  1.000000  1.000000  1.000000
 FoFCou: FMM=F IPFlag=           0 FMFlag=      100000 FMFlg1=           0
         NFxFlg=           0 DoJE=T BraDBF=F KetDBF=T FulRan=T
         Omega=  0.000000  0.000000  1.000000  0.000000  0.000000 ICntrl=     500 IOpCl=  0
         NMat0=    1 NMatS0=    1 NMatT0=    0 NMatD0=    1 NMtDS0=    0 NMtDT0=    0
         I1Cent=           4 NGrid=           0.
 Petite list used in FoFCou.
 Harris En= -2875.40264577892    
 Leave Link  401 at Thu Apr 16 12:11:43 2020, MaxMem= 1073741824 cpu:       4.3
 (Enter /home/matheus/.gaussian/g09/l502.exe)
 Closed shell SCF:
 Requested convergence on RMS density matrix=1.00D-08 within 128 cycles.
 Requested convergence on MAX density matrix=1.00D-06.
 Requested convergence on             energy=1.00D-06.
 No special actions if energy rises.
 Using DIIS extrapolation, IDIIS=  1040.
 Integral symmetry usage will be decided dynamically.
       127132 words used for storage of precomputed grid.
 IEnd=      306079 IEndB=      306079 NGot=  1073741824 MDV=  1073505056
 LenX=  1073505056 LenY=  1073452174
 Fock matrices will be formed incrementally for  20 cycles.

 Cycle   1  Pass 1  IDiag  1:
 FoFJK:  IHMeth= 1 ICntrl=     0 DoSepK=T KAlg= 1 I1Cent= 0 FoldK=F
 FoFCou: FMM=F IPFlag=           0 FMFlag=      100000 FMFlg1=           0
         NFxFlg=           0 DoJE=T BraDBF=F KetDBF=F FulRan=T
         Omega=  0.000000  0.000000  1.000000  0.000000  0.000000 ICntrl=     500 IOpCl=  0
         NMat0=    1 NMatS0=    1 NMatT0=    0 NMatD0=    1 NMtDS0=    0 NMtDT0=    0
         I1Cent=           0 NGrid=           0.
 Symmetry not used in FoFCou.
 E= -2905.42831231185    
 DIIS: error= 1.35D-04 at cycle   1 NSaved=   1.
 NSaved= 1 IEnMin= 1 EnMin= -2905.42831231185     IErMin= 1 ErrMin= 1.35D-04
 ErrMax= 1.35D-04 EMaxC= 1.00D-01 BMatC= 3.79D-06 BMatP= 3.79D-06
 IDIUse=3 WtCom= 9.99D-01 WtEn= 1.35D-03
 Coeff-Com:  0.100D+01
 Coeff-En:   0.100D+01
 Coeff:      0.100D+01
 Gap=     0.412 Goal=   None    Shift=    0.000
 RMSDP=1.90D-05 MaxDP=7.12D-04              OVMax= 3.92D-04

 Cycle   2  Pass 1  IDiag  1:
 RMSU=  1.34D-05    CP:  1.00D+00
 FoFJK:  IHMeth= 1 ICntrl=     0 DoSepK=T KAlg= 1 I1Cent= 0 FoldK=F
 E= -2905.42831311760     Delta-E=       -0.000000805756 Rises=F Damp=F
 DIIS: error= 1.12D-05 at cycle   2 NSaved=   2.
 NSaved= 2 IEnMin= 2 EnMin= -2905.42831311760     IErMin= 2 ErrMin= 1.12D-05
 ErrMax= 1.12D-05 EMaxC= 1.00D-01 BMatC= 2.07D-08 BMatP= 3.79D-06
 IDIUse=1 WtCom= 1.00D+00 WtEn= 0.00D+00
 Coeff-Com: -0.482D-02 0.100D+01
 Coeff:     -0.482D-02 0.100D+01
 Gap=     0.411 Goal=   None    Shift=    0.000
 RMSDP=2.10D-06 MaxDP=5.96D-05 DE=-8.06D-07 OVMax= 7.57D-05

 Cycle   3  Pass 1  IDiag  1:
 RMSU=  8.03D-07    CP:  1.00D+00  1.09D+00
 FoFJK:  IHMeth= 1 ICntrl=     0 DoSepK=T KAlg= 1 I1Cent= 0 FoldK=F
 E= -2905.42831314300     Delta-E=       -0.000000025398 Rises=F Damp=F
 DIIS: error= 5.93D-06 at cycle   3 NSaved=   3.
 NSaved= 3 IEnMin= 3 EnMin= -2905.42831314300     IErMin= 3 ErrMin= 5.93D-06
 ErrMax= 5.93D-06 EMaxC= 1.00D-01 BMatC= 5.50D-09 BMatP= 2.07D-08
 IDIUse=1 WtCom= 1.00D+00 WtEn= 0.00D+00
 Coeff-Com: -0.537D-02 0.304D+00 0.702D+00
 Coeff:     -0.537D-02 0.304D+00 0.702D+00
 Gap=     0.411 Goal=   None    Shift=    0.000
 RMSDP=3.11D-07 MaxDP=1.06D-05 DE=-2.54D-08 OVMax= 2.23D-05

 Cycle   4  Pass 1  IDiag  1:
 RMSU=  1.83D-07    CP:  1.00D+00  1.10D+00  1.02D+00
 FoFJK:  IHMeth= 1 ICntrl=     0 DoSepK=T KAlg= 1 I1Cent= 0 FoldK=F
 E= -2905.42831314712     Delta-E=       -0.000000004121 Rises=F Damp=F
 DIIS: error= 2.19D-06 at cycle   4 NSaved=   4.
 NSaved= 4 IEnMin= 4 EnMin= -2905.42831314712     IErMin= 4 ErrMin= 2.19D-06
 ErrMax= 2.19D-06 EMaxC= 1.00D-01 BMatC= 1.21D-09 BMatP= 5.50D-09
 IDIUse=1 WtCom= 1.00D+00 WtEn= 0.00D+00
 Coeff-Com: -0.190D-02 0.402D-01 0.305D+00 0.657D+00
 Coeff:     -0.190D-02 0.402D-01 0.305D+00 0.657D+00
 Gap=     0.411 Goal=   None    Shift=    0.000
 RMSDP=1.65D-07 MaxDP=5.72D-06 DE=-4.12D-09 OVMax= 9.05D-06

 Cycle   5  Pass 1  IDiag  1:
 RMSU=  7.75D-08    CP:  1.00D+00  1.11D+00  1.11D+00  9.42D-01
 FoFJK:  IHMeth= 1 ICntrl=     0 DoSepK=T KAlg= 1 I1Cent= 0 FoldK=F
 E= -2905.42831314799     Delta-E=       -0.000000000866 Rises=F Damp=F
 DIIS: error= 8.33D-07 at cycle   5 NSaved=   5.
 NSaved= 5 IEnMin= 5 EnMin= -2905.42831314799     IErMin= 5 ErrMin= 8.33D-07
 ErrMax= 8.33D-07 EMaxC= 1.00D-01 BMatC= 1.77D-10 BMatP= 1.21D-09
 IDIUse=1 WtCom= 1.00D+00 WtEn= 0.00D+00
 Coeff-Com:  0.407D-03-0.552D-01-0.340D-01 0.277D+00 0.812D+00
 Coeff:      0.407D-03-0.552D-01-0.340D-01 0.277D+00 0.812D+00
 Gap=     0.411 Goal=   None    Shift=    0.000
 RMSDP=7.99D-08 MaxDP=2.88D-06 DE=-8.66D-10 OVMax= 5.06D-06

 Cycle   6  Pass 1  IDiag  1:
 RMSU=  3.04D-08    CP:  1.00D+00  1.11D+00  1.15D+00  1.08D+00  1.03D+00
 FoFJK:  IHMeth= 1 ICntrl=     0 DoSepK=T KAlg= 1 I1Cent= 0 FoldK=F
 E= -2905.42831314817     Delta-E=       -0.000000000185 Rises=F Damp=F
 DIIS: error= 1.64D-07 at cycle   6 NSaved=   6.
 NSaved= 6 IEnMin= 6 EnMin= -2905.42831314817     IErMin= 6 ErrMin= 1.64D-07
 ErrMax= 1.64D-07 EMaxC= 1.00D-01 BMatC= 7.83D-12 BMatP= 1.77D-10
 IDIUse=1 WtCom= 1.00D+00 WtEn= 0.00D+00
 Coeff-Com:  0.210D-03-0.181D-01-0.245D-01 0.522D-01 0.252D+00 0.738D+00
 Coeff:      0.210D-03-0.181D-01-0.245D-01 0.522D-01 0.252D+00 0.738D+00
 Gap=     0.411 Goal=   None    Shift=    0.000
 RMSDP=1.46D-08 MaxDP=5.39D-07 DE=-1.85D-10 OVMax= 9.84D-07

 Cycle   7  Pass 1  IDiag  1:
 RMSU=  8.22D-09    CP:  1.00D+00  1.11D+00  1.15D+00  1.09D+00  1.09D+00
                    CP:  1.11D+00
 FoFJK:  IHMeth= 1 ICntrl=     0 DoSepK=T KAlg= 1 I1Cent= 0 FoldK=F
 E= -2905.42831314818     Delta-E=       -0.000000000006 Rises=F Damp=F
 DIIS: error= 8.13D-08 at cycle   7 NSaved=   7.
 NSaved= 7 IEnMin= 7 EnMin= -2905.42831314818     IErMin= 7 ErrMin= 8.13D-08
 ErrMax= 8.13D-08 EMaxC= 1.00D-01 BMatC= 9.79D-13 BMatP= 7.83D-12
 IDIUse=1 WtCom= 1.00D+00 WtEn= 0.00D+00
 Coeff-Com: -0.270D-04 0.654D-02 0.655D-04-0.434D-01-0.980D-01 0.175D+00
 Coeff-Com:  0.960D+00
 Coeff:     -0.270D-04 0.654D-02 0.655D-04-0.434D-01-0.980D-01 0.175D+00
 Coeff:      0.960D+00
 Gap=     0.411 Goal=   None    Shift=    0.000
 RMSDP=9.96D-09 MaxDP=3.03D-07 DE=-6.37D-12 OVMax= 7.97D-07

 SCF Done:  E(RwB97XD) =  -2905.42831315     A.U. after    7 cycles
             Convg  =    0.9961D-08             -V/T =  2.0016
 KE= 2.900916816373D+03 PE=-7.147928588218D+03 EE= 1.236895377087D+03
 Leave Link  502 at Thu Apr 16 12:12:02 2020, MaxMem= 1073741824 cpu:     155.0
 (Enter /home/matheus/.gaussian/g09/l108.exe)
 Scan completed.

 Summary of the potential surface scan:
   N      R1          SCF    
 ----  ---------  -----------
    1     3.0000  -2905.42485
    2     3.1000  -2905.42654
    3     3.2000  -2905.42764
    4     3.3000  -2905.42835
    5     3.4000  -2905.42878
    6     3.5000  -2905.42901
    7     3.6000  -2905.42912
    8     3.7000  -2905.42915
    9     3.8000  -2905.42912
   10     3.9000  -2905.42907
   11     4.0000  -2905.42900
   12     4.1000  -2905.42892
   13     4.2000  -2905.42883
   14     4.3000  -2905.42875
   15     4.4000  -2905.42867
   16     4.5000  -2905.42860
   17     4.6000  -2905.42853
   18     4.7000  -2905.42846
   19     4.8000  -2905.42841
   20     4.9000  -2905.42836
   21     5.0000  -2905.42831
 ----  ---------  -----------
  
 Leave Link  108 at Thu Apr 16 12:12:04 2020, MaxMem= 1073741824 cpu:       3.5
 (Enter /home/matheus/.gaussian/g09/l9999.exe)

 Test job not archived.
 1\1\GINC-REDGIANT\Scan\RwB97XD\Aug-CC-pVTZ\H2Kr1O2\ROOT\16-Apr-2020\1\
 \#p wb97xd/aug-cc-PVTz iop(3/107=0250000000) iop(3/108=0250000000) int
 =ultrafine Scan\\TCC\\0,1\O,0,0.,0.,0.725\O,0,0.,0.,-0.725\H,0,-0.4593
 602974,-0.795635374,1.0235104166\H,0,0.,0.9187205947,-1.0235104166\Kr,
 0,0.,R1,0.\\R1=3.,s,20,0.1\\Version=EM64L-G09RevC.01\State=1-A\HF=-290
 5.4248458,-2905.4265404,-2905.4276442,-2905.4283509,-2905.4287751,-290
 5.4290129,-2905.4291167,-2905.4291451,-2905.4291238,-2905.4290673,-290
 5.4289952,-2905.4289153,-2905.4288323,-2905.4287484,-2905.4286706,-290
 5.428597,-2905.4285273,-2905.4284649,-2905.4284094,-2905.4283584,-2905
 .4283131\RMSD=2.685e-09,7.228e-09,7.149e-09,6.824e-09,6.278e-09,5.177e
 -09,4.506e-09,3.784e-09,3.167e-09,9.588e-09,8.827e-09,7.440e-09,6.466e
 -09,5.648e-09,4.846e-09,4.344e-09,3.994e-09,3.597e-09,3.200e-09,2.875e
 -09,9.961e-09\PG=C01 [X(H2Kr1O2)]\\@


 It is also a good rule not to put too much confidence in
 experimental results until they have been confirmed by
 Theory.
                             -- Sir Arthur Eddington
 Job cpu time:  0 days  1 hours 18 minutes 36.9 seconds.
 File lengths (MBytes):  RWF=     33 Int=      0 D2E=      0 Chk=      4 Scr=      1
 Normal termination of Gaussian 09 at Thu Apr 16 12:12:04 2020.
