 Entering Gaussian System, Link 0=g09
 Input=/home/matheus/.tcc/Inputs-wb97xd/H2O2-Kr_0.com
 Output=/home/matheus/.tcc/Logs-wb97xd/H2O2-Kr_0.log
 Initial command:
 /home/matheus/.gaussian/g09/l1.exe /home/matheus/.gaussian/g09/scratch/Gau-14865.inp -scrdir=/home/matheus/.gaussian/g09/scratch/
 Entering Link 1 = /home/matheus/.gaussian/g09/l1.exe PID=     14869.
  
 Copyright (c) 1988,1990,1992,1993,1995,1998,2003,2009,2011,
            Gaussian, Inc.  All Rights Reserved.
  
 This is part of the Gaussian(R) 09 program.  It is based on
 the Gaussian(R) 03 system (copyright 2003, Gaussian, Inc.),
 the Gaussian(R) 98 system (copyright 1998, Gaussian, Inc.),
 the Gaussian(R) 94 system (copyright 1995, Gaussian, Inc.),
 the Gaussian 92(TM) system (copyright 1992, Gaussian, Inc.),
 the Gaussian 90(TM) system (copyright 1990, Gaussian, Inc.),
 the Gaussian 88(TM) system (copyright 1988, Gaussian, Inc.),
 the Gaussian 86(TM) system (copyright 1986, Carnegie Mellon
 University), and the Gaussian 82(TM) system (copyright 1983,
 Carnegie Mellon University). Gaussian is a federally registered
 trademark of Gaussian, Inc.
  
 This software contains proprietary and confidential information,
 including trade secrets, belonging to Gaussian, Inc.
  
 This software is provided under written license and may be
 used, copied, transmitted, or stored only in accord with that
 written license.

 The following legend is applicable only to US Government
 contracts under FAR:
  
                    RESTRICTED RIGHTS LEGEND
  
 Use, reproduction and disclosure by the US Government is
 subject to restrictions as set forth in subparagraphs (a)
 and (c) of the Commercial Computer Software - Restricted
 Rights clause in FAR 52.227-19.
  
 Gaussian, Inc.
 340 Quinnipiac St., Bldg. 40, Wallingford CT 06492
  
  
 ---------------------------------------------------------------
 Warning -- This program may not be used in any manner that
 competes with the business of Gaussian, Inc. or will provide
 assistance to any competitor of Gaussian, Inc.  The licensee
 of this program is prohibited from giving any competitor of
 Gaussian, Inc. access to this program.  By using this program,
 the user acknowledges that Gaussian, Inc. is engaged in the
 business of creating and licensing software in the field of
 computational chemistry and represents and warrants to the
 licensee that it is not a competitor of Gaussian, Inc. and that
 it will not use this program in any manner prohibited above.
 ---------------------------------------------------------------
  

 Cite this work as:
 Gaussian 09, Revision C.01,
 M. J. Frisch, G. W. Trucks, H. B. Schlegel, G. E. Scuseria, 
 M. A. Robb, J. R. Cheeseman, G. Scalmani, V. Barone, B. Mennucci, 
 G. A. Petersson, H. Nakatsuji, M. Caricato, X. Li, H. P. Hratchian, 
 A. F. Izmaylov, J. Bloino, G. Zheng, J. L. Sonnenberg, M. Hada, 
 M. Ehara, K. Toyota, R. Fukuda, J. Hasegawa, M. Ishida, T. Nakajima, 
 Y. Honda, O. Kitao, H. Nakai, T. Vreven, J. A. Montgomery, Jr., 
 J. E. Peralta, F. Ogliaro, M. Bearpark, J. J. Heyd, E. Brothers, 
 K. N. Kudin, V. N. Staroverov, T. Keith, R. Kobayashi, J. Normand, 
 K. Raghavachari, A. Rendell, J. C. Burant, S. S. Iyengar, J. Tomasi, 
 M. Cossi, N. Rega, J. M. Millam, M. Klene, J. E. Knox, J. B. Cross, 
 V. Bakken, C. Adamo, J. Jaramillo, R. Gomperts, R. E. Stratmann, 
 O. Yazyev, A. J. Austin, R. Cammi, C. Pomelli, J. W. Ochterski, 
 R. L. Martin, K. Morokuma, V. G. Zakrzewski, G. A. Voth, 
 P. Salvador, J. J. Dannenberg, S. Dapprich, A. D. Daniels, 
 O. Farkas, J. B. Foresman, J. V. Ortiz, J. Cioslowski, 
 and D. J. Fox, Gaussian, Inc., Wallingford CT, 2010.
 
 ******************************************
 Gaussian 09:  EM64L-G09RevC.01 23-Sep-2011
                16-Apr-2020 
 ******************************************
 %mem=8GB
 %nproc=8
 Will use up to    8 processors via shared memory.
 ----------------------------------------------------------------------
 #p wb97xd/aug-cc-PVTz iop(3/107=0250000000) iop(3/108=0250000000) int=
 ultrafine Scan
 ----------------------------------------------------------------------
 1/38=1,60=1/1,8;
 2/12=2,17=6,18=5,29=3,40=1/2;
 3/5=16,6=1,7=10,11=2,16=1,25=1,30=1,74=-58,75=-5,107=250000000,108=250000000/1,2,3;
 4//1;
 5/5=2,38=5/2;
 6/7=2,8=2,9=2,10=2,18=1,28=1/1;
 1/60=1/8(1);
 99/9=1/99;
 2/29=3/2;
 3/5=16,6=1,7=10,11=2,16=1,25=1,30=1,74=-58,75=-5,107=250000000,108=250000000/1,2,3;
 4/5=5,16=3/1;
 5/5=2,38=5/2;
 1/60=1/8(-4);
 99/9=1/99;
 Leave Link    1 at Thu Apr 16 08:55:36 2020, MaxMem= 1073741824 cpu:       0.2
 (Enter /home/matheus/.gaussian/g09/l101.exe)
 ---
 TCC
 ---
 Charge =  0 Multiplicity = 1
 Symbolic Z-Matrix:
 O                     0.        0.        0.725 
 O                     0.        0.       -0.725 
 H                     0.        0.91872   1.02351 
 H                     0.        0.91872  -1.02351 
 Kr                    0.       R1        0. 
       Variables:
  R1                    3.     Scan 20    0.1    
 
 NAtoms=      5 NQM=        0 NQMF=       0 NMMI=      5 NMMIF=      0
                NMic=       0 NMicF=      0.
                    Isotopes and Nuclear Properties:
 (Nuclear quadrupole moments (NQMom) in fm**2, nuclear magnetic moments (NMagM)
  in nuclear magnetons)

  Atom         1           2           3           4           5
 IAtWgt=          16          16           1           1          84
 AtmWgt=  15.9949146  15.9949146   1.0078250   1.0078250  83.9115064
 NucSpn=           0           0           1           1           0
 AtZEff=   0.0000000   0.0000000   0.0000000   0.0000000   0.0000000
 NQMom=    0.0000000   0.0000000   0.0000000   0.0000000   0.0000000
 NMagM=    0.0000000   0.0000000   2.7928460   2.7928460   0.0000000
 Leave Link  101 at Thu Apr 16 08:55:36 2020, MaxMem= 1073741824 cpu:       0.3
 (Enter /home/matheus/.gaussian/g09/l108.exe)
 Scan the potential surface.
 Variable   Value     No. Steps Step-Size
 -------- ----------- --------- ---------
     1       3.000000      20      0.1000
 A total of     21 points will be computed.
 Leave Link  108 at Thu Apr 16 08:55:36 2020, MaxMem= 1073741824 cpu:       0.0
 (Enter /home/matheus/.gaussian/g09/l202.exe)
 ---------------------------------------------------------------------------------------------------
                            Z-MATRIX (ANGSTROMS AND DEGREES)
   CD    Cent   Atom    N1       Length/X        N2       Alpha/Y        N3        Beta/Z          J
 ---------------------------------------------------------------------------------------------------
      1      1  O        0   0.000000          0.000000          0.725000
      2      2  O        0   0.000000          0.000000         -0.725000
      3      3  H        0   0.000000          0.918721          1.023510
      4      4  H        0   0.000000          0.918721         -1.023510
      5      5  Kr       0   0.000000          3.000000          0.000000
 ---------------------------------------------------------------------------------------------------
                         Z-Matrix orientation:                         
 ---------------------------------------------------------------------
 Center     Atomic      Atomic             Coordinates (Angstroms)
 Number     Number       Type             X           Y           Z
 ---------------------------------------------------------------------
      1          8           0        0.000000    0.000000    0.725000
      2          8           0        0.000000    0.000000   -0.725000
      3          1           0        0.000000    0.918721    1.023510
      4          1           0        0.000000    0.918721   -1.023510
      5         36           0        0.000000    3.000000    0.000000
 ---------------------------------------------------------------------
                    Distance matrix (angstroms):
                    1          2          3          4          5
     1  O    0.000000
     2  O    1.450000   0.000000
     3  H    0.966000   1.975180   0.000000
     4  H    1.975180   0.966000   2.047021   0.000000
     5  Kr   3.086361   3.086361   2.319331   2.319331   0.000000
 Stoichiometry    H2KrO2
 Framework group  C2V[C2(Kr),SGV(H2O2)]
 Deg. of freedom     4
 Full point group                 C2V     NOp   4
 Largest Abelian subgroup         C2V     NOp   4
 Largest concise Abelian subgroup C2      NOp   2
                         Standard orientation:                         
 ---------------------------------------------------------------------
 Center     Atomic      Atomic             Coordinates (Angstroms)
 Number     Number       Type             X           Y           Z
 ---------------------------------------------------------------------
      1          8           0        0.000000    0.725000   -2.034027
      2          8           0        0.000000   -0.725000   -2.034027
      3          1           0        0.000000    1.023510   -1.115306
      4          1           0        0.000000   -1.023510   -1.115306
      5         36           0        0.000000    0.000000    0.965973
 ---------------------------------------------------------------------
 Rotational constants (GHZ):     26.7026195      2.3888795      2.1927141
 Leave Link  202 at Thu Apr 16 08:55:36 2020, MaxMem= 1073741824 cpu:       0.0
 (Enter /home/matheus/.gaussian/g09/l301.exe)
 Standard basis: Aug-CC-pVTZ (5D, 7F)
 Ernie: Thresh=  0.10000D-02 Tol=  0.10000D-05 Strict=F.
 Ernie:  38 primitive shells out of 205 were deleted.
 There are    71 symmetry adapted basis functions of A1  symmetry.
 There are    29 symmetry adapted basis functions of A2  symmetry.
 There are    37 symmetry adapted basis functions of B1  symmetry.
 There are    60 symmetry adapted basis functions of B2  symmetry.
 Integral buffers will be    131072 words long.
 Raffenetti 2 integral format.
 Two-electron integral symmetry is turned on.
   197 basis functions,   415 primitive gaussians,   229 cartesian basis functions
    27 alpha electrons       27 beta electrons
       nuclear repulsion energy       151.8532718296 Hartrees.
 IExCor= 4639 DFT=T Ex+Corr=wB97XD ExCW=0 ScaHFX=  1.000000
 ScaDFX=  1.000000  1.000000  1.000000  1.000000 ScalE2=  1.000000  1.000000
 IRadAn=      5 IRanWt=     -1 IRanGd=            0 ICorTp=0
  HFx wShort=  0.000000 wLong=  0.250000 cFull=  0.222036 cShort=  0.000000 cLong=  0.777964
  DFx wShort=  0.000000 wLong=  0.250000 cFull=  0.000000 cShort=  0.000000 cLong=  1.000000
 NAtoms=    5 NActive=    5 NUniq=    3 SFac= 2.78D+00 NAtFMM=   60 NAOKFM=F Big=F
 R6Disp: Dispersion energy =        -0.0007521941 Hartrees.
 Nuclear repulsion after empirical dispersion term =      151.8525196355 Hartrees.
 Leave Link  301 at Thu Apr 16 08:55:36 2020, MaxMem= 1073741824 cpu:       0.2
 (Enter /home/matheus/.gaussian/g09/l302.exe)
 NPDir=0 NMtPBC=     1 NCelOv=     1 NCel=       1 NClECP=     1 NCelD=      1
         NCelK=      1 NCelE2=     1 NClLst=     1 CellRange=     0.0.
 One-electron integrals computed using PRISM.
 One-electron integral symmetry used in STVInt
 NBasis=   197 RedAO= T  NBF=    71    29    37    60
 NBsUse=   197 1.00D-06 NBFU=    71    29    37    60
 Precomputing XC quadrature grid using
 IXCGrd= 2 IRadAn=           5 IRanWt=          -1 IRanGd=           0 AccXCQ= 0.00D+00.
 NRdTot=     427 NPtTot=      123512 NUsed=      126579 NTot=      126611
 NSgBfM=   229   229   229   229   229 NAtAll=     5     5.
 Leave Link  302 at Thu Apr 16 08:55:36 2020, MaxMem= 1073741824 cpu:       0.9
 (Enter /home/matheus/.gaussian/g09/l303.exe)
 DipDrv:  MaxL=1.
 Leave Link  303 at Thu Apr 16 08:55:36 2020, MaxMem= 1073741824 cpu:       0.2
 (Enter /home/matheus/.gaussian/g09/l401.exe)
 Harris functional with IExCor= 4639 diagonalized for initial guess.
 ExpMin= 2.53D-02 ExpMax= 1.17D+07 ExpMxC= 1.33D+04 IAcc=3 IRadAn=         5 AccDes= 0.00D+00
 HarFok:  IExCor= 4639 AccDes= 0.00D+00 IRadAn=         5 IDoV= 1
 ScaDFX=  1.000000  1.000000  1.000000  1.000000
 FoFCou: FMM=F IPFlag=           0 FMFlag=      100000 FMFlg1=           0
         NFxFlg=           0 DoJE=T BraDBF=F KetDBF=T FulRan=T
         Omega=  0.000000  0.000000  1.000000  0.000000  0.000000 ICntrl=     500 IOpCl=  0
         NMat0=    1 NMatS0=    1 NMatT0=    0 NMatD0=    1 NMtDS0=    0 NMtDT0=    0
         I1Cent=           4 NGrid=           0.
 Petite list used in FoFCou.
 Harris En= -2875.38588961100    
 Initial guess orbital symmetries:
       Occupied  (A1) (A1) (A1) (B2) (B1) (B2) (A1) (A1) (A1) (B2)
                 (B1) (B2) (A1) (B1) (A1) (A2) (A1) (B2) (A1) (A1)
                 (A1) (B2) (B1) (B1) (A1) (B2) (A2)
       Virtual   (A1) (B2) (A1) (B1) (B2) (A1) (B2) (B1) (A1) (A1)
                 (B2) (A2) (A1) (B2) (B1) (A1) (A2) (B2) (A1) (A1)
                 (B2) (B1) (A2) (A1) (B2) (B2) (B2) (A1) (B1) (A1)
                 (A1) (B1) (B2) (A1) (B2) (B1) (A2) (A1) (B1) (B2)
                 (A1) (A2) (A1) (A2) (A1) (B2) (B2) (A1) (B1) (B1)
                 (A2) (B2) (A1) (B1) (B2) (A1) (B1) (A1) (B2) (A2)
                 (B2) (A2) (A1) (B2) (A1) (A1) (B2) (B1) (A2) (B1)
                 (B2) (A1) (A2) (A1) (B2) (B2) (A1) (B1) (A1) (B2)
                 (B1) (A1) (A2) (A1) (B1) (A1) (B2) (B1) (A2) (B2)
                 (B2) (A1) (A1) (A1) (A2) (B1) (B2) (A1) (B2) (B1)
                 (B1) (B2) (A1) (A2) (B1) (B2) (A2) (B1) (A1) (A2)
                 (A1) (B2) (B2) (A1) (A1) (B2) (A2) (B2) (B2) (A1)
                 (B2) (B1) (B1) (A1) (A2) (B1) (A2) (A1) (B2) (A2)
                 (A1) (A1) (B2) (B2) (A1) (A1) (B1) (A1) (B2) (A2)
                 (B2) (B2) (A1) (B1) (B2) (A1) (B1) (A1) (A2) (B2)
                 (B1) (A1) (A2) (A1) (B1) (B1) (B2) (A2) (A2) (B2)
                 (A1) (A2) (A1) (B2) (B2) (A1) (B2) (B2) (A1) (B2)
 The electronic state of the initial guess is 1-A1.
 Leave Link  401 at Thu Apr 16 08:55:36 2020, MaxMem= 1073741824 cpu:       1.7
 (Enter /home/matheus/.gaussian/g09/l502.exe)
 Closed shell SCF:
 Requested convergence on RMS density matrix=1.00D-08 within 128 cycles.
 Requested convergence on MAX density matrix=1.00D-06.
 Requested convergence on             energy=1.00D-06.
 No special actions if energy rises.
 Using DIIS extrapolation, IDIIS=  1040.
 Integral symmetry usage will be decided dynamically.
       126521 words used for storage of precomputed grid.
 IEnd=      305860 IEndB=      305860 NGot=  1073741824 MDV=  1073505275
 LenX=  1073505275 LenY=  1073452393
 Fock matrices will be formed incrementally for  20 cycles.

 Cycle   1  Pass 1  IDiag  1:
 FoFJK:  IHMeth= 1 ICntrl=     0 DoSepK=T KAlg= 1 I1Cent= 0 FoldK=F
 FoFCou: FMM=F IPFlag=           0 FMFlag=      100000 FMFlg1=           0
         NFxFlg=           0 DoJE=T BraDBF=F KetDBF=F FulRan=T
         Omega=  0.000000  0.000000  1.000000  0.000000  0.000000 ICntrl=     500 IOpCl=  0
         NMat0=    1 NMatS0=    1 NMatT0=    0 NMatD0=    1 NMtDS0=    0 NMtDT0=    0
         I1Cent=           0 NGrid=           0.
 Petite list used in FoFCou.
 E= -2904.88620303146    
 DIIS: error= 9.30D-02 at cycle   1 NSaved=   1.
 NSaved= 1 IEnMin= 1 EnMin= -2904.88620303146     IErMin= 1 ErrMin= 9.30D-02
 ErrMax= 9.30D-02 EMaxC= 1.00D-01 BMatC= 2.24D+00 BMatP= 2.24D+00
 IDIUse=3 WtCom= 7.00D-02 WtEn= 9.30D-01
 Coeff-Com:  0.100D+01
 Coeff-En:   0.100D+01
 Coeff:      0.100D+01
 Gap=     0.515 Goal=   None    Shift=    0.000
 GapD=    0.515 DampG=2.000 DampE=0.500 DampFc=1.0000 IDamp=-1.
 RMSDP=6.54D-03 MaxDP=3.79D-01              OVMax= 1.90D-01

 Cycle   2  Pass 1  IDiag  1:
 RMSU=  4.61D-03    CP:  1.02D+00
 FoFJK:  IHMeth= 1 ICntrl=     0 DoSepK=T KAlg= 1 I1Cent= 0 FoldK=F
 E= -2905.21717660910     Delta-E=       -0.330973577644 Rises=F Damp=F
 DIIS: error= 5.21D-02 at cycle   2 NSaved=   2.
 NSaved= 2 IEnMin= 2 EnMin= -2905.21717660910     IErMin= 2 ErrMin= 5.21D-02
 ErrMax= 5.21D-02 EMaxC= 1.00D-01 BMatC= 5.67D-01 BMatP= 2.24D+00
 IDIUse=3 WtCom= 4.79D-01 WtEn= 5.21D-01
 Coeff-Com:  0.327D+00 0.673D+00
 Coeff-En:   0.185D+00 0.815D+00
 Coeff:      0.253D+00 0.747D+00
 Gap=     0.370 Goal=   None    Shift=    0.000
 RMSDP=2.94D-03 MaxDP=1.70D-01 DE=-3.31D-01 OVMax= 7.96D-02

 Cycle   3  Pass 1  IDiag  1:
 RMSU=  6.06D-04    CP:  1.01D+00  5.69D-01
 FoFJK:  IHMeth= 1 ICntrl=     0 DoSepK=T KAlg= 1 I1Cent= 0 FoldK=F
 E= -2905.40379102368     Delta-E=       -0.186614414582 Rises=F Damp=F
 DIIS: error= 1.13D-02 at cycle   3 NSaved=   3.
 NSaved= 3 IEnMin= 3 EnMin= -2905.40379102368     IErMin= 3 ErrMin= 1.13D-02
 ErrMax= 1.13D-02 EMaxC= 1.00D-01 BMatC= 2.95D-02 BMatP= 5.67D-01
 IDIUse=3 WtCom= 8.87D-01 WtEn= 1.13D-01
 Coeff-Com:  0.276D-01 0.215D+00 0.758D+00
 Coeff-En:   0.000D+00 0.000D+00 0.100D+01
 Coeff:      0.244D-01 0.190D+00 0.785D+00
 Gap=     0.418 Goal=   None    Shift=    0.000
 RMSDP=6.33D-04 MaxDP=2.15D-02 DE=-1.87D-01 OVMax= 2.89D-02

 Cycle   4  Pass 1  IDiag  1:
 RMSU=  2.50D-04    CP:  1.01D+00  6.49D-01  9.04D-01
 FoFJK:  IHMeth= 1 ICntrl=     0 DoSepK=T KAlg= 1 I1Cent= 0 FoldK=F
 E= -2905.41600463447     Delta-E=       -0.012213610788 Rises=F Damp=F
 DIIS: error= 4.02D-03 at cycle   4 NSaved=   4.
 NSaved= 4 IEnMin= 4 EnMin= -2905.41600463447     IErMin= 4 ErrMin= 4.02D-03
 ErrMax= 4.02D-03 EMaxC= 1.00D-01 BMatC= 2.06D-03 BMatP= 2.95D-02
 IDIUse=3 WtCom= 9.60D-01 WtEn= 4.02D-02
 Coeff-Com: -0.363D-02 0.620D-01 0.375D+00 0.566D+00
 Coeff-En:   0.000D+00 0.000D+00 0.000D+00 0.100D+01
 Coeff:     -0.348D-02 0.595D-01 0.360D+00 0.584D+00
 Gap=     0.400 Goal=   None    Shift=    0.000
 RMSDP=1.45D-04 MaxDP=6.19D-03 DE=-1.22D-02 OVMax= 8.30D-03

 Cycle   5  Pass 1  IDiag  1:
 RMSU=  4.23D-05    CP:  1.01D+00  6.42D-01  9.40D-01  6.62D-01
 FoFJK:  IHMeth= 1 ICntrl=     0 DoSepK=T KAlg= 1 I1Cent= 0 FoldK=F
 E= -2905.41730012481     Delta-E=       -0.001295490340 Rises=F Damp=F
 DIIS: error= 1.56D-04 at cycle   5 NSaved=   5.
 NSaved= 5 IEnMin= 5 EnMin= -2905.41730012481     IErMin= 5 ErrMin= 1.56D-04
 ErrMax= 1.56D-04 EMaxC= 1.00D-01 BMatC= 5.28D-06 BMatP= 2.06D-03
 IDIUse=3 WtCom= 9.98D-01 WtEn= 1.56D-03
 Coeff-Com: -0.612D-03-0.662D-02-0.229D-01 0.235D-02 0.103D+01
 Coeff-En:   0.000D+00 0.000D+00 0.000D+00 0.000D+00 0.100D+01
 Coeff:     -0.611D-03-0.661D-02-0.229D-01 0.234D-02 0.103D+01
 Gap=     0.401 Goal=   None    Shift=    0.000
 RMSDP=2.27D-05 MaxDP=7.80D-04 DE=-1.30D-03 OVMax= 1.40D-03

 Cycle   6  Pass 1  IDiag  1:
 RMSU=  6.34D-06    CP:  1.01D+00  6.42D-01  9.53D-01  6.87D-01  1.25D+00
 FoFJK:  IHMeth= 1 ICntrl=     0 DoSepK=T KAlg= 1 I1Cent= 0 FoldK=F
 E= -2905.41730827426     Delta-E=       -0.000008149444 Rises=F Damp=F
 DIIS: error= 4.21D-05 at cycle   6 NSaved=   6.
 NSaved= 6 IEnMin= 6 EnMin= -2905.41730827426     IErMin= 6 ErrMin= 4.21D-05
 ErrMax= 4.21D-05 EMaxC= 1.00D-01 BMatC= 2.87D-07 BMatP= 5.28D-06
 IDIUse=1 WtCom= 1.00D+00 WtEn= 0.00D+00
 Coeff-Com:  0.661D-05-0.328D-02-0.164D-01-0.196D-01 0.109D+00 0.930D+00
 Coeff:      0.661D-05-0.328D-02-0.164D-01-0.196D-01 0.109D+00 0.930D+00
 Gap=     0.401 Goal=   None    Shift=    0.000
 RMSDP=5.21D-06 MaxDP=1.78D-04 DE=-8.15D-06 OVMax= 3.48D-04

 Cycle   7  Pass 1  IDiag  1:
 RMSU=  1.69D-06    CP:  1.01D+00  6.42D-01  9.56D-01  6.90D-01  1.31D+00
                    CP:  1.20D+00
 FoFJK:  IHMeth= 1 ICntrl=     0 DoSepK=T KAlg= 1 I1Cent= 0 FoldK=F
 E= -2905.41730883528     Delta-E=       -0.000000561025 Rises=F Damp=F
 DIIS: error= 8.90D-06 at cycle   7 NSaved=   7.
 NSaved= 7 IEnMin= 7 EnMin= -2905.41730883528     IErMin= 7 ErrMin= 8.90D-06
 ErrMax= 8.90D-06 EMaxC= 1.00D-01 BMatC= 1.92D-08 BMatP= 2.87D-07
 IDIUse=1 WtCom= 1.00D+00 WtEn= 0.00D+00
 Coeff-Com:  0.322D-04 0.694D-04-0.137D-03-0.218D-02-0.532D-01 0.631D-01
 Coeff-Com:  0.992D+00
 Coeff:      0.322D-04 0.694D-04-0.137D-03-0.218D-02-0.532D-01 0.631D-01
 Coeff:      0.992D+00
 Gap=     0.401 Goal=   None    Shift=    0.000
 RMSDP=1.60D-06 MaxDP=5.08D-05 DE=-5.61D-07 OVMax= 1.18D-04

 Cycle   8  Pass 1  IDiag  1:
 RMSU=  5.18D-07    CP:  1.01D+00  6.42D-01  9.56D-01  6.90D-01  1.33D+00
                    CP:  1.29D+00  1.24D+00
 FoFJK:  IHMeth= 1 ICntrl=     0 DoSepK=T KAlg= 1 I1Cent= 0 FoldK=F
 E= -2905.41730888189     Delta-E=       -0.000000046613 Rises=F Damp=F
 DIIS: error= 3.21D-06 at cycle   8 NSaved=   8.
 NSaved= 8 IEnMin= 8 EnMin= -2905.41730888189     IErMin= 8 ErrMin= 3.21D-06
 ErrMax= 3.21D-06 EMaxC= 1.00D-01 BMatC= 1.66D-09 BMatP= 1.92D-08
 IDIUse=1 WtCom= 1.00D+00 WtEn= 0.00D+00
 Coeff-Com:  0.198D-05 0.200D-03 0.932D-03 0.553D-03-0.920D-02-0.460D-01
 Coeff-Com:  0.495D-01 0.100D+01
 Coeff:      0.198D-05 0.200D-03 0.932D-03 0.553D-03-0.920D-02-0.460D-01
 Coeff:      0.495D-01 0.100D+01
 Gap=     0.401 Goal=   None    Shift=    0.000
 RMSDP=4.45D-07 MaxDP=1.21D-05 DE=-4.66D-08 OVMax= 3.80D-05

 Cycle   9  Pass 1  IDiag  1:
 RMSU=  1.34D-07    CP:  1.01D+00  6.42D-01  9.56D-01  6.89D-01  1.33D+00
                    CP:  1.30D+00  1.33D+00  1.27D+00
 FoFJK:  IHMeth= 1 ICntrl=     0 DoSepK=T KAlg= 1 I1Cent= 0 FoldK=F
 E= -2905.41730888553     Delta-E=       -0.000000003637 Rises=F Damp=F
 DIIS: error= 9.56D-07 at cycle   9 NSaved=   9.
 NSaved= 9 IEnMin= 9 EnMin= -2905.41730888553     IErMin= 9 ErrMin= 9.56D-07
 ErrMax= 9.56D-07 EMaxC= 1.00D-01 BMatC= 1.14D-10 BMatP= 1.66D-09
 IDIUse=1 WtCom= 1.00D+00 WtEn= 0.00D+00
 Coeff-Com: -0.206D-05 0.274D-05 0.396D-04 0.143D-03 0.476D-02-0.291D-02
 Coeff-Com: -0.990D-01 0.294D-01 0.107D+01
 Coeff:     -0.206D-05 0.274D-05 0.396D-04 0.143D-03 0.476D-02-0.291D-02
 Coeff:     -0.990D-01 0.294D-01 0.107D+01
 Gap=     0.401 Goal=   None    Shift=    0.000
 RMSDP=1.43D-07 MaxDP=4.01D-06 DE=-3.64D-09 OVMax= 1.40D-05

 Cycle  10  Pass 1  IDiag  1:
 RMSU=  3.29D-08    CP:  1.01D+00  6.42D-01  9.56D-01  6.89D-01  1.33D+00
                    CP:  1.30D+00  1.34D+00  1.39D+00  1.27D+00
 FoFJK:  IHMeth= 1 ICntrl=     0 DoSepK=T KAlg= 1 I1Cent= 0 FoldK=F
 E= -2905.41730888586     Delta-E=       -0.000000000327 Rises=F Damp=F
 DIIS: error= 1.95D-07 at cycle  10 NSaved=  10.
 NSaved=10 IEnMin=10 EnMin= -2905.41730888586     IErMin=10 ErrMin= 1.95D-07
 ErrMax= 1.95D-07 EMaxC= 1.00D-01 BMatC= 6.54D-12 BMatP= 1.14D-10
 IDIUse=1 WtCom= 1.00D+00 WtEn= 0.00D+00
 Coeff-Com:  0.502D-06-0.892D-05-0.479D-04-0.115D-04-0.388D-03 0.339D-02
 Coeff-Com:  0.785D-02-0.509D-01-0.126D+00 0.117D+01
 Coeff:      0.502D-06-0.892D-05-0.479D-04-0.115D-04-0.388D-03 0.339D-02
 Coeff:      0.785D-02-0.509D-01-0.126D+00 0.117D+01
 Gap=     0.401 Goal=   None    Shift=    0.000
 RMSDP=2.83D-08 MaxDP=7.06D-07 DE=-3.27D-10 OVMax= 3.15D-06

 Cycle  11  Pass 1  IDiag  1:
 RMSU=  6.81D-09    CP:  1.01D+00  6.42D-01  9.56D-01  6.89D-01  1.33D+00
                    CP:  1.30D+00  1.34D+00  1.40D+00  1.36D+00  1.32D+00
 FoFJK:  IHMeth= 1 ICntrl=     0 DoSepK=T KAlg= 1 I1Cent= 0 FoldK=F
 E= -2905.41730888587     Delta-E=       -0.000000000009 Rises=F Damp=F
 DIIS: error= 3.64D-08 at cycle  11 NSaved=  11.
 NSaved=11 IEnMin=11 EnMin= -2905.41730888587     IErMin=11 ErrMin= 3.64D-08
 ErrMax= 3.64D-08 EMaxC= 1.00D-01 BMatC= 1.70D-13 BMatP= 6.54D-12
 IDIUse=1 WtCom= 1.00D+00 WtEn= 0.00D+00
 Coeff-Com: -0.392D-07 0.863D-06 0.418D-05-0.105D-04-0.576D-04-0.276D-03
 Coeff-Com:  0.133D-02 0.667D-02-0.452D-04-0.259D+00 0.125D+01
 Coeff:     -0.392D-07 0.863D-06 0.418D-05-0.105D-04-0.576D-04-0.276D-03
 Coeff:      0.133D-02 0.667D-02-0.452D-04-0.259D+00 0.125D+01
 Gap=     0.401 Goal=   None    Shift=    0.000
 RMSDP=6.66D-09 MaxDP=2.51D-07 DE=-9.09D-12 OVMax= 5.97D-07

 SCF Done:  E(RwB97XD) =  -2905.41730889     A.U. after   11 cycles
             Convg  =    0.6659D-08             -V/T =  2.0015
 KE= 2.900967550116D+03 PE=-7.240941731559D+03 EE= 1.282704352922D+03
 Leave Link  502 at Thu Apr 16 08:55:57 2020, MaxMem= 1073741824 cpu:     169.9
 (Enter /home/matheus/.gaussian/g09/l601.exe)
 Copying SCF densities to generalized density rwf, IOpCl= 0 IROHF=0.

 **********************************************************************

            Population analysis using the SCF density.

 **********************************************************************

 Orbital symmetries:
       Occupied  (A1) (A1) (A1) (B2) (B1) (A1) (B2) (A1) (A1) (B2)
                 (B1) (A1) (B2) (B1) (A2) (A1) (A1) (A1) (B2) (A1)
                 (A1) (B2) (B1) (B1) (A1) (B2) (A2)
       Virtual   (A1) (B2) (A1) (B2) (B1) (B2) (A1) (A1) (B2) (B1)
                 (A1) (A2) (B2) (A1) (B1) (A1) (A2) (B2) (A1) (A1)
                 (B2) (B1) (A1) (A2) (B2) (B2) (B2) (A1) (B1) (A1)
                 (A1) (B2) (B1) (A1) (B2) (B1) (A2) (A1) (B1) (B2)
                 (A1) (A2) (A1) (A2) (A1) (B2) (B2) (B1) (A1) (B1)
                 (A2) (A1) (B2) (B2) (B1) (A1) (A1) (B2) (B1) (A2)
                 (B2) (A2) (A1) (B2) (A1) (A1) (B2) (B1) (A2) (B1)
                 (B2) (A1) (A2) (A1) (B2) (B2) (A1) (B1) (A1) (B2)
                 (A1) (B1) (A1) (B1) (A2) (A1) (B2) (B2) (B1) (A2)
                 (A1) (A2) (A1) (B2) (A1) (B1) (A1) (B2) (B1) (B2)
                 (B1) (B2) (A1) (A2) (B1) (B2) (A1) (B1) (A2) (A1)
                 (B2) (A2) (B2) (A1) (A1) (B2) (B2) (A2) (B2) (A1)
                 (B2) (B1) (B1) (A1) (B1) (A2) (A2) (A1) (B2) (A2)
                 (A1) (A1) (B2) (B2) (A1) (A1) (B1) (A1) (B2) (A2)
                 (B2) (B2) (A1) (B1) (B2) (A1) (B1) (A1) (A2) (B2)
                 (B1) (A1) (A2) (A1) (B1) (B1) (B2) (A2) (A2) (B2)
                 (A1) (A2) (A1) (B2) (B2) (A1) (B2) (B2) (A1) (B2)
 The electronic state is 1-A1.
 Alpha  occ. eigenvalues -- -513.12200 -67.39012 -60.93891 -60.93884 -60.93875
 Alpha  occ. eigenvalues --  -19.33424 -19.33420  -9.84332  -7.53658  -7.53632
 Alpha  occ. eigenvalues --   -7.53603  -3.40343  -3.40340  -3.40314  -3.40295
 Alpha  occ. eigenvalues --   -3.40291  -1.24485  -1.05198  -1.02711  -0.69293
 Alpha  occ. eigenvalues --   -0.54967  -0.53460  -0.52640  -0.51105  -0.50962
 Alpha  occ. eigenvalues --   -0.48353  -0.36529
 Alpha virt. eigenvalues --    0.03545   0.04509   0.08710   0.09446   0.09489
 Alpha virt. eigenvalues --    0.11951   0.12611   0.16611   0.17302   0.17474
 Alpha virt. eigenvalues --    0.18751   0.19182   0.20028   0.21393   0.22422
 Alpha virt. eigenvalues --    0.23684   0.24200   0.25830   0.29743   0.33094
 Alpha virt. eigenvalues --    0.35489   0.37086   0.38388   0.38745   0.39275
 Alpha virt. eigenvalues --    0.43041   0.45423   0.48587   0.50781   0.53011
 Alpha virt. eigenvalues --    0.58045   0.61738   0.61840   0.62998   0.63190
 Alpha virt. eigenvalues --    0.68110   0.68466   0.70023   0.71159   0.73781
 Alpha virt. eigenvalues --    0.74146   0.76643   0.78786   0.82773   0.84211
 Alpha virt. eigenvalues --    0.85533   0.85741   0.87499   0.87561   0.89583
 Alpha virt. eigenvalues --    0.92724   0.95585   0.96325   0.99170   0.99230
 Alpha virt. eigenvalues --    1.01920   1.06033   1.06938   1.07111   1.09053
 Alpha virt. eigenvalues --    1.10383   1.18887   1.21178   1.26826   1.27634
 Alpha virt. eigenvalues --    1.30193   1.30389   1.36222   1.39724   1.45715
 Alpha virt. eigenvalues --    1.48052   1.48060   1.54388   1.55426   1.57842
 Alpha virt. eigenvalues --    1.64095   1.65610   1.77020   1.93263   1.93588
 Alpha virt. eigenvalues --    1.96455   1.97203   2.07441   2.11591   2.11988
 Alpha virt. eigenvalues --    2.18593   2.20441   2.21330   2.21406   2.25988
 Alpha virt. eigenvalues --    2.30141   2.31368   2.31477   2.32220   2.36476
 Alpha virt. eigenvalues --    2.37376   2.40065   2.41375   2.45492   2.46949
 Alpha virt. eigenvalues --    2.47125   2.48286   2.55719   2.56648   2.62519
 Alpha virt. eigenvalues --    2.65734   2.67484   2.67618   2.70217   2.71090
 Alpha virt. eigenvalues --    2.71236   2.74980   2.78496   2.87464   2.88825
 Alpha virt. eigenvalues --    2.94297   3.10891   3.11132   3.18735   3.53158
 Alpha virt. eigenvalues --    3.76938   3.81971   3.94749   4.05480   4.08399
 Alpha virt. eigenvalues --    4.09240   4.11388   4.19115   4.20051   4.26787
 Alpha virt. eigenvalues --    4.34112   4.47110   4.57573   4.71892   4.75091
 Alpha virt. eigenvalues --    4.95621   4.99730   5.01206   5.07203   5.14769
 Alpha virt. eigenvalues --    5.18300   5.54941   5.80997   5.97754   6.07620
 Alpha virt. eigenvalues --    6.13279   6.31217   6.39028   6.48383   6.58197
 Alpha virt. eigenvalues --    6.69930   6.71369   6.75218   6.77942   6.80965
 Alpha virt. eigenvalues --    6.87040   6.87325   6.89629   6.92808   7.12477
 Alpha virt. eigenvalues --    7.16131   7.22970   7.26262   7.29774   7.62914
 Alpha virt. eigenvalues --    7.96652   8.07198   8.21782  13.83994  14.78447
          Condensed to atoms (all electrons):
              1          2          3          4          5
     1  O    8.260594  -0.217423   0.171595   0.040357  -0.019183
     2  O   -0.217423   8.260594   0.040357   0.171595  -0.019183
     3  H    0.171595   0.040357   0.590600  -0.022519  -0.009008
     4  H    0.040357   0.171595  -0.022519   0.590600  -0.009008
     5  Kr  -0.019183  -0.019183  -0.009008  -0.009008  36.042451
 Mulliken atomic charges:
              1
     1  O   -0.235940
     2  O   -0.235940
     3  H    0.228975
     4  H    0.228975
     5  Kr   0.013931
 Sum of Mulliken atomic charges =   0.00000
 Mulliken charges with hydrogens summed into heavy atoms:
              1
     1  O   -0.006966
     2  O   -0.006966
     5  Kr   0.013931
 Sum of Mulliken charges with hydrogens summed into heavy atoms =   0.00000
 Electronic spatial extent (au):  <R**2>=            475.1281
 Charge=              0.0000 electrons
 Dipole moment (field-independent basis, Debye):
    X=              0.0000    Y=              0.0000    Z=              3.7218  Tot=              3.7218
 Quadrupole moment (field-independent basis, Debye-Ang):
   XX=            -30.5405   YY=            -28.1577   ZZ=            -38.6553
   XY=              0.0000   XZ=              0.0000   YZ=              0.0000
 Traceless Quadrupole moment (field-independent basis, Debye-Ang):
   XX=              1.9106   YY=              4.2935   ZZ=             -6.2041
   XY=              0.0000   XZ=              0.0000   YZ=              0.0000
 Octapole moment (field-independent basis, Debye-Ang**2):
  XXX=              0.0000  YYY=              0.0000  ZZZ=             44.5772  XYY=              0.0000
  XXY=              0.0000  XXZ=              9.0448  XZZ=              0.0000  YZZ=              0.0000
  YYZ=              8.1126  XYZ=              0.0000
 Hexadecapole moment (field-independent basis, Debye-Ang**3):
 XXXX=            -29.1670 YYYY=            -63.3959 ZZZZ=           -452.9005 XXXY=              0.0000
 XXXZ=              0.0000 YYYX=              0.0000 YYYZ=              0.0000 ZZZX=              0.0000
 ZZZY=              0.0000 XXYY=            -17.4424 XXZZ=            -76.5031 YYZZ=            -86.1646
 XXYZ=              0.0000 YYXZ=              0.0000 ZZXY=              0.0000
 N-N= 1.518525196355D+02 E-N=-7.240941732667D+03  KE= 2.900967550116D+03
 Symmetry A1   KE= 2.057768429543D+03
 Symmetry A2   KE= 5.296317554386D+01
 Symmetry B1   KE= 3.628342963558D+02
 Symmetry B2   KE= 4.274016486734D+02
 No NMR shielding tensors so no spin-rotation constants.
 Leave Link  601 at Thu Apr 16 08:55:58 2020, MaxMem= 1073741824 cpu:       0.9
 (Enter /home/matheus/.gaussian/g09/l108.exe)
 Variable Step   Value    
 -------- ---- -----------
     1       1    5.858151
 Leave Link  108 at Thu Apr 16 08:55:58 2020, MaxMem= 1073741824 cpu:       0.0
 (Enter /home/matheus/.gaussian/g09/l202.exe)
 ---------------------------------------------------------------------------------------------------
                            Z-MATRIX (ANGSTROMS AND DEGREES)
   CD    Cent   Atom    N1       Length/X        N2       Alpha/Y        N3        Beta/Z          J
 ---------------------------------------------------------------------------------------------------
      1      1  O        0   0.000000          0.000000          0.725000
      2      2  O        0   0.000000          0.000000         -0.725000
      3      3  H        0   0.000000          0.918721          1.023510
      4      4  H        0   0.000000          0.918721         -1.023510
      5      5  Kr       0   0.000000          3.100000          0.000000
 ---------------------------------------------------------------------------------------------------
                         Z-Matrix orientation:                         
 ---------------------------------------------------------------------
 Center     Atomic      Atomic             Coordinates (Angstroms)
 Number     Number       Type             X           Y           Z
 ---------------------------------------------------------------------
      1          8           0        0.000000    0.000000    0.725000
      2          8           0        0.000000    0.000000   -0.725000
      3          1           0        0.000000    0.918721    1.023510
      4          1           0        0.000000    0.918721   -1.023510
      5         36           0        0.000000    3.100000    0.000000
 ---------------------------------------------------------------------
                    Distance matrix (angstroms):
                    1          2          3          4          5
     1  O    0.000000
     2  O    1.450000   0.000000
     3  H    0.966000   1.975180   0.000000
     4  H    1.975180   0.966000   2.047021   0.000000
     5  Kr   3.183650   3.183650   2.409472   2.409472   0.000000
 Stoichiometry    H2KrO2
 Framework group  C2V[C2(Kr),SGV(H2O2)]
 Deg. of freedom     4
 Full point group                 C2V     NOp   4
 RotChk:  IX=0 Diff= 5.64D-18
 Largest Abelian subgroup         C2V     NOp   4
 Largest concise Abelian subgroup C2      NOp   2
                         Standard orientation:                         
 ---------------------------------------------------------------------
 Center     Atomic      Atomic             Coordinates (Angstroms)
 Number     Number       Type             X           Y           Z
 ---------------------------------------------------------------------
      1          8           0        0.000000    0.725000   -2.100693
      2          8           0        0.000000   -0.725000   -2.100693
      3          1           0        0.000000    1.023510   -1.181973
      4          1           0        0.000000   -1.023510   -1.181973
      5         36           0        0.000000    0.000000    0.999307
 ---------------------------------------------------------------------
 Rotational constants (GHZ):     26.7026195      2.2356704      2.0629504
 Leave Link  202 at Thu Apr 16 08:55:58 2020, MaxMem= 1073741824 cpu:       0.0
 (Enter /home/matheus/.gaussian/g09/l301.exe)
 Standard basis: Aug-CC-pVTZ (5D, 7F)
 Ernie: Thresh=  0.10000D-02 Tol=  0.10000D-05 Strict=F.
 Ernie:  38 primitive shells out of 205 were deleted.
 There are    71 symmetry adapted basis functions of A1  symmetry.
 There are    29 symmetry adapted basis functions of A2  symmetry.
 There are    37 symmetry adapted basis functions of B1  symmetry.
 There are    60 symmetry adapted basis functions of B2  symmetry.
 Integral buffers will be    131072 words long.
 Raffenetti 2 integral format.
 Two-electron integral symmetry is turned on.
   197 basis functions,   415 primitive gaussians,   229 cartesian basis functions
    27 alpha electrons       27 beta electrons
       nuclear repulsion energy       148.2207485354 Hartrees.
 IExCor= 4639 DFT=T Ex+Corr=wB97XD ExCW=0 ScaHFX=  1.000000
 ScaDFX=  1.000000  1.000000  1.000000  1.000000 ScalE2=  1.000000  1.000000
 IRadAn=      5 IRanWt=     -1 IRanGd=            0 ICorTp=0
  HFx wShort=  0.000000 wLong=  0.250000 cFull=  0.222036 cShort=  0.000000 cLong=  0.777964
  DFx wShort=  0.000000 wLong=  0.250000 cFull=  0.000000 cShort=  0.000000 cLong=  1.000000
 NAtoms=    5 NActive=    5 NUniq=    3 SFac= 2.78D+00 NAtFMM=   60 NAOKFM=F Big=F
 R6Disp: Dispersion energy =        -0.0008369828 Hartrees.
 Nuclear repulsion after empirical dispersion term =      148.2199115526 Hartrees.
 Leave Link  301 at Thu Apr 16 08:55:58 2020, MaxMem= 1073741824 cpu:       0.2
 (Enter /home/matheus/.gaussian/g09/l302.exe)
 NPDir=0 NMtPBC=     1 NCelOv=     1 NCel=       1 NClECP=     1 NCelD=      1
         NCelK=      1 NCelE2=     1 NClLst=     1 CellRange=     0.0.
 One-electron integrals computed using PRISM.
 One-electron integral symmetry used in STVInt
 NBasis=   197 RedAO= T  NBF=    71    29    37    60
 NBsUse=   197 1.00D-06 NBFU=    71    29    37    60
 Precomputing XC quadrature grid using
 IXCGrd= 2 IRadAn=           5 IRanWt=          -1 IRanGd=           0 AccXCQ= 0.00D+00.
 NRdTot=     427 NPtTot=      123512 NUsed=      126579 NTot=      126611
 NSgBfM=   229   229   229   229   229 NAtAll=     5     5.
 Leave Link  302 at Thu Apr 16 08:55:58 2020, MaxMem= 1073741824 cpu:       0.9
 (Enter /home/matheus/.gaussian/g09/l303.exe)
 DipDrv:  MaxL=1.
 Leave Link  303 at Thu Apr 16 08:55:58 2020, MaxMem= 1073741824 cpu:       0.3
 (Enter /home/matheus/.gaussian/g09/l401.exe)
 Initial guess read from the read-write file.
 B after Tr=     0.000000    0.000000    0.000000
         Rot=    1.000000    0.000000    0.000000    0.000000 Ang=   0.00 deg.
 Guess basis will be translated and rotated to current coordinates.
 Initial guess orbital symmetries:
       Occupied  (A1) (A1) (A1) (B2) (B1) (A1) (B2) (A1) (A1) (B2)
                 (B1) (A1) (B2) (B1) (A2) (A1) (A1) (A1) (B2) (A1)
                 (A1) (B2) (B1) (B1) (A1) (B2) (A2)
       Virtual   (A1) (B2) (A1) (B2) (B1) (B2) (A1) (A1) (B2) (B1)
                 (A1) (A2) (B2) (A1) (B1) (A1) (A2) (B2) (A1) (A1)
                 (B2) (B1) (A1) (A2) (B2) (B2) (B2) (A1) (B1) (A1)
                 (A1) (B2) (B1) (A1) (B2) (B1) (A2) (A1) (B1) (B2)
                 (A1) (A2) (A1) (A2) (A1) (B2) (B2) (B1) (A1) (B1)
                 (A2) (A1) (B2) (B2) (B1) (A1) (A1) (B2) (B1) (A2)
                 (B2) (A2) (A1) (B2) (A1) (A1) (B2) (B1) (A2) (B1)
                 (B2) (A1) (A2) (A1) (B2) (B2) (A1) (B1) (A1) (B2)
                 (A1) (B1) (A1) (B1) (A2) (A1) (B2) (B2) (B1) (A2)
                 (A1) (A2) (A1) (B2) (A1) (B1) (A1) (B2) (B1) (B2)
                 (B1) (B2) (A1) (A2) (B1) (B2) (A1) (B1) (A2) (A1)
                 (B2) (A2) (B2) (A1) (A1) (B2) (B2) (A2) (B2) (A1)
                 (B2) (B1) (B1) (A1) (B1) (A2) (A2) (A1) (B2) (A2)
                 (A1) (A1) (B2) (B2) (A1) (A1) (B1) (A1) (B2) (A2)
                 (B2) (B2) (A1) (B1) (B2) (A1) (B1) (A1) (A2) (B2)
                 (B1) (A1) (A2) (A1) (B1) (B1) (B2) (A2) (A2) (B2)
                 (A1) (A2) (A1) (B2) (B2) (A1) (B2) (B2) (A1) (B2)
 The electronic state of the initial guess is 1-A1.
 Generating alternative initial guess.
 Harris functional with IExCor= 4639 diagonalized for initial guess.
 ExpMin= 2.53D-02 ExpMax= 1.17D+07 ExpMxC= 1.33D+04 IAcc=3 IRadAn=         5 AccDes= 0.00D+00
 HarFok:  IExCor= 4639 AccDes= 0.00D+00 IRadAn=         5 IDoV= 1
 ScaDFX=  1.000000  1.000000  1.000000  1.000000
 FoFCou: FMM=F IPFlag=           0 FMFlag=      100000 FMFlg1=           0
         NFxFlg=           0 DoJE=T BraDBF=F KetDBF=T FulRan=T
         Omega=  0.000000  0.000000  1.000000  0.000000  0.000000 ICntrl=     500 IOpCl=  0
         NMat0=    1 NMatS0=    1 NMatT0=    0 NMatD0=    1 NMtDS0=    0 NMtDT0=    0
         I1Cent=           4 NGrid=           0.
 Petite list used in FoFCou.
 Harris En= -2875.39077147366    
 Leave Link  401 at Thu Apr 16 08:55:58 2020, MaxMem= 1073741824 cpu:       2.3
 (Enter /home/matheus/.gaussian/g09/l502.exe)
 Closed shell SCF:
 Requested convergence on RMS density matrix=1.00D-08 within 128 cycles.
 Requested convergence on MAX density matrix=1.00D-06.
 Requested convergence on             energy=1.00D-06.
 No special actions if energy rises.
 Using DIIS extrapolation, IDIIS=  1040.
 Integral symmetry usage will be decided dynamically.
       126521 words used for storage of precomputed grid.
 IEnd=      305860 IEndB=      305860 NGot=  1073741824 MDV=  1073505275
 LenX=  1073505275 LenY=  1073452393
 Fock matrices will be formed incrementally for  20 cycles.

 Cycle   1  Pass 1  IDiag  1:
 FoFJK:  IHMeth= 1 ICntrl=     0 DoSepK=T KAlg= 1 I1Cent= 0 FoldK=F
 FoFCou: FMM=F IPFlag=           0 FMFlag=      100000 FMFlg1=           0
         NFxFlg=           0 DoJE=T BraDBF=F KetDBF=F FulRan=T
         Omega=  0.000000  0.000000  1.000000  0.000000  0.000000 ICntrl=     500 IOpCl=  0
         NMat0=    1 NMatS0=    1 NMatT0=    0 NMatD0=    1 NMtDS0=    0 NMtDT0=    0
         I1Cent=           0 NGrid=           0.
 Petite list used in FoFCou.
 E= -2905.41980345962    
 DIIS: error= 3.21D-03 at cycle   1 NSaved=   1.
 NSaved= 1 IEnMin= 1 EnMin= -2905.41980345962     IErMin= 1 ErrMin= 3.21D-03
 ErrMax= 3.21D-03 EMaxC= 1.00D-01 BMatC= 1.05D-03 BMatP= 1.05D-03
 IDIUse=3 WtCom= 9.68D-01 WtEn= 3.21D-02
 Coeff-Com:  0.100D+01
 Coeff-En:   0.100D+01
 Coeff:      0.100D+01
 Gap=     0.405 Goal=   None    Shift=    0.000
 GapD=    0.405 DampG=2.000 DampE=1.000 DampFc=2.0000 IDamp=-1.
 RMSDP=8.05D-05 MaxDP=1.71D-03              OVMax= 4.08D-03

 Cycle   2  Pass 1  IDiag  1:
 RMSU=  5.69D-05    CP:  1.00D+00
 FoFJK:  IHMeth= 1 ICntrl=     0 DoSepK=T KAlg= 1 I1Cent= 0 FoldK=F
 E= -2905.41997055822     Delta-E=       -0.000167098602 Rises=F Damp=F
 DIIS: error= 2.07D-04 at cycle   2 NSaved=   2.
 NSaved= 2 IEnMin= 2 EnMin= -2905.41997055822     IErMin= 2 ErrMin= 2.07D-04
 ErrMax= 2.07D-04 EMaxC= 1.00D-01 BMatC= 7.70D-06 BMatP= 1.05D-03
 IDIUse=3 WtCom= 9.98D-01 WtEn= 2.07D-03
 Coeff-Com: -0.189D-02 0.100D+01
 Coeff-En:   0.000D+00 0.100D+01
 Coeff:     -0.188D-02 0.100D+01
 Gap=     0.401 Goal=   None    Shift=    0.000
 RMSDP=1.96D-05 MaxDP=6.38D-04 DE=-1.67D-04 OVMax= 1.11D-03

 Cycle   3  Pass 1  IDiag  1:
 RMSU=  1.20D-05    CP:  1.00D+00  1.12D+00
 FoFJK:  IHMeth= 1 ICntrl=     0 DoSepK=T KAlg= 1 I1Cent= 0 FoldK=F
 E= -2905.41997603535     Delta-E=       -0.000005477126 Rises=F Damp=F
 DIIS: error= 1.77D-04 at cycle   3 NSaved=   3.
 NSaved= 3 IEnMin= 3 EnMin= -2905.41997603535     IErMin= 3 ErrMin= 1.77D-04
 ErrMax= 1.77D-04 EMaxC= 1.00D-01 BMatC= 4.27D-06 BMatP= 7.70D-06
 IDIUse=3 WtCom= 9.98D-01 WtEn= 1.77D-03
 Coeff-Com: -0.686D-02 0.421D+00 0.586D+00
 Coeff-En:   0.000D+00 0.000D+00 0.100D+01
 Coeff:     -0.685D-02 0.420D+00 0.587D+00
 Gap=     0.401 Goal=   None    Shift=    0.000
 RMSDP=7.63D-06 MaxDP=2.48D-04 DE=-5.48D-06 OVMax= 3.88D-04

 Cycle   4  Pass 1  IDiag  1:
 RMSU=  3.59D-06    CP:  1.00D+00  1.15D+00  6.99D-01
 FoFJK:  IHMeth= 1 ICntrl=     0 DoSepK=T KAlg= 1 I1Cent= 0 FoldK=F
 E= -2905.41997890501     Delta-E=       -0.000002869662 Rises=F Damp=F
 DIIS: error= 2.26D-05 at cycle   4 NSaved=   4.
 NSaved= 4 IEnMin= 4 EnMin= -2905.41997890501     IErMin= 4 ErrMin= 2.26D-05
 ErrMax= 2.26D-05 EMaxC= 1.00D-01 BMatC= 9.56D-08 BMatP= 4.27D-06
 IDIUse=1 WtCom= 1.00D+00 WtEn= 0.00D+00
 Coeff-Com: -0.339D-03-0.553D-01 0.540D-01 0.100D+01
 Coeff:     -0.339D-03-0.553D-01 0.540D-01 0.100D+01
 Gap=     0.401 Goal=   None    Shift=    0.000
 RMSDP=2.36D-06 MaxDP=6.78D-05 DE=-2.87D-06 OVMax= 1.53D-04

 Cycle   5  Pass 1  IDiag  1:
 RMSU=  8.17D-07    CP:  1.00D+00  1.17D+00  7.84D-01  1.20D+00
 FoFJK:  IHMeth= 1 ICntrl=     0 DoSepK=T KAlg= 1 I1Cent= 0 FoldK=F
 E= -2905.41997901962     Delta-E=       -0.000000114609 Rises=F Damp=F
 DIIS: error= 7.34D-06 at cycle   5 NSaved=   5.
 NSaved= 5 IEnMin= 5 EnMin= -2905.41997901962     IErMin= 5 ErrMin= 7.34D-06
 ErrMax= 7.34D-06 EMaxC= 1.00D-01 BMatC= 7.54D-09 BMatP= 9.56D-08
 IDIUse=1 WtCom= 1.00D+00 WtEn= 0.00D+00
 Coeff-Com:  0.267D-03-0.405D-01-0.147D-01 0.288D+00 0.767D+00
 Coeff:      0.267D-03-0.405D-01-0.147D-01 0.288D+00 0.767D+00
 Gap=     0.401 Goal=   None    Shift=    0.000
 RMSDP=5.29D-07 MaxDP=1.30D-05 DE=-1.15D-07 OVMax= 2.82D-05

 Cycle   6  Pass 1  IDiag  1:
 RMSU=  1.97D-07    CP:  1.00D+00  1.17D+00  7.97D-01  1.27D+00  1.03D+00
 FoFJK:  IHMeth= 1 ICntrl=     0 DoSepK=T KAlg= 1 I1Cent= 0 FoldK=F
 E= -2905.41997902768     Delta-E=       -0.000000008067 Rises=F Damp=F
 DIIS: error= 9.25D-07 at cycle   6 NSaved=   6.
 NSaved= 6 IEnMin= 6 EnMin= -2905.41997902768     IErMin= 6 ErrMin= 9.25D-07
 ErrMax= 9.25D-07 EMaxC= 1.00D-01 BMatC= 1.37D-10 BMatP= 7.54D-09
 IDIUse=1 WtCom= 1.00D+00 WtEn= 0.00D+00
 Coeff-Com: -0.151D-04 0.696D-02 0.790D-03-0.753D-01-0.994D-01 0.117D+01
 Coeff:     -0.151D-04 0.696D-02 0.790D-03-0.753D-01-0.994D-01 0.117D+01
 Gap=     0.401 Goal=   None    Shift=    0.000
 RMSDP=1.63D-07 MaxDP=5.10D-06 DE=-8.07D-09 OVMax= 1.10D-05

 Cycle   7  Pass 1  IDiag  1:
 RMSU=  3.90D-08    CP:  1.00D+00  1.17D+00  8.01D-01  1.28D+00  1.12D+00
                    CP:  1.23D+00
 FoFJK:  IHMeth= 1 ICntrl=     0 DoSepK=T KAlg= 1 I1Cent= 0 FoldK=F
 E= -2905.41997902806     Delta-E=       -0.000000000377 Rises=F Damp=F
 DIIS: error= 1.91D-07 at cycle   7 NSaved=   7.
 NSaved= 7 IEnMin= 7 EnMin= -2905.41997902806     IErMin= 7 ErrMin= 1.91D-07
 ErrMax= 1.91D-07 EMaxC= 1.00D-01 BMatC= 1.29D-11 BMatP= 1.37D-10
 IDIUse=1 WtCom= 1.00D+00 WtEn= 0.00D+00
 Coeff-Com: -0.180D-04 0.368D-02 0.999D-03-0.318D-01-0.591D-01 0.270D+00
 Coeff-Com:  0.816D+00
 Coeff:     -0.180D-04 0.368D-02 0.999D-03-0.318D-01-0.591D-01 0.270D+00
 Coeff:      0.816D+00
 Gap=     0.401 Goal=   None    Shift=    0.000
 RMSDP=2.22D-08 MaxDP=7.77D-07 DE=-3.77D-10 OVMax= 1.57D-06

 Cycle   8  Pass 1  IDiag  1:
 RMSU=  1.05D-08    CP:  1.00D+00  1.17D+00  8.01D-01  1.28D+00  1.13D+00
                    CP:  1.27D+00  1.15D+00
 FoFJK:  IHMeth= 1 ICntrl=     0 DoSepK=T KAlg= 1 I1Cent= 0 FoldK=F
 E= -2905.41997902809     Delta-E=       -0.000000000029 Rises=F Damp=F
 DIIS: error= 6.62D-08 at cycle   8 NSaved=   8.
 NSaved= 8 IEnMin= 8 EnMin= -2905.41997902809     IErMin= 8 ErrMin= 6.62D-08
 ErrMax= 6.62D-08 EMaxC= 1.00D-01 BMatC= 6.57D-13 BMatP= 1.29D-11
 IDIUse=1 WtCom= 1.00D+00 WtEn= 0.00D+00
 Coeff-Com:  0.804D-06-0.423D-03-0.643D-04 0.473D-02 0.645D-02-0.809D-01
 Coeff-Com:  0.305D-02 0.107D+01
 Coeff:      0.804D-06-0.423D-03-0.643D-04 0.473D-02 0.645D-02-0.809D-01
 Coeff:      0.305D-02 0.107D+01
 Gap=     0.401 Goal=   None    Shift=    0.000
 RMSDP=1.23D-08 MaxDP=3.27D-07 DE=-2.91D-11 OVMax= 8.68D-07

 Cycle   9  Pass 1  IDiag  1:
 RMSU=  3.02D-09    CP:  1.00D+00  1.17D+00  8.01D-01  1.28D+00  1.13D+00
                    CP:  1.27D+00  1.30D+00  1.27D+00
 FoFJK:  IHMeth= 1 ICntrl=     0 DoSepK=T KAlg= 1 I1Cent= 0 FoldK=F
 E= -2905.41997902809     Delta-E=        0.000000000001 Rises=F Damp=F
 DIIS: error= 2.44D-08 at cycle   9 NSaved=   9.
 NSaved= 9 IEnMin= 8 EnMin= -2905.41997902809     IErMin= 9 ErrMin= 2.44D-08
 ErrMax= 2.44D-08 EMaxC= 1.00D-01 BMatC= 4.68D-14 BMatP= 6.57D-13
 IDIUse=1 WtCom= 1.00D+00 WtEn= 0.00D+00
 Coeff-Com:  0.937D-06-0.212D-03-0.509D-04 0.184D-02 0.343D-02-0.171D-01
 Coeff-Com: -0.572D-01 0.908D-01 0.978D+00
 Coeff:      0.937D-06-0.212D-03-0.509D-04 0.184D-02 0.343D-02-0.171D-01
 Coeff:     -0.572D-01 0.908D-01 0.978D+00
 Gap=     0.401 Goal=   None    Shift=    0.000
 RMSDP=3.14D-09 MaxDP=8.58D-08 DE= 1.36D-12 OVMax= 2.61D-07

 SCF Done:  E(RwB97XD) =  -2905.41997903     A.U. after    9 cycles
             Convg  =    0.3141D-08             -V/T =  2.0015
 KE= 2.900949677356D+03 PE=-7.233718147662D+03 EE= 1.279128579725D+03
 Leave Link  502 at Thu Apr 16 08:56:16 2020, MaxMem= 1073741824 cpu:     144.0
 (Enter /home/matheus/.gaussian/g09/l108.exe)
 Variable Step   Value    
 -------- ---- -----------
     1       2    6.047124
 Leave Link  108 at Thu Apr 16 08:56:16 2020, MaxMem= 1073741824 cpu:       0.0
 (Enter /home/matheus/.gaussian/g09/l202.exe)
 ---------------------------------------------------------------------------------------------------
                            Z-MATRIX (ANGSTROMS AND DEGREES)
   CD    Cent   Atom    N1       Length/X        N2       Alpha/Y        N3        Beta/Z          J
 ---------------------------------------------------------------------------------------------------
      1      1  O        0   0.000000          0.000000          0.725000
      2      2  O        0   0.000000          0.000000         -0.725000
      3      3  H        0   0.000000          0.918721          1.023510
      4      4  H        0   0.000000          0.918721         -1.023510
      5      5  Kr       0   0.000000          3.200000          0.000000
 ---------------------------------------------------------------------------------------------------
                         Z-Matrix orientation:                         
 ---------------------------------------------------------------------
 Center     Atomic      Atomic             Coordinates (Angstroms)
 Number     Number       Type             X           Y           Z
 ---------------------------------------------------------------------
      1          8           0        0.000000    0.000000    0.725000
      2          8           0        0.000000    0.000000   -0.725000
      3          1           0        0.000000    0.918721    1.023510
      4          1           0        0.000000    0.918721   -1.023510
      5         36           0        0.000000    3.200000    0.000000
 ---------------------------------------------------------------------
                    Distance matrix (angstroms):
                    1          2          3          4          5
     1  O    0.000000
     2  O    1.450000   0.000000
     3  H    0.966000   1.975180   0.000000
     4  H    1.975180   0.966000   2.047021   0.000000
     5  Kr   3.281101   3.281101   2.500362   2.500362   0.000000
 Stoichiometry    H2KrO2
 Framework group  C2V[C2(Kr),SGV(H2O2)]
 Deg. of freedom     4
 Full point group                 C2V     NOp   4
 RotChk:  IX=0 Diff= 5.64D-18
 Largest Abelian subgroup         C2V     NOp   4
 Largest concise Abelian subgroup C2      NOp   2
                         Standard orientation:                         
 ---------------------------------------------------------------------
 Center     Atomic      Atomic             Coordinates (Angstroms)
 Number     Number       Type             X           Y           Z
 ---------------------------------------------------------------------
      1          8           0        0.000000    0.725000   -2.167360
      2          8           0        0.000000   -0.725000   -2.167360
      3          1           0        0.000000    1.023510   -1.248639
      4          1           0        0.000000   -1.023510   -1.248639
      5         36           0        0.000000    0.000000    1.032640
 ---------------------------------------------------------------------
 Rotational constants (GHZ):     26.7026195      2.0967103      1.9440611
 Leave Link  202 at Thu Apr 16 08:56:16 2020, MaxMem= 1073741824 cpu:       0.0
 (Enter /home/matheus/.gaussian/g09/l301.exe)
 Standard basis: Aug-CC-pVTZ (5D, 7F)
 Ernie: Thresh=  0.10000D-02 Tol=  0.10000D-05 Strict=F.
 Ernie:  38 primitive shells out of 205 were deleted.
 There are    71 symmetry adapted basis functions of A1  symmetry.
 There are    29 symmetry adapted basis functions of A2  symmetry.
 There are    37 symmetry adapted basis functions of B1  symmetry.
 There are    60 symmetry adapted basis functions of B2  symmetry.
 Integral buffers will be    131072 words long.
 Raffenetti 2 integral format.
 Two-electron integral symmetry is turned on.
   197 basis functions,   415 primitive gaussians,   229 cartesian basis functions
    27 alpha electrons       27 beta electrons
       nuclear repulsion energy       144.8023428067 Hartrees.
 IExCor= 4639 DFT=T Ex+Corr=wB97XD ExCW=0 ScaHFX=  1.000000
 ScaDFX=  1.000000  1.000000  1.000000  1.000000 ScalE2=  1.000000  1.000000
 IRadAn=      5 IRanWt=     -1 IRanGd=            0 ICorTp=0
  HFx wShort=  0.000000 wLong=  0.250000 cFull=  0.222036 cShort=  0.000000 cLong=  0.777964
  DFx wShort=  0.000000 wLong=  0.250000 cFull=  0.000000 cShort=  0.000000 cLong=  1.000000
 NAtoms=    5 NActive=    5 NUniq=    3 SFac= 2.78D+00 NAtFMM=   60 NAOKFM=F Big=F
 R6Disp: Dispersion energy =        -0.0009214169 Hartrees.
 Nuclear repulsion after empirical dispersion term =      144.8014213899 Hartrees.
 Leave Link  301 at Thu Apr 16 08:56:16 2020, MaxMem= 1073741824 cpu:       0.2
 (Enter /home/matheus/.gaussian/g09/l302.exe)
 NPDir=0 NMtPBC=     1 NCelOv=     1 NCel=       1 NClECP=     1 NCelD=      1
         NCelK=      1 NCelE2=     1 NClLst=     1 CellRange=     0.0.
 One-electron integrals computed using PRISM.
 One-electron integral symmetry used in STVInt
 NBasis=   197 RedAO= T  NBF=    71    29    37    60
 NBsUse=   197 1.00D-06 NBFU=    71    29    37    60
 Precomputing XC quadrature grid using
 IXCGrd= 2 IRadAn=           5 IRanWt=          -1 IRanGd=           0 AccXCQ= 0.00D+00.
 NRdTot=     427 NPtTot=      123512 NUsed=      126579 NTot=      126611
 NSgBfM=   229   229   229   229   229 NAtAll=     5     5.
 Leave Link  302 at Thu Apr 16 08:56:16 2020, MaxMem= 1073741824 cpu:       1.2
 (Enter /home/matheus/.gaussian/g09/l303.exe)
 DipDrv:  MaxL=1.
 Leave Link  303 at Thu Apr 16 08:56:16 2020, MaxMem= 1073741824 cpu:       0.2
 (Enter /home/matheus/.gaussian/g09/l401.exe)
 Initial guess read from the read-write file.
 B after Tr=     0.000000    0.000000    0.000000
         Rot=    1.000000    0.000000    0.000000    0.000000 Ang=   0.00 deg.
 Guess basis will be translated and rotated to current coordinates.
 Initial guess orbital symmetries:
       Occupied  (A1) (A1) (A1) (B2) (B1) (A1) (B2) (A1) (A1) (B2)
                 (B1) (A1) (B2) (B1) (A2) (A1) (A1) (A1) (B2) (A1)
                 (A1) (B2) (B1) (B1) (A1) (B2) (A2)
       Virtual   (A1) (B2) (A1) (B2) (B1) (B2) (A1) (A1) (B2) (B1)
                 (A1) (A2) (B2) (A1) (B1) (A1) (A2) (B2) (A1) (A1)
                 (B2) (B1) (A1) (A2) (B2) (B2) (B2) (A1) (B1) (A1)
                 (A1) (B2) (B1) (A1) (B2) (B1) (A2) (A1) (B1) (B2)
                 (A1) (A2) (A1) (A2) (A1) (B2) (B2) (A1) (B1) (B1)
                 (A2) (A1) (B2) (B1) (B2) (A1) (A1) (B1) (B2) (B2)
                 (A2) (A2) (A1) (A1) (B2) (A1) (B2) (B1) (A2) (B1)
                 (A1) (B2) (A2) (A1) (B2) (A1) (B2) (B1) (B2) (A1)
                 (A1) (B1) (A1) (B1) (A2) (A1) (B2) (B1) (B2) (A2)
                 (A1) (A2) (A1) (B2) (A1) (B1) (B2) (A1) (B1) (B1)
                 (B2) (B2) (A1) (A2) (B1) (B2) (A1) (B1) (B2) (A2)
                 (A1) (A2) (B2) (A1) (A1) (B2) (A2) (B2) (B2) (A1)
                 (B2) (B1) (B1) (A1) (B1) (A2) (A2) (A1) (B2) (A2)
                 (A1) (A1) (B2) (A1) (B2) (A1) (B1) (A1) (B2) (A2)
                 (B2) (B2) (A1) (B1) (B2) (A1) (B1) (A1) (A2) (B2)
                 (B1) (A1) (A2) (A1) (B1) (B1) (B2) (A2) (A2) (B2)
                 (A1) (A2) (A1) (B2) (B2) (A1) (B2) (B2) (A1) (B2)
 The electronic state of the initial guess is 1-A1.
 Generating alternative initial guess.
 Harris functional with IExCor= 4639 diagonalized for initial guess.
 ExpMin= 2.53D-02 ExpMax= 1.17D+07 ExpMxC= 1.33D+04 IAcc=3 IRadAn=         5 AccDes= 0.00D+00
 HarFok:  IExCor= 4639 AccDes= 0.00D+00 IRadAn=         5 IDoV= 1
 ScaDFX=  1.000000  1.000000  1.000000  1.000000
 FoFCou: FMM=F IPFlag=           0 FMFlag=      100000 FMFlg1=           0
         NFxFlg=           0 DoJE=T BraDBF=F KetDBF=T FulRan=T
         Omega=  0.000000  0.000000  1.000000  0.000000  0.000000 ICntrl=     500 IOpCl=  0
         NMat0=    1 NMatS0=    1 NMatT0=    0 NMatD0=    1 NMtDS0=    0 NMtDT0=    0
         I1Cent=           4 NGrid=           0.
 Petite list used in FoFCou.
 Harris En= -2875.39441581105    
 Leave Link  401 at Thu Apr 16 08:56:17 2020, MaxMem= 1073741824 cpu:       2.4
 (Enter /home/matheus/.gaussian/g09/l502.exe)
 Closed shell SCF:
 Requested convergence on RMS density matrix=1.00D-08 within 128 cycles.
 Requested convergence on MAX density matrix=1.00D-06.
 Requested convergence on             energy=1.00D-06.
 No special actions if energy rises.
 Using DIIS extrapolation, IDIIS=  1040.
 Integral symmetry usage will be decided dynamically.
       126521 words used for storage of precomputed grid.
 IEnd=      305860 IEndB=      305860 NGot=  1073741824 MDV=  1073505275
 LenX=  1073505275 LenY=  1073452393
 Fock matrices will be formed incrementally for  20 cycles.

 Cycle   1  Pass 1  IDiag  1:
 FoFJK:  IHMeth= 1 ICntrl=     0 DoSepK=T KAlg= 1 I1Cent= 0 FoldK=F
 FoFCou: FMM=F IPFlag=           0 FMFlag=      100000 FMFlg1=           0
         NFxFlg=           0 DoJE=T BraDBF=F KetDBF=F FulRan=T
         Omega=  0.000000  0.000000  1.000000  0.000000  0.000000 ICntrl=     500 IOpCl=  0
         NMat0=    1 NMatS0=    1 NMatT0=    0 NMatD0=    1 NMtDS0=    0 NMtDT0=    0
         I1Cent=           0 NGrid=           0.
 Petite list used in FoFCou.
 E= -2905.42160905005    
 DIIS: error= 2.87D-03 at cycle   1 NSaved=   1.
 NSaved= 1 IEnMin= 1 EnMin= -2905.42160905005     IErMin= 1 ErrMin= 2.87D-03
 ErrMax= 2.87D-03 EMaxC= 1.00D-01 BMatC= 8.46D-04 BMatP= 8.46D-04
 IDIUse=3 WtCom= 9.71D-01 WtEn= 2.87D-02
 Coeff-Com:  0.100D+01
 Coeff-En:   0.100D+01
 Coeff:      0.100D+01
 Gap=     0.405 Goal=   None    Shift=    0.000
 GapD=    0.405 DampG=2.000 DampE=1.000 DampFc=2.0000 IDamp=-1.
 RMSDP=7.74D-05 MaxDP=1.58D-03              OVMax= 3.51D-03

 Cycle   2  Pass 1  IDiag  1:
 RMSU=  5.48D-05    CP:  1.00D+00
 FoFJK:  IHMeth= 1 ICntrl=     0 DoSepK=T KAlg= 1 I1Cent= 0 FoldK=F
 E= -2905.42173743276     Delta-E=       -0.000128382707 Rises=F Damp=F
 DIIS: error= 1.69D-04 at cycle   2 NSaved=   2.
 NSaved= 2 IEnMin= 2 EnMin= -2905.42173743276     IErMin= 2 ErrMin= 1.69D-04
 ErrMax= 1.69D-04 EMaxC= 1.00D-01 BMatC= 4.88D-06 BMatP= 8.46D-04
 IDIUse=3 WtCom= 9.98D-01 WtEn= 1.69D-03
 Coeff-Com: -0.410D-02 0.100D+01
 Coeff-En:   0.000D+00 0.100D+01
 Coeff:     -0.409D-02 0.100D+01
 Gap=     0.401 Goal=   None    Shift=    0.000
 RMSDP=1.68D-05 MaxDP=4.84D-04 DE=-1.28D-04 OVMax= 9.72D-04

 Cycle   3  Pass 1  IDiag  1:
 RMSU=  9.59D-06    CP:  1.00D+00  1.13D+00
 FoFJK:  IHMeth= 1 ICntrl=     0 DoSepK=T KAlg= 1 I1Cent= 0 FoldK=F
 E= -2905.42174151157     Delta-E=       -0.000004078812 Rises=F Damp=F
 DIIS: error= 1.36D-04 at cycle   3 NSaved=   3.
 NSaved= 3 IEnMin= 3 EnMin= -2905.42174151157     IErMin= 3 ErrMin= 1.36D-04
 ErrMax= 1.36D-04 EMaxC= 1.00D-01 BMatC= 2.49D-06 BMatP= 4.88D-06
 IDIUse=3 WtCom= 9.99D-01 WtEn= 1.36D-03
 Coeff-Com: -0.632D-02 0.408D+00 0.599D+00
 Coeff-En:   0.000D+00 0.000D+00 0.100D+01
 Coeff:     -0.631D-02 0.407D+00 0.599D+00
 Gap=     0.402 Goal=   None    Shift=    0.000
 RMSDP=6.10D-06 MaxDP=1.92D-04 DE=-4.08D-06 OVMax= 3.07D-04

 Cycle   4  Pass 1  IDiag  1:
 RMSU=  3.05D-06    CP:  1.00D+00  1.16D+00  7.37D-01
 FoFJK:  IHMeth= 1 ICntrl=     0 DoSepK=T KAlg= 1 I1Cent= 0 FoldK=F
 E= -2905.42174321369     Delta-E=       -0.000001702121 Rises=F Damp=F
 DIIS: error= 2.07D-05 at cycle   4 NSaved=   4.
 NSaved= 4 IEnMin= 4 EnMin= -2905.42174321369     IErMin= 4 ErrMin= 2.07D-05
 ErrMax= 2.07D-05 EMaxC= 1.00D-01 BMatC= 7.77D-08 BMatP= 2.49D-06
 IDIUse=1 WtCom= 1.00D+00 WtEn= 0.00D+00
 Coeff-Com: -0.173D-03-0.646D-01 0.686D-01 0.996D+00
 Coeff:     -0.173D-03-0.646D-01 0.686D-01 0.996D+00
 Gap=     0.402 Goal=   None    Shift=    0.000
 RMSDP=2.22D-06 MaxDP=6.64D-05 DE=-1.70D-06 OVMax= 1.41D-04

 Cycle   5  Pass 1  IDiag  1:
 RMSU=  6.86D-07    CP:  1.00D+00  1.17D+00  8.43D-01  1.19D+00
 FoFJK:  IHMeth= 1 ICntrl=     0 DoSepK=T KAlg= 1 I1Cent= 0 FoldK=F
 E= -2905.42174330529     Delta-E=       -0.000000091599 Rises=F Damp=F
 DIIS: error= 6.44D-06 at cycle   5 NSaved=   5.
 NSaved= 5 IEnMin= 5 EnMin= -2905.42174330529     IErMin= 5 ErrMin= 6.44D-06
 ErrMax= 6.44D-06 EMaxC= 1.00D-01 BMatC= 5.05D-09 BMatP= 7.77D-08
 IDIUse=1 WtCom= 1.00D+00 WtEn= 0.00D+00
 Coeff-Com:  0.265D-03-0.405D-01-0.900D-02 0.279D+00 0.770D+00
 Coeff:      0.265D-03-0.405D-01-0.900D-02 0.279D+00 0.770D+00
 Gap=     0.402 Goal=   None    Shift=    0.000
 RMSDP=4.46D-07 MaxDP=1.14D-05 DE=-9.16D-08 OVMax= 2.48D-05

 Cycle   6  Pass 1  IDiag  1:
 RMSU=  1.57D-07    CP:  1.00D+00  1.18D+00  8.58D-01  1.26D+00  1.03D+00
 FoFJK:  IHMeth= 1 ICntrl=     0 DoSepK=T KAlg= 1 I1Cent= 0 FoldK=F
 E= -2905.42174331102     Delta-E=       -0.000000005737 Rises=F Damp=F
 DIIS: error= 9.30D-07 at cycle   6 NSaved=   6.
 NSaved= 6 IEnMin= 6 EnMin= -2905.42174331102     IErMin= 6 ErrMin= 9.30D-07
 ErrMax= 9.30D-07 EMaxC= 1.00D-01 BMatC= 1.03D-10 BMatP= 5.05D-09
 IDIUse=1 WtCom= 1.00D+00 WtEn= 0.00D+00
 Coeff-Com: -0.251D-04 0.839D-02-0.630D-03-0.843D-01-0.110D+00 0.119D+01
 Coeff:     -0.251D-04 0.839D-02-0.630D-03-0.843D-01-0.110D+00 0.119D+01
 Gap=     0.402 Goal=   None    Shift=    0.000
 RMSDP=1.37D-07 MaxDP=4.72D-06 DE=-5.74D-09 OVMax= 1.03D-05

 Cycle   7  Pass 1  IDiag  1:
 RMSU=  3.34D-08    CP:  1.00D+00  1.18D+00  8.62D-01  1.27D+00  1.12D+00
                    CP:  1.23D+00
 FoFJK:  IHMeth= 1 ICntrl=     0 DoSepK=T KAlg= 1 I1Cent= 0 FoldK=F
 E= -2905.42174331131     Delta-E=       -0.000000000287 Rises=F Damp=F
 DIIS: error= 1.40D-07 at cycle   7 NSaved=   7.
 NSaved= 7 IEnMin= 7 EnMin= -2905.42174331131     IErMin= 7 ErrMin= 1.40D-07
 ErrMax= 1.40D-07 EMaxC= 1.00D-01 BMatC= 7.36D-12 BMatP= 1.03D-10
 IDIUse=1 WtCom= 1.00D+00 WtEn= 0.00D+00
 Coeff-Com: -0.168D-04 0.345D-02 0.264D-03-0.293D-01-0.521D-01 0.257D+00
 Coeff-Com:  0.820D+00
 Coeff:     -0.168D-04 0.345D-02 0.264D-03-0.293D-01-0.521D-01 0.257D+00
 Coeff:      0.820D+00
 Gap=     0.402 Goal=   None    Shift=    0.000
 RMSDP=1.72D-08 MaxDP=5.49D-07 DE=-2.87D-10 OVMax= 1.17D-06

 Cycle   8  Pass 1  IDiag  1:
 RMSU=  8.28D-09    CP:  1.00D+00  1.18D+00  8.63D-01  1.27D+00  1.12D+00
                    CP:  1.26D+00  1.17D+00
 FoFJK:  IHMeth= 1 ICntrl=     0 DoSepK=T KAlg= 1 I1Cent= 0 FoldK=F
 E= -2905.42174331131     Delta-E=       -0.000000000002 Rises=F Damp=F
 DIIS: error= 5.07D-08 at cycle   8 NSaved=   8.
 NSaved= 8 IEnMin= 8 EnMin= -2905.42174331131     IErMin= 8 ErrMin= 5.07D-08
 ErrMax= 5.07D-08 EMaxC= 1.00D-01 BMatC= 4.36D-13 BMatP= 7.36D-12
 IDIUse=1 WtCom= 1.00D+00 WtEn= 0.00D+00
 Coeff-Com:  0.118D-05-0.472D-03 0.293D-04 0.501D-02 0.612D-02-0.805D-01
 Coeff-Com:  0.299D-01 0.104D+01
 Coeff:      0.118D-05-0.472D-03 0.293D-04 0.501D-02 0.612D-02-0.805D-01
 Coeff:      0.299D-01 0.104D+01
 Gap=     0.402 Goal=   None    Shift=    0.000
 RMSDP=1.01D-08 MaxDP=2.84D-07 DE=-2.27D-12 OVMax= 6.25D-07

 Cycle   9  Pass 1  IDiag  1:
 RMSU=  2.41D-09    CP:  1.00D+00  1.18D+00  8.63D-01  1.27D+00  1.12D+00
                    CP:  1.26D+00  1.31D+00  1.24D+00
 FoFJK:  IHMeth= 1 ICntrl=     0 DoSepK=T KAlg= 1 I1Cent= 0 FoldK=F
 E= -2905.42174331132     Delta-E=       -0.000000000009 Rises=F Damp=F
 DIIS: error= 1.97D-08 at cycle   9 NSaved=   9.
 NSaved= 9 IEnMin= 9 EnMin= -2905.42174331132     IErMin= 9 ErrMin= 1.97D-08
 ErrMax= 1.97D-08 EMaxC= 1.00D-01 BMatC= 2.99D-14 BMatP= 4.36D-13
 IDIUse=1 WtCom= 1.00D+00 WtEn= 0.00D+00
 Coeff-Com:  0.868D-06-0.198D-03-0.966D-05 0.170D-02 0.301D-02-0.169D-01
 Coeff-Com: -0.533D-01 0.101D+00 0.965D+00
 Coeff:      0.868D-06-0.198D-03-0.966D-05 0.170D-02 0.301D-02-0.169D-01
 Coeff:     -0.533D-01 0.101D+00 0.965D+00
 Gap=     0.402 Goal=   None    Shift=    0.000
 RMSDP=2.36D-09 MaxDP=6.38D-08 DE=-8.64D-12 OVMax= 1.96D-07

 SCF Done:  E(RwB97XD) =  -2905.42174331     A.U. after    9 cycles
             Convg  =    0.2356D-08             -V/T =  2.0015
 KE= 2.900937976884D+03 PE=-7.226927429914D+03 EE= 1.275766288329D+03
 Leave Link  502 at Thu Apr 16 08:56:34 2020, MaxMem= 1073741824 cpu:     137.4
 (Enter /home/matheus/.gaussian/g09/l108.exe)
 Variable Step   Value    
 -------- ---- -----------
     1       3    6.236096
 Leave Link  108 at Thu Apr 16 08:56:34 2020, MaxMem= 1073741824 cpu:       0.0
 (Enter /home/matheus/.gaussian/g09/l202.exe)
 ---------------------------------------------------------------------------------------------------
                            Z-MATRIX (ANGSTROMS AND DEGREES)
   CD    Cent   Atom    N1       Length/X        N2       Alpha/Y        N3        Beta/Z          J
 ---------------------------------------------------------------------------------------------------
      1      1  O        0   0.000000          0.000000          0.725000
      2      2  O        0   0.000000          0.000000         -0.725000
      3      3  H        0   0.000000          0.918721          1.023510
      4      4  H        0   0.000000          0.918721         -1.023510
      5      5  Kr       0   0.000000          3.300000          0.000000
 ---------------------------------------------------------------------------------------------------
                         Z-Matrix orientation:                         
 ---------------------------------------------------------------------
 Center     Atomic      Atomic             Coordinates (Angstroms)
 Number     Number       Type             X           Y           Z
 ---------------------------------------------------------------------
      1          8           0        0.000000    0.000000    0.725000
      2          8           0        0.000000    0.000000   -0.725000
      3          1           0        0.000000    0.918721    1.023510
      4          1           0        0.000000    0.918721   -1.023510
      5         36           0        0.000000    3.300000    0.000000
 ---------------------------------------------------------------------
                    Distance matrix (angstroms):
                    1          2          3          4          5
     1  O    0.000000
     2  O    1.450000   0.000000
     3  H    0.966000   1.975180   0.000000
     4  H    1.975180   0.966000   2.047021   0.000000
     5  Kr   3.378702   3.378702   2.591923   2.591923   0.000000
 Stoichiometry    H2KrO2
 Framework group  C2V[C2(Kr),SGV(H2O2)]
 Deg. of freedom     4
 Full point group                 C2V     NOp   4
 RotChk:  IX=0 Diff= 5.64D-18
 Largest Abelian subgroup         C2V     NOp   4
 Largest concise Abelian subgroup C2      NOp   2
                         Standard orientation:                         
 ---------------------------------------------------------------------
 Center     Atomic      Atomic             Coordinates (Angstroms)
 Number     Number       Type             X           Y           Z
 ---------------------------------------------------------------------
      1          8           0        0.000000    0.725000   -2.234027
      2          8           0        0.000000   -0.725000   -2.234027
      3          1           0        0.000000    1.023510   -1.315306
      4          1           0        0.000000   -1.023510   -1.315306
      5         36           0        0.000000    0.000000    1.065973
 ---------------------------------------------------------------------
 Rotational constants (GHZ):     26.7026195      1.9702891      1.8348986
 Leave Link  202 at Thu Apr 16 08:56:34 2020, MaxMem= 1073741824 cpu:       0.0
 (Enter /home/matheus/.gaussian/g09/l301.exe)
 Standard basis: Aug-CC-pVTZ (5D, 7F)
 Ernie: Thresh=  0.10000D-02 Tol=  0.10000D-05 Strict=F.
 Ernie:  38 primitive shells out of 205 were deleted.
 There are    71 symmetry adapted basis functions of A1  symmetry.
 There are    29 symmetry adapted basis functions of A2  symmetry.
 There are    37 symmetry adapted basis functions of B1  symmetry.
 There are    60 symmetry adapted basis functions of B2  symmetry.
 Integral buffers will be    131072 words long.
 Raffenetti 2 integral format.
 Two-electron integral symmetry is turned on.
   197 basis functions,   415 primitive gaussians,   229 cartesian basis functions
    27 alpha electrons       27 beta electrons
       nuclear repulsion energy       141.5805199045 Hartrees.
 IExCor= 4639 DFT=T Ex+Corr=wB97XD ExCW=0 ScaHFX=  1.000000
 ScaDFX=  1.000000  1.000000  1.000000  1.000000 ScalE2=  1.000000  1.000000
 IRadAn=      5 IRanWt=     -1 IRanGd=            0 ICorTp=0
  HFx wShort=  0.000000 wLong=  0.250000 cFull=  0.222036 cShort=  0.000000 cLong=  0.777964
  DFx wShort=  0.000000 wLong=  0.250000 cFull=  0.000000 cShort=  0.000000 cLong=  1.000000
 NAtoms=    5 NActive=    5 NUniq=    3 SFac= 2.78D+00 NAtFMM=   60 NAOKFM=F Big=F
 R6Disp: Dispersion energy =        -0.0010008493 Hartrees.
 Nuclear repulsion after empirical dispersion term =      141.5795190553 Hartrees.
 Leave Link  301 at Thu Apr 16 08:56:34 2020, MaxMem= 1073741824 cpu:       0.3
 (Enter /home/matheus/.gaussian/g09/l302.exe)
 NPDir=0 NMtPBC=     1 NCelOv=     1 NCel=       1 NClECP=     1 NCelD=      1
         NCelK=      1 NCelE2=     1 NClLst=     1 CellRange=     0.0.
 One-electron integrals computed using PRISM.
 One-electron integral symmetry used in STVInt
 NBasis=   197 RedAO= T  NBF=    71    29    37    60
 NBsUse=   197 1.00D-06 NBFU=    71    29    37    60
 Precomputing XC quadrature grid using
 IXCGrd= 2 IRadAn=           5 IRanWt=          -1 IRanGd=           0 AccXCQ= 0.00D+00.
 NRdTot=     427 NPtTot=      123512 NUsed=      126579 NTot=      126611
 NSgBfM=   229   229   229   229   229 NAtAll=     5     5.
 Leave Link  302 at Thu Apr 16 08:56:34 2020, MaxMem= 1073741824 cpu:       1.3
 (Enter /home/matheus/.gaussian/g09/l303.exe)
 DipDrv:  MaxL=1.
 Leave Link  303 at Thu Apr 16 08:56:34 2020, MaxMem= 1073741824 cpu:       0.2
 (Enter /home/matheus/.gaussian/g09/l401.exe)
 Initial guess read from the read-write file.
 B after Tr=     0.000000    0.000000    0.000000
         Rot=    1.000000    0.000000    0.000000    0.000000 Ang=   0.00 deg.
 Guess basis will be translated and rotated to current coordinates.
 Initial guess orbital symmetries:
       Occupied  (A1) (A1) (A1) (B2) (B1) (A1) (B2) (A1) (A1) (B2)
                 (B1) (A1) (B2) (B1) (A2) (A1) (A1) (A1) (B2) (A1)
                 (A1) (B2) (B1) (A1) (B1) (B2) (A2)
       Virtual   (A1) (B2) (A1) (B2) (B1) (B2) (A1) (A1) (B2) (B1)
                 (A1) (A2) (B2) (A1) (B1) (A1) (A2) (B2) (A1) (A1)
                 (B2) (B1) (A2) (A1) (B2) (B2) (B2) (A1) (B1) (A1)
                 (A1) (B2) (B1) (A1) (B2) (B1) (A1) (A2) (B1) (B2)
                 (A1) (A2) (A1) (A2) (A1) (B2) (B2) (B1) (A1) (B1)
                 (A2) (A1) (B1) (B2) (B2) (A1) (B1) (A1) (B2) (B2)
                 (A2) (A2) (A1) (A1) (B2) (A1) (B2) (B1) (A2) (B1)
                 (A1) (B2) (A2) (B2) (A1) (A1) (B2) (B1) (A1) (B2)
                 (A1) (B1) (A1) (A2) (B1) (B2) (A1) (B1) (B2) (A2)
                 (A1) (A2) (A1) (B2) (A1) (B1) (B2) (A1) (B1) (B1)
                 (B2) (B2) (A1) (A2) (A1) (B2) (B1) (B1) (B2) (A1)
                 (A2) (A2) (B2) (A1) (A1) (B2) (A2) (B2) (B2) (A1)
                 (B2) (B1) (B1) (A1) (A2) (B1) (A2) (A1) (B2) (A1)
                 (A2) (A1) (B2) (A1) (B2) (A1) (B1) (A1) (B2) (A2)
                 (B2) (B2) (A1) (B1) (B2) (A1) (B1) (A1) (A2) (B2)
                 (B1) (A1) (A2) (A1) (B1) (B2) (B1) (A2) (A2) (A1)
                 (B2) (A2) (A1) (B2) (B2) (A1) (B2) (B2) (A1) (B2)
 The electronic state of the initial guess is 1-A1.
 Generating alternative initial guess.
 Harris functional with IExCor= 4639 diagonalized for initial guess.
 ExpMin= 2.53D-02 ExpMax= 1.17D+07 ExpMxC= 1.33D+04 IAcc=3 IRadAn=         5 AccDes= 0.00D+00
 HarFok:  IExCor= 4639 AccDes= 0.00D+00 IRadAn=         5 IDoV= 1
 ScaDFX=  1.000000  1.000000  1.000000  1.000000
 FoFCou: FMM=F IPFlag=           0 FMFlag=      100000 FMFlg1=           0
         NFxFlg=           0 DoJE=T BraDBF=F KetDBF=T FulRan=T
         Omega=  0.000000  0.000000  1.000000  0.000000  0.000000 ICntrl=     500 IOpCl=  0
         NMat0=    1 NMatS0=    1 NMatT0=    0 NMatD0=    1 NMtDS0=    0 NMtDT0=    0
         I1Cent=           4 NGrid=           0.
 Petite list used in FoFCou.
 Harris En= -2875.39713048156    
 Leave Link  401 at Thu Apr 16 08:56:34 2020, MaxMem= 1073741824 cpu:       2.5
 (Enter /home/matheus/.gaussian/g09/l502.exe)
 Closed shell SCF:
 Requested convergence on RMS density matrix=1.00D-08 within 128 cycles.
 Requested convergence on MAX density matrix=1.00D-06.
 Requested convergence on             energy=1.00D-06.
 No special actions if energy rises.
 Using DIIS extrapolation, IDIIS=  1040.
 Integral symmetry usage will be decided dynamically.
       126521 words used for storage of precomputed grid.
 IEnd=      305860 IEndB=      305860 NGot=  1073741824 MDV=  1073505275
 LenX=  1073505275 LenY=  1073452393
 Fock matrices will be formed incrementally for  20 cycles.

 Cycle   1  Pass 1  IDiag  1:
 FoFJK:  IHMeth= 1 ICntrl=     0 DoSepK=T KAlg= 1 I1Cent= 0 FoldK=F
 FoFCou: FMM=F IPFlag=           0 FMFlag=      100000 FMFlg1=           0
         NFxFlg=           0 DoJE=T BraDBF=F KetDBF=F FulRan=T
         Omega=  0.000000  0.000000  1.000000  0.000000  0.000000 ICntrl=     500 IOpCl=  0
         NMat0=    1 NMatS0=    1 NMatT0=    0 NMatD0=    1 NMtDS0=    0 NMtDT0=    0
         I1Cent=           0 NGrid=           0.
 Petite list used in FoFCou.
 E= -2905.42278053099    
 DIIS: error= 2.36D-03 at cycle   1 NSaved=   1.
 NSaved= 1 IEnMin= 1 EnMin= -2905.42278053099     IErMin= 1 ErrMin= 2.36D-03
 ErrMax= 2.36D-03 EMaxC= 1.00D-01 BMatC= 6.59D-04 BMatP= 6.59D-04
 IDIUse=3 WtCom= 9.76D-01 WtEn= 2.36D-02
 Coeff-Com:  0.100D+01
 Coeff-En:   0.100D+01
 Coeff:      0.100D+01
 Gap=     0.406 Goal=   None    Shift=    0.000
 GapD=    0.406 DampG=2.000 DampE=1.000 DampFc=2.0000 IDamp=-1.
 RMSDP=7.27D-05 MaxDP=1.65D-03              OVMax= 3.31D-03

 Cycle   2  Pass 1  IDiag  1:
 RMSU=  5.14D-05    CP:  1.00D+00
 FoFJK:  IHMeth= 1 ICntrl=     0 DoSepK=T KAlg= 1 I1Cent= 0 FoldK=F
 E= -2905.42287967757     Delta-E=       -0.000099146572 Rises=F Damp=F
 DIIS: error= 1.38D-04 at cycle   2 NSaved=   2.
 NSaved= 2 IEnMin= 2 EnMin= -2905.42287967757     IErMin= 2 ErrMin= 1.38D-04
 ErrMax= 1.38D-04 EMaxC= 1.00D-01 BMatC= 3.20D-06 BMatP= 6.59D-04
 IDIUse=3 WtCom= 9.99D-01 WtEn= 1.38D-03
 Coeff-Com: -0.565D-02 0.101D+01
 Coeff-En:   0.000D+00 0.100D+01
 Coeff:     -0.564D-02 0.101D+01
 Gap=     0.402 Goal=   None    Shift=    0.000
 RMSDP=1.46D-05 MaxDP=3.95D-04 DE=-9.91D-05 OVMax= 8.69D-04

 Cycle   3  Pass 1  IDiag  1:
 RMSU=  7.73D-06    CP:  1.00D+00  1.13D+00
 FoFJK:  IHMeth= 1 ICntrl=     0 DoSepK=T KAlg= 1 I1Cent= 0 FoldK=F
 E= -2905.42288276595     Delta-E=       -0.000003088385 Rises=F Damp=F
 DIIS: error= 1.05D-04 at cycle   3 NSaved=   3.
 NSaved= 3 IEnMin= 3 EnMin= -2905.42288276595     IErMin= 3 ErrMin= 1.05D-04
 ErrMax= 1.05D-04 EMaxC= 1.00D-01 BMatC= 1.49D-06 BMatP= 3.20D-06
 IDIUse=3 WtCom= 9.99D-01 WtEn= 1.05D-03
 Coeff-Com: -0.603D-02 0.392D+00 0.614D+00
 Coeff-En:   0.000D+00 0.000D+00 0.100D+01
 Coeff:     -0.602D-02 0.391D+00 0.615D+00
 Gap=     0.402 Goal=   None    Shift=    0.000
 RMSDP=4.95D-06 MaxDP=1.50D-04 DE=-3.09D-06 OVMax= 2.47D-04

 Cycle   4  Pass 1  IDiag  1:
 RMSU=  2.72D-06    CP:  1.00D+00  1.16D+00  7.80D-01
 FoFJK:  IHMeth= 1 ICntrl=     0 DoSepK=T KAlg= 1 I1Cent= 0 FoldK=F
 E= -2905.42288380103     Delta-E=       -0.000001035075 Rises=F Damp=F
 DIIS: error= 1.91D-05 at cycle   4 NSaved=   4.
 NSaved= 4 IEnMin= 4 EnMin= -2905.42288380103     IErMin= 4 ErrMin= 1.91D-05
 ErrMax= 1.91D-05 EMaxC= 1.00D-01 BMatC= 6.36D-08 BMatP= 1.49D-06
 IDIUse=1 WtCom= 1.00D+00 WtEn= 0.00D+00
 Coeff-Com: -0.812D-04-0.704D-01 0.886D-01 0.982D+00
 Coeff:     -0.812D-04-0.704D-01 0.886D-01 0.982D+00
 Gap=     0.402 Goal=   None    Shift=    0.000
 RMSDP=2.02D-06 MaxDP=5.97D-05 DE=-1.04D-06 OVMax= 1.28D-04

 Cycle   5  Pass 1  IDiag  1:
 RMSU=  5.77D-07    CP:  1.00D+00  1.17D+00  9.06D-01  1.18D+00
 FoFJK:  IHMeth= 1 ICntrl=     0 DoSepK=T KAlg= 1 I1Cent= 0 FoldK=F
 E= -2905.42288387377     Delta-E=       -0.000000072745 Rises=F Damp=F
 DIIS: error= 5.68D-06 at cycle   5 NSaved=   5.
 NSaved= 5 IEnMin= 5 EnMin= -2905.42288387377     IErMin= 5 ErrMin= 5.68D-06
 ErrMax= 5.68D-06 EMaxC= 1.00D-01 BMatC= 3.48D-09 BMatP= 6.36D-08
 IDIUse=1 WtCom= 1.00D+00 WtEn= 0.00D+00
 Coeff-Com:  0.267D-03-0.400D-01-0.318D-02 0.268D+00 0.775D+00
 Coeff:      0.267D-03-0.400D-01-0.318D-02 0.268D+00 0.775D+00
 Gap=     0.402 Goal=   None    Shift=    0.000
 RMSDP=3.81D-07 MaxDP=9.74D-06 DE=-7.27D-08 OVMax= 2.25D-05

 Cycle   6  Pass 1  IDiag  1:
 RMSU=  1.26D-07    CP:  1.00D+00  1.18D+00  9.24D-01  1.24D+00  1.03D+00
 FoFJK:  IHMeth= 1 ICntrl=     0 DoSepK=T KAlg= 1 I1Cent= 0 FoldK=F
 E= -2905.42288387793     Delta-E=       -0.000000004159 Rises=F Damp=F
 DIIS: error= 8.84D-07 at cycle   6 NSaved=   6.
 NSaved= 6 IEnMin= 6 EnMin= -2905.42288387793     IErMin= 6 ErrMin= 8.84D-07
 ErrMax= 8.84D-07 EMaxC= 1.00D-01 BMatC= 7.84D-11 BMatP= 3.48D-09
 IDIUse=1 WtCom= 1.00D+00 WtEn= 0.00D+00
 Coeff-Com: -0.351D-04 0.983D-02-0.261D-02-0.929D-01-0.124D+00 0.121D+01
 Coeff:     -0.351D-04 0.983D-02-0.261D-02-0.929D-01-0.124D+00 0.121D+01
 Gap=     0.402 Goal=   None    Shift=    0.000
 RMSDP=1.19D-07 MaxDP=4.37D-06 DE=-4.16D-09 OVMax= 9.68D-06

 Cycle   7  Pass 1  IDiag  1:
 RMSU=  2.90D-08    CP:  1.00D+00  1.18D+00  9.29D-01  1.26D+00  1.11D+00
                    CP:  1.25D+00
 FoFJK:  IHMeth= 1 ICntrl=     0 DoSepK=T KAlg= 1 I1Cent= 0 FoldK=F
 E= -2905.42288387816     Delta-E=       -0.000000000227 Rises=F Damp=F
 DIIS: error= 8.97D-08 at cycle   7 NSaved=   7.
 NSaved= 7 IEnMin= 7 EnMin= -2905.42288387816     IErMin= 7 ErrMin= 8.97D-08
 ErrMax= 8.97D-08 EMaxC= 1.00D-01 BMatC= 3.36D-12 BMatP= 7.84D-11
 IDIUse=1 WtCom= 1.00D+00 WtEn= 0.00D+00
 Coeff-Com: -0.140D-04 0.280D-02-0.339D-03-0.230D-01-0.409D-01 0.202D+00
 Coeff-Com:  0.860D+00
 Coeff:     -0.140D-04 0.280D-02-0.339D-03-0.230D-01-0.409D-01 0.202D+00
 Coeff:      0.860D+00
 Gap=     0.402 Goal=   None    Shift=    0.000
 RMSDP=1.47D-08 MaxDP=4.16D-07 DE=-2.27D-10 OVMax= 8.73D-07

 Cycle   8  Pass 1  IDiag  1:
 RMSU=  6.00D-09    CP:  1.00D+00  1.18D+00  9.29D-01  1.25D+00  1.11D+00
                    CP:  1.28D+00  1.20D+00
 FoFJK:  IHMeth= 1 ICntrl=     0 DoSepK=T KAlg= 1 I1Cent= 0 FoldK=F
 E= -2905.42288387817     Delta-E=       -0.000000000007 Rises=F Damp=F
 DIIS: error= 3.82D-08 at cycle   8 NSaved=   8.
 NSaved= 8 IEnMin= 8 EnMin= -2905.42288387817     IErMin= 8 ErrMin= 3.82D-08
 ErrMax= 3.82D-08 EMaxC= 1.00D-01 BMatC= 2.70D-13 BMatP= 3.36D-12
 IDIUse=1 WtCom= 1.00D+00 WtEn= 0.00D+00
 Coeff-Com:  0.153D-05-0.515D-03 0.140D-03 0.521D-02 0.600D-02-0.792D-01
 Coeff-Com:  0.720D-01 0.996D+00
 Coeff:      0.153D-05-0.515D-03 0.140D-03 0.521D-02 0.600D-02-0.792D-01
 Coeff:      0.720D-01 0.996D+00
 Gap=     0.402 Goal=   None    Shift=    0.000
 RMSDP=8.02D-09 MaxDP=2.26D-07 DE=-7.28D-12 OVMax= 4.28D-07

 SCF Done:  E(RwB97XD) =  -2905.42288388     A.U. after    8 cycles
             Convg  =    0.8019D-08             -V/T =  2.0015
 KE= 2.900930992138D+03 PE=-7.220533023419D+03 EE= 1.272599628348D+03
 Leave Link  502 at Thu Apr 16 08:56:50 2020, MaxMem= 1073741824 cpu:     124.9
 (Enter /home/matheus/.gaussian/g09/l108.exe)
 Variable Step   Value    
 -------- ---- -----------
     1       4    6.425069
 Leave Link  108 at Thu Apr 16 08:56:50 2020, MaxMem= 1073741824 cpu:       0.0
 (Enter /home/matheus/.gaussian/g09/l202.exe)
 ---------------------------------------------------------------------------------------------------
                            Z-MATRIX (ANGSTROMS AND DEGREES)
   CD    Cent   Atom    N1       Length/X        N2       Alpha/Y        N3        Beta/Z          J
 ---------------------------------------------------------------------------------------------------
      1      1  O        0   0.000000          0.000000          0.725000
      2      2  O        0   0.000000          0.000000         -0.725000
      3      3  H        0   0.000000          0.918721          1.023510
      4      4  H        0   0.000000          0.918721         -1.023510
      5      5  Kr       0   0.000000          3.400000          0.000000
 ---------------------------------------------------------------------------------------------------
                         Z-Matrix orientation:                         
 ---------------------------------------------------------------------
[...]
 ErrMax= 1.22D-05 EMaxC= 1.00D-01 BMatC= 1.04D-08 BMatP= 6.07D-08
 IDIUse=1 WtCom= 1.00D+00 WtEn= 0.00D+00
 Coeff-Com: -0.749D-02 0.264D+00 0.743D+00
 Coeff:     -0.749D-02 0.264D+00 0.743D+00
 Gap=     0.399 Goal=   None    Shift=    0.000
 RMSDP=3.96D-07 MaxDP=1.45D-05 DE=-6.83D-08 OVMax= 4.67D-05

 Cycle   4  Pass 1  IDiag  1:
 RMSU=  2.59D-07    CP:  1.00D+00  1.09D+00  9.93D-01
 FoFJK:  IHMeth= 1 ICntrl=     0 DoSepK=T KAlg= 1 I1Cent= 0 FoldK=F
 E= -2905.42292377880     Delta-E=       -0.000000010525 Rises=F Damp=F
 DIIS: error= 1.39D-06 at cycle   4 NSaved=   4.
 NSaved= 4 IEnMin= 4 EnMin= -2905.42292377880     IErMin= 4 ErrMin= 1.39D-06
 ErrMax= 1.39D-06 EMaxC= 1.00D-01 BMatC= 3.48D-10 BMatP= 1.04D-08
 IDIUse=1 WtCom= 1.00D+00 WtEn= 0.00D+00
 Coeff-Com: -0.138D-03-0.522D-01-0.205D-01 0.107D+01
 Coeff:     -0.138D-03-0.522D-01-0.205D-01 0.107D+01
 Gap=     0.399 Goal=   None    Shift=    0.000
 RMSDP=2.32D-07 MaxDP=1.12D-05 DE=-1.05D-08 OVMax= 2.01D-05

 Cycle   5  Pass 1  IDiag  1:
 RMSU=  7.34D-08    CP:  1.00D+00  1.09D+00  1.10D+00  1.34D+00
 FoFJK:  IHMeth= 1 ICntrl=     0 DoSepK=T KAlg= 1 I1Cent= 0 FoldK=F
 E= -2905.42292377953     Delta-E=       -0.000000000731 Rises=F Damp=F
 DIIS: error= 9.96D-07 at cycle   5 NSaved=   5.
 NSaved= 5 IEnMin= 5 EnMin= -2905.42292377953     IErMin= 5 ErrMin= 9.96D-07
 ErrMax= 9.96D-07 EMaxC= 1.00D-01 BMatC= 1.17D-10 BMatP= 3.48D-10
 IDIUse=1 WtCom= 1.00D+00 WtEn= 0.00D+00
 Coeff-Com:  0.564D-03-0.440D-01-0.710D-01 0.456D+00 0.658D+00
 Coeff:      0.564D-03-0.440D-01-0.710D-01 0.456D+00 0.658D+00
 Gap=     0.399 Goal=   None    Shift=    0.000
 RMSDP=5.23D-08 MaxDP=2.64D-06 DE=-7.31D-10 OVMax= 4.40D-06

 Cycle   6  Pass 1  IDiag  1:
 RMSU=  2.39D-08    CP:  1.00D+00  1.09D+00  1.12D+00  1.42D+00  9.09D-01
 FoFJK:  IHMeth= 1 ICntrl=     0 DoSepK=T KAlg= 1 I1Cent= 0 FoldK=F
 E= -2905.42292377963     Delta-E=       -0.000000000099 Rises=F Damp=F
 DIIS: error= 1.34D-07 at cycle   6 NSaved=   6.
 NSaved= 6 IEnMin= 6 EnMin= -2905.42292377963     IErMin= 6 ErrMin= 1.34D-07
 ErrMax= 1.34D-07 EMaxC= 1.00D-01 BMatC= 2.19D-12 BMatP= 1.17D-10
 IDIUse=1 WtCom= 1.00D+00 WtEn= 0.00D+00
 Coeff-Com:  0.203D-04 0.456D-02 0.394D-03-0.867D-01 0.719D-02 0.107D+01
 Coeff:      0.203D-04 0.456D-02 0.394D-03-0.867D-01 0.719D-02 0.107D+01
 Gap=     0.399 Goal=   None    Shift=    0.000
 RMSDP=2.18D-08 MaxDP=1.15D-06 DE=-9.91D-11 OVMax= 1.85D-06

 Cycle   7  Pass 1  IDiag  1:
 RMSU=  4.02D-09    CP:  1.00D+00  1.09D+00  1.12D+00  1.45D+00  1.01D+00
                    CP:  1.26D+00
 FoFJK:  IHMeth= 1 ICntrl=     0 DoSepK=T KAlg= 1 I1Cent= 0 FoldK=F
 E= -2905.42292377963     Delta-E=       -0.000000000002 Rises=F Damp=F
 DIIS: error= 2.84D-08 at cycle   7 NSaved=   7.
 NSaved= 7 IEnMin= 7 EnMin= -2905.42292377963     IErMin= 7 ErrMin= 2.84D-08
 ErrMax= 2.84D-08 EMaxC= 1.00D-01 BMatC= 1.30D-13 BMatP= 2.19D-12
 IDIUse=1 WtCom= 1.00D+00 WtEn= 0.00D+00
 Coeff-Com: -0.198D-04 0.311D-02 0.301D-02-0.419D-01-0.260D-01 0.274D+00
 Coeff-Com:  0.788D+00
 Coeff:     -0.198D-04 0.311D-02 0.301D-02-0.419D-01-0.260D-01 0.274D+00
 Coeff:      0.788D+00
 Gap=     0.399 Goal=   None    Shift=    0.000
 RMSDP=2.75D-09 MaxDP=1.55D-07 DE=-2.27D-12 OVMax= 2.30D-07

 SCF Done:  E(RwB97XD) =  -2905.42292378     A.U. after    7 cycles
             Convg  =    0.2749D-08             -V/T =  2.0015
 KE= 2.900949522697D+03 PE=-7.152974547673D+03 EE= 1.239131910885D+03
 Leave Link  502 at Thu Apr 16 09:00:39 2020, MaxMem= 1073741824 cpu:     100.1
 (Enter /home/matheus/.gaussian/g09/l108.exe)
 Variable Step   Value    
 -------- ---- -----------
     1      20    9.448631
 Leave Link  108 at Thu Apr 16 09:00:39 2020, MaxMem= 1073741824 cpu:       0.0
 (Enter /home/matheus/.gaussian/g09/l202.exe)
 ---------------------------------------------------------------------------------------------------
                            Z-MATRIX (ANGSTROMS AND DEGREES)
   CD    Cent   Atom    N1       Length/X        N2       Alpha/Y        N3        Beta/Z          J
 ---------------------------------------------------------------------------------------------------
      1      1  O        0   0.000000          0.000000          0.725000
      2      2  O        0   0.000000          0.000000         -0.725000
      3      3  H        0   0.000000          0.918721          1.023510
      4      4  H        0   0.000000          0.918721         -1.023510
      5      5  Kr       0   0.000000          5.000000          0.000000
 ---------------------------------------------------------------------------------------------------
                         Z-Matrix orientation:                         
 ---------------------------------------------------------------------
 Center     Atomic      Atomic             Coordinates (Angstroms)
 Number     Number       Type             X           Y           Z
 ---------------------------------------------------------------------
      1          8           0        0.000000    0.000000    0.725000
      2          8           0        0.000000    0.000000   -0.725000
      3          1           0        0.000000    0.918721    1.023510
      4          1           0        0.000000    0.918721   -1.023510
      5         36           0        0.000000    5.000000    0.000000
 ---------------------------------------------------------------------
                    Distance matrix (angstroms):
                    1          2          3          4          5
     1  O    0.000000
     2  O    1.450000   0.000000
     3  H    0.966000   1.975180   0.000000
     4  H    1.975180   0.966000   2.047021   0.000000
     5  Kr   5.052289   5.052289   4.207661   4.207661   0.000000
 Stoichiometry    H2KrO2
 Framework group  C2V[C2(Kr),SGV(H2O2)]
 Deg. of freedom     4
 Full point group                 C2V     NOp   4
 RotChk:  IX=0 Diff= 5.64D-18
 Largest Abelian subgroup         C2V     NOp   4
 Largest concise Abelian subgroup C2      NOp   2
                         Standard orientation:                         
 ---------------------------------------------------------------------
 Center     Atomic      Atomic             Coordinates (Angstroms)
 Number     Number       Type             X           Y           Z
 ---------------------------------------------------------------------
      1          8           0        0.000000    0.725000   -3.367360
      2          8           0        0.000000   -0.725000   -3.367360
      3          1           0        0.000000    1.023510   -2.448639
      4          1           0        0.000000   -1.023510   -2.448639
      5         36           0        0.000000    0.000000    1.632640
 ---------------------------------------------------------------------
 Rotational constants (GHZ):     26.7026195      0.8515738      0.8252556
 Leave Link  202 at Thu Apr 16 09:00:39 2020, MaxMem= 1073741824 cpu:       0.0
 (Enter /home/matheus/.gaussian/g09/l301.exe)
 Standard basis: Aug-CC-pVTZ (5D, 7F)
 Ernie: Thresh=  0.10000D-02 Tol=  0.10000D-05 Strict=F.
 Ernie:  38 primitive shells out of 205 were deleted.
 There are    71 symmetry adapted basis functions of A1  symmetry.
 There are    29 symmetry adapted basis functions of A2  symmetry.
 There are    37 symmetry adapted basis functions of B1  symmetry.
 There are    60 symmetry adapted basis functions of B2  symmetry.
 Integral buffers will be    131072 words long.
 Raffenetti 2 integral format.
 Two-electron integral symmetry is turned on.
   197 basis functions,   415 primitive gaussians,   229 cartesian basis functions
    27 alpha electrons       27 beta electrons
       nuclear repulsion energy       106.0521350083 Hartrees.
 IExCor= 4639 DFT=T Ex+Corr=wB97XD ExCW=0 ScaHFX=  1.000000
 ScaDFX=  1.000000  1.000000  1.000000  1.000000 ScalE2=  1.000000  1.000000
 IRadAn=      5 IRanWt=     -1 IRanGd=            0 ICorTp=0
  HFx wShort=  0.000000 wLong=  0.250000 cFull=  0.222036 cShort=  0.000000 cLong=  0.777964
  DFx wShort=  0.000000 wLong=  0.250000 cFull=  0.000000 cShort=  0.000000 cLong=  1.000000
 NAtoms=    5 NActive=    5 NUniq=    3 SFac= 2.78D+00 NAtFMM=   60 NAOKFM=F Big=F
 R6Disp: Dispersion energy =        -0.0005212077 Hartrees.
 Nuclear repulsion after empirical dispersion term =      106.0516138006 Hartrees.
 Leave Link  301 at Thu Apr 16 09:00:39 2020, MaxMem= 1073741824 cpu:       0.2
 (Enter /home/matheus/.gaussian/g09/l302.exe)
 NPDir=0 NMtPBC=     1 NCelOv=     1 NCel=       1 NClECP=     1 NCelD=      1
         NCelK=      1 NCelE2=     1 NClLst=     1 CellRange=     0.0.
 One-electron integrals computed using PRISM.
 One-electron integral symmetry used in STVInt
 NBasis=   197 RedAO= T  NBF=    71    29    37    60
 NBsUse=   197 1.00D-06 NBFU=    71    29    37    60
 Precomputing XC quadrature grid using
 IXCGrd= 2 IRadAn=           5 IRanWt=          -1 IRanGd=           0 AccXCQ= 0.00D+00.
 NRdTot=     427 NPtTot=      123814 NUsed=      126881 NTot=      126913
 NSgBfM=   229   229   229   229   229 NAtAll=     5     5.
 Leave Link  302 at Thu Apr 16 09:00:39 2020, MaxMem= 1073741824 cpu:       0.9
 (Enter /home/matheus/.gaussian/g09/l303.exe)
 DipDrv:  MaxL=1.
 Leave Link  303 at Thu Apr 16 09:00:39 2020, MaxMem= 1073741824 cpu:       0.2
 (Enter /home/matheus/.gaussian/g09/l401.exe)
 Initial guess read from the read-write file.
 B after Tr=     0.000000    0.000000    0.000000
         Rot=    1.000000    0.000000    0.000000    0.000000 Ang=   0.00 deg.
 Guess basis will be translated and rotated to current coordinates.
 Initial guess orbital symmetries:
       Occupied  (A1) (A1) (A1) (B2) (B1) (A1) (B2) (A1) (A1) (B2)
                 (B1) (A1) (B2) (B1) (A2) (A1) (A1) (B2) (A1) (A1)
                 (A1) (B1) (A1) (B2) (B1) (B2) (A2)
       Virtual   (A1) (B2) (A1) (B2) (B1) (A1) (B2) (A1) (B2) (B1)
                 (A1) (B2) (A2) (A1) (B1) (B2) (A1) (A2) (A1) (A1)
                 (B1) (B2) (A1) (A2) (B2) (B2) (A1) (B2) (B1) (B2)
                 (A1) (A1) (B1) (A1) (B2) (B1) (A1) (A1) (A2) (A1)
                 (B1) (A2) (B2) (A2) (B1) (A1) (B2) (B2) (A1) (A1)
                 (A1) (B1) (B1) (A2) (B2) (B2) (B2) (A1) (B1) (A1)
                 (B2) (A2) (B1) (B2) (A1) (A2) (A1) (B2) (A2) (B2)
                 (A1) (B1) (A1) (B2) (A2) (A1) (B2) (B1) (A1) (B2)
                 (A1) (B1) (A1) (A2) (B1) (B2) (B2) (B1) (A1) (A1)
                 (A2) (A1) (A2) (B1) (A1) (B2) (B2) (A1) (B2) (A1)
                 (B1) (B1) (B2) (A2) (A1) (B1) (B2) (B2) (A1) (B1)
                 (B2) (A2) (A2) (A1) (A1) (B2) (B2) (A2) (B2) (A1)
                 (B2) (A1) (B1) (B1) (A1) (A2) (B1) (A2) (A1) (B2)
                 (A2) (A1) (A1) (B2) (B2) (A1) (A1) (B1) (B2) (A2)
                 (B2) (B2) (A1) (B1) (A1) (B2) (B1) (A1) (A2) (B2)
                 (B1) (A1) (A1) (A2) (B1) (B1) (B2) (A2) (A2) (A1)
                 (B2) (A2) (A1) (B2) (B2) (A1) (B2) (B2) (A1) (B2)
 The electronic state of the initial guess is 1-A1.
 Generating alternative initial guess.
 Harris functional with IExCor= 4639 diagonalized for initial guess.
 ExpMin= 2.53D-02 ExpMax= 1.17D+07 ExpMxC= 1.33D+04 IAcc=3 IRadAn=         5 AccDes= 0.00D+00
 HarFok:  IExCor= 4639 AccDes= 0.00D+00 IRadAn=         5 IDoV= 1
 ScaDFX=  1.000000  1.000000  1.000000  1.000000
 FoFCou: FMM=F IPFlag=           0 FMFlag=      100000 FMFlg1=           0
         NFxFlg=           0 DoJE=T BraDBF=F KetDBF=T FulRan=T
         Omega=  0.000000  0.000000  1.000000  0.000000  0.000000 ICntrl=     500 IOpCl=  0
         NMat0=    1 NMatS0=    1 NMatT0=    0 NMatD0=    1 NMtDS0=    0 NMtDT0=    0
         I1Cent=           4 NGrid=           0.
 Petite list used in FoFCou.
 Harris En= -2875.40074478264    
 Leave Link  401 at Thu Apr 16 09:00:39 2020, MaxMem= 1073741824 cpu:       2.7
 (Enter /home/matheus/.gaussian/g09/l502.exe)
 Closed shell SCF:
 Requested convergence on RMS density matrix=1.00D-08 within 128 cycles.
 Requested convergence on MAX density matrix=1.00D-06.
 Requested convergence on             energy=1.00D-06.
 No special actions if energy rises.
 Using DIIS extrapolation, IDIIS=  1040.
 Integral symmetry usage will be decided dynamically.
       126823 words used for storage of precomputed grid.
 IEnd=      306162 IEndB=      306162 NGot=  1073741824 MDV=  1073504973
 LenX=  1073504973 LenY=  1073452091
 Fock matrices will be formed incrementally for  20 cycles.

 Cycle   1  Pass 1  IDiag  1:
 FoFJK:  IHMeth= 1 ICntrl=     0 DoSepK=T KAlg= 1 I1Cent= 0 FoldK=F
 FoFCou: FMM=F IPFlag=           0 FMFlag=      100000 FMFlg1=           0
         NFxFlg=           0 DoJE=T BraDBF=F KetDBF=F FulRan=T
         Omega=  0.000000  0.000000  1.000000  0.000000  0.000000 ICntrl=     500 IOpCl=  0
         NMat0=    1 NMatS0=    1 NMatT0=    0 NMatD0=    1 NMtDS0=    0 NMtDT0=    0
         I1Cent=           0 NGrid=           0.
 Petite list used in FoFCou.
 E= -2905.42285088401    
 DIIS: error= 1.29D-04 at cycle   1 NSaved=   1.
 NSaved= 1 IEnMin= 1 EnMin= -2905.42285088401     IErMin= 1 ErrMin= 1.29D-04
 ErrMax= 1.29D-04 EMaxC= 1.00D-01 BMatC= 4.04D-06 BMatP= 4.04D-06
 IDIUse=3 WtCom= 9.99D-01 WtEn= 1.29D-03
 Coeff-Com:  0.100D+01
 Coeff-En:   0.100D+01
 Coeff:      0.100D+01
 Gap=     0.399 Goal=   None    Shift=    0.000
 RMSDP=1.33D-05 MaxDP=2.74D-04              OVMax= 5.86D-04

 Cycle   2  Pass 1  IDiag  1:
 RMSU=  9.38D-06    CP:  1.00D+00
 FoFJK:  IHMeth= 1 ICntrl=     0 DoSepK=T KAlg= 1 I1Cent= 0 FoldK=F
 E= -2905.42285212925     Delta-E=       -0.000001245236 Rises=F Damp=F
 DIIS: error= 2.87D-05 at cycle   2 NSaved=   2.
 NSaved= 2 IEnMin= 2 EnMin= -2905.42285212925     IErMin= 2 ErrMin= 2.87D-05
 ErrMax= 2.87D-05 EMaxC= 1.00D-01 BMatC= 5.10D-08 BMatP= 4.04D-06
 IDIUse=1 WtCom= 1.00D+00 WtEn= 0.00D+00
 Coeff-Com:  0.781D-02 0.992D+00
 Coeff:      0.781D-02 0.992D+00
 Gap=     0.399 Goal=   None    Shift=    0.000
 RMSDP=1.73D-06 MaxDP=4.98D-05 DE=-1.25D-06 OVMax= 1.26D-04

 Cycle   3  Pass 1  IDiag  1:
 RMSU=  9.93D-07    CP:  1.00D+00  1.08D+00
 FoFJK:  IHMeth= 1 ICntrl=     0 DoSepK=T KAlg= 1 I1Cent= 0 FoldK=F
 E= -2905.42285218523     Delta-E=       -0.000000055981 Rises=F Damp=F
 DIIS: error= 1.14D-05 at cycle   3 NSaved=   3.
 NSaved= 3 IEnMin= 3 EnMin= -2905.42285218523     IErMin= 3 ErrMin= 1.14D-05
 ErrMax= 1.14D-05 EMaxC= 1.00D-01 BMatC= 8.85D-09 BMatP= 5.10D-08
 IDIUse=1 WtCom= 1.00D+00 WtEn= 0.00D+00
 Coeff-Com: -0.705D-02 0.268D+00 0.739D+00
 Coeff:     -0.705D-02 0.268D+00 0.739D+00
 Gap=     0.399 Goal=   None    Shift=    0.000
 RMSDP=3.61D-07 MaxDP=1.26D-05 DE=-5.60D-08 OVMax= 4.19D-05

 Cycle   4  Pass 1  IDiag  1:
 RMSU=  2.37D-07    CP:  1.00D+00  1.09D+00  9.94D-01
 FoFJK:  IHMeth= 1 ICntrl=     0 DoSepK=T KAlg= 1 I1Cent= 0 FoldK=F
 E= -2905.42285219397     Delta-E=       -0.000000008740 Rises=F Damp=F
 DIIS: error= 1.20D-06 at cycle   4 NSaved=   4.
 NSaved= 4 IEnMin= 4 EnMin= -2905.42285219397     IErMin= 4 ErrMin= 1.20D-06
 ErrMax= 1.20D-06 EMaxC= 1.00D-01 BMatC= 2.86D-10 BMatP= 8.85D-09
 IDIUse=1 WtCom= 1.00D+00 WtEn= 0.00D+00
 Coeff-Com: -0.265D-03-0.455D-01-0.837D-02 0.105D+01
 Coeff:     -0.265D-03-0.455D-01-0.837D-02 0.105D+01
 Gap=     0.399 Goal=   None    Shift=    0.000
 RMSDP=2.14D-07 MaxDP=9.73D-06 DE=-8.74D-09 OVMax= 1.75D-05

 Cycle   5  Pass 1  IDiag  1:
 RMSU=  6.90D-08    CP:  1.00D+00  1.09D+00  1.10D+00  1.34D+00
 FoFJK:  IHMeth= 1 ICntrl=     0 DoSepK=T KAlg= 1 I1Cent= 0 FoldK=F
 E= -2905.42285219453     Delta-E=       -0.000000000558 Rises=F Damp=F
 DIIS: error= 9.12D-07 at cycle   5 NSaved=   5.
 NSaved= 5 IEnMin= 5 EnMin= -2905.42285219453     IErMin= 5 ErrMin= 9.12D-07
 ErrMax= 9.12D-07 EMaxC= 1.00D-01 BMatC= 9.91D-11 BMatP= 2.86D-10
 IDIUse=1 WtCom= 1.00D+00 WtEn= 0.00D+00
 Coeff-Com:  0.526D-03-0.434D-01-0.707D-01 0.449D+00 0.665D+00
 Coeff:      0.526D-03-0.434D-01-0.707D-01 0.449D+00 0.665D+00
 Gap=     0.399 Goal=   None    Shift=    0.000
 RMSDP=4.95D-08 MaxDP=2.52D-06 DE=-5.58D-10 OVMax= 4.17D-06

 Cycle   6  Pass 1  IDiag  1:
 RMSU=  2.33D-08    CP:  1.00D+00  1.09D+00  1.12D+00  1.42D+00  9.37D-01
 FoFJK:  IHMeth= 1 ICntrl=     0 DoSepK=T KAlg= 1 I1Cent= 0 FoldK=F
 E= -2905.42285219461     Delta-E=       -0.000000000086 Rises=F Damp=F
 DIIS: error= 1.16D-07 at cycle   6 NSaved=   6.
 NSaved= 6 IEnMin= 6 EnMin= -2905.42285219461     IErMin= 6 ErrMin= 1.16D-07
 ErrMax= 1.16D-07 EMaxC= 1.00D-01 BMatC= 1.73D-12 BMatP= 9.91D-11
 IDIUse=1 WtCom= 1.00D+00 WtEn= 0.00D+00
 Coeff-Com:  0.265D-04 0.394D-02-0.227D-03-0.810D-01 0.358D-02 0.107D+01
 Coeff:      0.265D-04 0.394D-02-0.227D-03-0.810D-01 0.358D-02 0.107D+01
 Gap=     0.399 Goal=   None    Shift=    0.000
 RMSDP=2.01D-08 MaxDP=1.08D-06 DE=-8.64D-11 OVMax= 1.68D-06

 Cycle   7  Pass 1  IDiag  1:
 RMSU=  3.70D-09    CP:  1.00D+00  1.09D+00  1.12D+00  1.46D+00  1.04D+00
                    CP:  1.28D+00
 FoFJK:  IHMeth= 1 ICntrl=     0 DoSepK=T KAlg= 1 I1Cent= 0 FoldK=F
 E= -2905.42285219462     Delta-E=       -0.000000000010 Rises=F Damp=F
 DIIS: error= 2.76D-08 at cycle   7 NSaved=   7.
 NSaved= 7 IEnMin= 7 EnMin= -2905.42285219462     IErMin= 7 ErrMin= 2.76D-08
 ErrMax= 2.76D-08 EMaxC= 1.00D-01 BMatC= 1.19D-13 BMatP= 1.73D-12
 IDIUse=1 WtCom= 1.00D+00 WtEn= 0.00D+00
 Coeff-Com: -0.193D-04 0.316D-02 0.318D-02-0.425D-01-0.306D-01 0.276D+00
 Coeff-Com:  0.790D+00
 Coeff:     -0.193D-04 0.316D-02 0.318D-02-0.425D-01-0.306D-01 0.276D+00
 Coeff:      0.790D+00
 Gap=     0.399 Goal=   None    Shift=    0.000
 RMSDP=2.78D-09 MaxDP=1.58D-07 DE=-1.00D-11 OVMax= 2.30D-07

 SCF Done:  E(RwB97XD) =  -2905.42285219     A.U. after    7 cycles
             Convg  =    0.2782D-08             -V/T =  2.0015
 KE= 2.900950099837D+03 PE=-7.150161316764D+03 EE= 1.237736750932D+03
 Leave Link  502 at Thu Apr 16 09:00:51 2020, MaxMem= 1073741824 cpu:      96.2
 (Enter /home/matheus/.gaussian/g09/l108.exe)
 Scan completed.

 Summary of the potential surface scan:
   N      R1          SCF    
 ----  ---------  -----------
    1     3.0000  -2905.41731
    2     3.1000  -2905.41998
    3     3.2000  -2905.42174
    4     3.3000  -2905.42288
    5     3.4000  -2905.42358
    6     3.5000  -2905.42398
    7     3.6000  -2905.42416
    8     3.7000  -2905.42421
    9     3.8000  -2905.42417
   10     3.9000  -2905.42408
   11     4.0000  -2905.42396
   12     4.1000  -2905.42383
   13     4.2000  -2905.42369
   14     4.3000  -2905.42355
   15     4.4000  -2905.42342
   16     4.5000  -2905.42330
   17     4.6000  -2905.42319
   18     4.7000  -2905.42309
   19     4.8000  -2905.42300
   20     4.9000  -2905.42292
   21     5.0000  -2905.42285
 ----  ---------  -----------
  
 Leave Link  108 at Thu Apr 16 09:00:52 2020, MaxMem= 1073741824 cpu:       0.0
 (Enter /home/matheus/.gaussian/g09/l9999.exe)

 Test job not archived.
 1\1\GINC-REDGIANT\Scan\RwB97XD\Aug-CC-pVTZ\H2Kr1O2\ROOT\16-Apr-2020\1\
 \#p wb97xd/aug-cc-PVTz iop(3/107=0250000000) iop(3/108=0250000000) int
 =ultrafine Scan\\TCC\\0,1\O,0,0.,0.,0.725\O,0,0.,0.,-0.725\H,0,0.,0.91
 87205947,1.0235104166\H,0,0.,0.9187205947,-1.0235104166\Kr,0,0.,R1,0.\
 \R1=3.,s,20,0.1\\Version=EM64L-G09RevC.01\State=1-A1\HF=-2905.4173089,
 -2905.419979,-2905.4217433,-2905.4228839,-2905.4235792,-2905.4239755,-
 2905.4241577,-2905.4242078,-2905.4241735,-2905.4240828,-2905.4239616,-
 2905.4238264,-2905.4236893,-2905.4235484,-2905.4234219,-2905.4233031,-
 2905.4231917,-2905.4230923,-2905.4230043,-2905.4229238,-2905.4228522\R
 MSD=6.659e-09,3.141e-09,2.356e-09,8.019e-09,6.081e-09,5.358e-09,4.992e
 -09,5.148e-09,4.451e-09,9.987e-09,8.646e-09,7.872e-09,7.034e-09,5.615e
 -09,4.571e-09,3.890e-09,3.252e-09,2.730e-09,3.081e-09,2.749e-09,2.782e
 -09\PG=C02V [C2(Kr1),SGV(H2O2)]\\@


 ERROR IS A HARDY PLANT... IT FLOURISHETH IN EVERY SOIL.
            MARTIN FARQUHAR TUPPER
 Job cpu time:  0 days  0 hours 41 minutes 50.8 seconds.
 File lengths (MBytes):  RWF=     27 Int=      0 D2E=      0 Chk=      4 Scr=      1
 Normal termination of Gaussian 09 at Thu Apr 16 09:00:52 2020.
