 Entering Gaussian System, Link 0=g09
 Input=/home/matheus/.tcc/Inputs-wb97xd/H2O2-Kr_25.com
 Output=/home/matheus/.tcc/Logs-wb97xd/H2O2-Kr_25.log
 Initial command:
 /home/matheus/.gaussian/g09/l1.exe /home/matheus/.gaussian/g09/scratch/Gau-20919.inp -scrdir=/home/matheus/.gaussian/g09/scratch/
 Entering Link 1 = /home/matheus/.gaussian/g09/l1.exe PID=     20922.
  
 Copyright (c) 1988,1990,1992,1993,1995,1998,2003,2009,2011,
            Gaussian, Inc.  All Rights Reserved.
  
 This is part of the Gaussian(R) 09 program.  It is based on
 the Gaussian(R) 03 system (copyright 2003, Gaussian, Inc.),
 the Gaussian(R) 98 system (copyright 1998, Gaussian, Inc.),
 the Gaussian(R) 94 system (copyright 1995, Gaussian, Inc.),
 the Gaussian 92(TM) system (copyright 1992, Gaussian, Inc.),
 the Gaussian 90(TM) system (copyright 1990, Gaussian, Inc.),
 the Gaussian 88(TM) system (copyright 1988, Gaussian, Inc.),
 the Gaussian 86(TM) system (copyright 1986, Carnegie Mellon
 University), and the Gaussian 82(TM) system (copyright 1983,
 Carnegie Mellon University). Gaussian is a federally registered
 trademark of Gaussian, Inc.
  
 This software contains proprietary and confidential information,
 including trade secrets, belonging to Gaussian, Inc.
  
 This software is provided under written license and may be
 used, copied, transmitted, or stored only in accord with that
 written license.
  
 The following legend is applicable only to US Government
 contracts under FAR:
  
                    RESTRICTED RIGHTS LEGEND
  
 Use, reproduction and disclosure by the US Government is
 subject to restrictions as set forth in subparagraphs (a)
 and (c) of the Commercial Computer Software - Restricted
 Rights clause in FAR 52.227-19.
  
 Gaussian, Inc.
 340 Quinnipiac St., Bldg. 40, Wallingford CT 06492
  
  
 ---------------------------------------------------------------
 Warning -- This program may not be used in any manner that
 competes with the business of Gaussian, Inc. or will provide
 assistance to any competitor of Gaussian, Inc.  The licensee
 of this program is prohibited from giving any competitor of
 Gaussian, Inc. access to this program.  By using this program,
 the user acknowledges that Gaussian, Inc. is engaged in the
 business of creating and licensing software in the field of
 computational chemistry and represents and warrants to the
 licensee that it is not a competitor of Gaussian, Inc. and that
 it will not use this program in any manner prohibited above.
 ---------------------------------------------------------------
  

 Cite this work as:
 Gaussian 09, Revision C.01,
 M. J. Frisch, G. W. Trucks, H. B. Schlegel, G. E. Scuseria, 
 M. A. Robb, J. R. Cheeseman, G. Scalmani, V. Barone, B. Mennucci, 
 G. A. Petersson, H. Nakatsuji, M. Caricato, X. Li, H. P. Hratchian, 
 A. F. Izmaylov, J. Bloino, G. Zheng, J. L. Sonnenberg, M. Hada, 
 M. Ehara, K. Toyota, R. Fukuda, J. Hasegawa, M. Ishida, T. Nakajima, 
 Y. Honda, O. Kitao, H. Nakai, T. Vreven, J. A. Montgomery, Jr., 
 J. E. Peralta, F. Ogliaro, M. Bearpark, J. J. Heyd, E. Brothers, 
 K. N. Kudin, V. N. Staroverov, T. Keith, R. Kobayashi, J. Normand, 
 K. Raghavachari, A. Rendell, J. C. Burant, S. S. Iyengar, J. Tomasi, 
 M. Cossi, N. Rega, J. M. Millam, M. Klene, J. E. Knox, J. B. Cross, 
 V. Bakken, C. Adamo, J. Jaramillo, R. Gomperts, R. E. Stratmann, 
 O. Yazyev, A. J. Austin, R. Cammi, C. Pomelli, J. W. Ochterski, 
 R. L. Martin, K. Morokuma, V. G. Zakrzewski, G. A. Voth, 
 P. Salvador, J. J. Dannenberg, S. Dapprich, A. D. Daniels, 
 O. Farkas, J. B. Foresman, J. V. Ortiz, J. Cioslowski, 
 and D. J. Fox, Gaussian, Inc., Wallingford CT, 2010.
 
 ******************************************
 Gaussian 09:  EM64L-G09RevC.01 23-Sep-2011
                16-Apr-2020 
 ******************************************
 %mem=8GB
 %nproc=8
 Will use up to    8 processors via shared memory.
 ----------------------------------------------------------------------
 #p wb97xd/aug-cc-PVTz iop(3/107=0250000000) iop(3/108=0250000000) int=
 ultrafine Scan
 ----------------------------------------------------------------------
 1/38=1,60=1/1,8;
 2/12=2,17=6,18=5,29=3,40=1/2;
 3/5=16,6=1,7=10,11=2,16=1,25=1,30=1,74=-58,75=-5,107=250000000,108=250000000/1,2,3;
 4//1;
 5/5=2,38=5/2;
 6/7=2,8=2,9=2,10=2,18=1,28=1/1;
 1/60=1/8(1);
 99/9=1/99;
 2/29=3/2;
 3/5=16,6=1,7=10,11=2,16=1,25=1,30=1,74=-58,75=-5,107=250000000,108=250000000/1,2,3;
 4/5=5,16=3/1;
 5/5=2,38=5/2;
 1/60=1/8(-4);
 99/9=1/99;
 Leave Link    1 at Thu Apr 16 12:44:34 2020, MaxMem= 1073741824 cpu:       0.2
 (Enter /home/matheus/.gaussian/g09/l101.exe)
 ---
 TCC
 ---
 Charge =  0 Multiplicity = 1
 Symbolic Z-Matrix:
 O                     0.        0.        0.725 
 O                     0.        0.       -0.725 
 H                    -0.86331  -0.31422   1.02351 
 H                     0.        0.91872  -1.02351 
 Kr                    0.       R1        0. 
       Variables:
  R1                    3.     Scan 20    0.1    
 
 NAtoms=      5 NQM=        0 NQMF=       0 NMMI=      5 NMMIF=      0
                NMic=       0 NMicF=      0.
                    Isotopes and Nuclear Properties:
 (Nuclear quadrupole moments (NQMom) in fm**2, nuclear magnetic moments (NMagM)
  in nuclear magnetons)

  Atom         1           2           3           4           5
 IAtWgt=          16          16           1           1          84
 AtmWgt=  15.9949146  15.9949146   1.0078250   1.0078250  83.9115064
 NucSpn=           0           0           1           1           0
 AtZEff=   0.0000000   0.0000000   0.0000000   0.0000000   0.0000000
 NQMom=    0.0000000   0.0000000   0.0000000   0.0000000   0.0000000
 NMagM=    0.0000000   0.0000000   2.7928460   2.7928460   0.0000000
 Leave Link  101 at Thu Apr 16 12:44:34 2020, MaxMem= 1073741824 cpu:       0.4
 (Enter /home/matheus/.gaussian/g09/l108.exe)
 Scan the potential surface.
 Variable   Value     No. Steps Step-Size
 -------- ----------- --------- ---------
     1       3.000000      20      0.1000
 A total of     21 points will be computed.
 Leave Link  108 at Thu Apr 16 12:44:34 2020, MaxMem= 1073741824 cpu:       0.0
 (Enter /home/matheus/.gaussian/g09/l202.exe)
 ---------------------------------------------------------------------------------------------------
                            Z-MATRIX (ANGSTROMS AND DEGREES)
   CD    Cent   Atom    N1       Length/X        N2       Alpha/Y        N3        Beta/Z          J
 ---------------------------------------------------------------------------------------------------
      1      1  O        0   0.000000          0.000000          0.725000
      2      2  O        0   0.000000          0.000000         -0.725000
      3      3  H        0  -0.863315         -0.314221          1.023510
      4      4  H        0   0.000000          0.918721         -1.023510
      5      5  Kr       0   0.000000          3.000000          0.000000
 ---------------------------------------------------------------------------------------------------
                         Z-Matrix orientation:                         
 ---------------------------------------------------------------------
 Center     Atomic      Atomic             Coordinates (Angstroms)
 Number     Number       Type             X           Y           Z
 ---------------------------------------------------------------------
      1          8           0        0.000000    0.000000    0.725000
      2          8           0        0.000000    0.000000   -0.725000
      3          1           0       -0.863315   -0.314221    1.023510
      4          1           0        0.000000    0.918721   -1.023510
      5         36           0        0.000000    3.000000    0.000000
 ---------------------------------------------------------------------
                    Distance matrix (angstroms):
                    1          2          3          4          5
     1  O    0.000000
     2  O    1.450000   0.000000
     3  H    0.966000   1.975180   0.000000
     4  H    1.975180   0.966000   2.540817   0.000000
     5  Kr   3.086361   3.086361   3.574486   2.319331   0.000000
 Stoichiometry    H2KrO2
 Framework group  C1[X(H2KrO2)]
 Deg. of freedom     9
 Full point group                 C1      NOp   1
 Largest Abelian subgroup         C1      NOp   1
 Largest concise Abelian subgroup C1      NOp   1
                         Standard orientation:                         
 ---------------------------------------------------------------------
 Center     Atomic      Atomic             Coordinates (Angstroms)
 Number     Number       Type             X           Y           Z
 ---------------------------------------------------------------------
      1          8           0       -2.019994   -0.690833   -0.114713
      2          8           0       -2.000697    0.753572    0.011068
      3          1           0       -2.354569   -1.058170    0.713707
      4          1           0       -1.078253    1.037233    0.053361
      5         36           0        0.988843   -0.013360    0.001725
 ---------------------------------------------------------------------
 Rotational constants (GHZ):     25.7302436      2.3305908      2.1494082
 Leave Link  202 at Thu Apr 16 12:44:34 2020, MaxMem= 1073741824 cpu:       0.0
 (Enter /home/matheus/.gaussian/g09/l301.exe)
 Standard basis: Aug-CC-pVTZ (5D, 7F)
 Ernie: Thresh=  0.10000D-02 Tol=  0.10000D-05 Strict=F.
 Ernie:  38 primitive shells out of 205 were deleted.
 There are   197 symmetry adapted basis functions of A   symmetry.
 Integral buffers will be    131072 words long.
 Raffenetti 2 integral format.
 Two-electron integral symmetry is turned on.
   197 basis functions,   415 primitive gaussians,   229 cartesian basis functions
    27 alpha electrons       27 beta electrons
       nuclear repulsion energy       148.9188377957 Hartrees.
 IExCor= 4639 DFT=T Ex+Corr=wB97XD ExCW=0 ScaHFX=  1.000000
 ScaDFX=  1.000000  1.000000  1.000000  1.000000 ScalE2=  1.000000  1.000000
 IRadAn=      5 IRanWt=     -1 IRanGd=            0 ICorTp=0
  HFx wShort=  0.000000 wLong=  0.250000 cFull=  0.222036 cShort=  0.000000 cLong=  0.777964
  DFx wShort=  0.000000 wLong=  0.250000 cFull=  0.000000 cShort=  0.000000 cLong=  1.000000
 NAtoms=    5 NActive=    5 NUniq=    5 SFac= 1.00D+00 NAtFMM=   60 NAOKFM=F Big=F
 R6Disp: Dispersion energy =        -0.0008883210 Hartrees.
 Nuclear repulsion after empirical dispersion term =      148.9179494746 Hartrees.
 Leave Link  301 at Thu Apr 16 12:44:34 2020, MaxMem= 1073741824 cpu:       0.2
 (Enter /home/matheus/.gaussian/g09/l302.exe)
 NPDir=0 NMtPBC=     1 NCelOv=     1 NCel=       1 NClECP=     1 NCelD=      1
         NCelK=      1 NCelE2=     1 NClLst=     1 CellRange=     0.0.
 One-electron integrals computed using PRISM.
 NBasis=   197 RedAO= T  NBF=   197
 NBsUse=   197 1.00D-06 NBFU=   197
 Precomputing XC quadrature grid using
 IXCGrd= 2 IRadAn=           5 IRanWt=          -1 IRanGd=           0 AccXCQ= 0.00D+00.
 NRdTot=     427 NPtTot=      123512 NUsed=      126579 NTot=      126611
 NSgBfM=   229   229   229   229   229 NAtAll=     5     5.
 Leave Link  302 at Thu Apr 16 12:44:35 2020, MaxMem= 1073741824 cpu:       1.2
 (Enter /home/matheus/.gaussian/g09/l303.exe)
 DipDrv:  MaxL=1.
 Leave Link  303 at Thu Apr 16 12:44:35 2020, MaxMem= 1073741824 cpu:       0.2
 (Enter /home/matheus/.gaussian/g09/l401.exe)
 Harris functional with IExCor= 4639 diagonalized for initial guess.
 ExpMin= 2.53D-02 ExpMax= 1.17D+07 ExpMxC= 1.33D+04 IAcc=3 IRadAn=         5 AccDes= 0.00D+00
 HarFok:  IExCor= 4639 AccDes= 0.00D+00 IRadAn=         5 IDoV= 1
 ScaDFX=  1.000000  1.000000  1.000000  1.000000
 FoFCou: FMM=F IPFlag=           0 FMFlag=      100000 FMFlg1=           0
         NFxFlg=           0 DoJE=T BraDBF=F KetDBF=T FulRan=T
         Omega=  0.000000  0.000000  1.000000  0.000000  0.000000 ICntrl=     500 IOpCl=  0
         NMat0=    1 NMatS0=    1 NMatT0=    0 NMatD0=    1 NMtDS0=    0 NMtDT0=    0
         I1Cent=           4 NGrid=           0.
 Petite list used in FoFCou.
 Harris En= -2875.39765341077    
 Initial guess orbital symmetries:
       Occupied  (A) (A) (A) (A) (A) (A) (A) (A) (A) (A) (A) (A)
                 (A) (A) (A) (A) (A) (A) (A) (A) (A) (A) (A) (A)
                 (A) (A) (A)
       Virtual   (A) (A) (A) (A) (A) (A) (A) (A) (A) (A) (A) (A)
                 (A) (A) (A) (A) (A) (A) (A) (A) (A) (A) (A) (A)
                 (A) (A) (A) (A) (A) (A) (A) (A) (A) (A) (A) (A)
                 (A) (A) (A) (A) (A) (A) (A) (A) (A) (A) (A) (A)
                 (A) (A) (A) (A) (A) (A) (A) (A) (A) (A) (A) (A)
                 (A) (A) (A) (A) (A) (A) (A) (A) (A) (A) (A) (A)
                 (A) (A) (A) (A) (A) (A) (A) (A) (A) (A) (A) (A)
                 (A) (A) (A) (A) (A) (A) (A) (A) (A) (A) (A) (A)
                 (A) (A) (A) (A) (A) (A) (A) (A) (A) (A) (A) (A)
                 (A) (A) (A) (A) (A) (A) (A) (A) (A) (A) (A) (A)
                 (A) (A) (A) (A) (A) (A) (A) (A) (A) (A) (A) (A)
                 (A) (A) (A) (A) (A) (A) (A) (A) (A) (A) (A) (A)
                 (A) (A) (A) (A) (A) (A) (A) (A) (A) (A) (A) (A)
                 (A) (A) (A) (A) (A) (A) (A) (A) (A) (A) (A) (A)
                 (A) (A)
 The electronic state of the initial guess is 1-A.
 Leave Link  401 at Thu Apr 16 12:44:35 2020, MaxMem= 1073741824 cpu:       5.6
 (Enter /home/matheus/.gaussian/g09/l502.exe)
 Closed shell SCF:
 Requested convergence on RMS density matrix=1.00D-08 within 128 cycles.
 Requested convergence on MAX density matrix=1.00D-06.
 Requested convergence on             energy=1.00D-06.
 No special actions if energy rises.
 Using DIIS extrapolation, IDIIS=  1040.
 Integral symmetry usage will be decided dynamically.
       126521 words used for storage of precomputed grid.
 IEnd=      305468 IEndB=      305468 NGot=  1073741824 MDV=  1073505667
 LenX=  1073505667 LenY=  1073452785
 Fock matrices will be formed incrementally for  20 cycles.

 Cycle   1  Pass 1  IDiag  1:
 FoFJK:  IHMeth= 1 ICntrl=     0 DoSepK=T KAlg= 1 I1Cent= 0 FoldK=F
 FoFCou: FMM=F IPFlag=           0 FMFlag=      100000 FMFlg1=           0
         NFxFlg=           0 DoJE=T BraDBF=F KetDBF=F FulRan=T
         Omega=  0.000000  0.000000  1.000000  0.000000  0.000000 ICntrl=     500 IOpCl=  0
         NMat0=    1 NMatS0=    1 NMatT0=    0 NMatD0=    1 NMtDS0=    0 NMtDT0=    0
         I1Cent=           0 NGrid=           0.
 Symmetry not used in FoFCou.
 E= -2904.90313253594    
 DIIS: error= 7.19D-02 at cycle   1 NSaved=   1.
 NSaved= 1 IEnMin= 1 EnMin= -2904.90313253594     IErMin= 1 ErrMin= 7.19D-02
 ErrMax= 7.19D-02 EMaxC= 1.00D-01 BMatC= 2.22D+00 BMatP= 2.22D+00
 IDIUse=3 WtCom= 2.81D-01 WtEn= 7.19D-01
 Coeff-Com:  0.100D+01
 Coeff-En:   0.100D+01
 Coeff:      0.100D+01
 Gap=     0.556 Goal=   None    Shift=    0.000
 GapD=    0.556 DampG=2.000 DampE=0.500 DampFc=1.0000 IDamp=-1.
 RMSDP=6.14D-03 MaxDP=3.66D-01              OVMax= 1.82D-01

 Cycle   2  Pass 1  IDiag  1:
 RMSU=  4.31D-03    CP:  1.03D+00
 FoFJK:  IHMeth= 1 ICntrl=     0 DoSepK=T KAlg= 1 I1Cent= 0 FoldK=F
 E= -2905.22293256332     Delta-E=       -0.319800027378 Rises=F Damp=F
 DIIS: error= 2.99D-02 at cycle   2 NSaved=   2.
 NSaved= 2 IEnMin= 2 EnMin= -2905.22293256332     IErMin= 2 ErrMin= 2.99D-02
 ErrMax= 2.99D-02 EMaxC= 1.00D-01 BMatC= 5.66D-01 BMatP= 2.22D+00
 IDIUse=3 WtCom= 7.01D-01 WtEn= 2.99D-01
 Coeff-Com:  0.328D+00 0.672D+00
 Coeff-En:   0.199D+00 0.801D+00
 Coeff:      0.289D+00 0.711D+00
 Gap=     0.500 Goal=   None    Shift=    0.000
 RMSDP=2.68D-03 MaxDP=1.56D-01 DE=-3.20D-01 OVMax= 7.38D-02

 Cycle   3  Pass 1  IDiag  1:
 RMSU=  5.64D-04    CP:  1.02D+00  5.83D-01
 FoFJK:  IHMeth= 1 ICntrl=     0 DoSepK=T KAlg= 1 I1Cent= 0 FoldK=F
 E= -2905.41813801029     Delta-E=       -0.195205446969 Rises=F Damp=F
 DIIS: error= 6.55D-03 at cycle   3 NSaved=   3.
 NSaved= 3 IEnMin= 3 EnMin= -2905.41813801029     IErMin= 3 ErrMin= 6.55D-03
 ErrMax= 6.55D-03 EMaxC= 1.00D-01 BMatC= 1.78D-02 BMatP= 5.66D-01
 IDIUse=3 WtCom= 9.35D-01 WtEn= 6.55D-02
 Coeff-Com:  0.347D-01 0.187D+00 0.778D+00
 Coeff-En:   0.000D+00 0.000D+00 0.100D+01
 Coeff:      0.324D-01 0.175D+00 0.793D+00
 Gap=     0.449 Goal=   None    Shift=    0.000
 RMSDP=4.72D-04 MaxDP=1.91D-02 DE=-1.95D-01 OVMax= 2.61D-02

 Cycle   4  Pass 1  IDiag  1:
 RMSU=  2.30D-04    CP:  1.02D+00  6.38D-01  9.04D-01
 FoFJK:  IHMeth= 1 ICntrl=     0 DoSepK=T KAlg= 1 I1Cent= 0 FoldK=F
 E= -2905.42631205448     Delta-E=       -0.008174044193 Rises=F Damp=F
 DIIS: error= 2.41D-03 at cycle   4 NSaved=   4.
 NSaved= 4 IEnMin= 4 EnMin= -2905.42631205448     IErMin= 4 ErrMin= 2.41D-03
 ErrMax= 2.41D-03 EMaxC= 1.00D-01 BMatC= 1.80D-03 BMatP= 1.78D-02
 IDIUse=3 WtCom= 9.76D-01 WtEn= 2.41D-02
 Coeff-Com: -0.238D-02 0.469D-01 0.370D+00 0.586D+00
 Coeff-En:   0.000D+00 0.000D+00 0.000D+00 0.100D+01
 Coeff:     -0.232D-02 0.458D-01 0.361D+00 0.596D+00
 Gap=     0.434 Goal=   None    Shift=    0.000
 RMSDP=1.19D-04 MaxDP=6.83D-03 DE=-8.17D-03 OVMax= 6.86D-03

 Cycle   5  Pass 1  IDiag  1:
 RMSU=  4.07D-05    CP:  1.02D+00  6.36D-01  9.52D-01  7.08D-01
 FoFJK:  IHMeth= 1 ICntrl=     0 DoSepK=T KAlg= 1 I1Cent= 0 FoldK=F
 E= -2905.42739317479     Delta-E=       -0.001081120306 Rises=F Damp=F
 DIIS: error= 2.56D-04 at cycle   5 NSaved=   5.
 NSaved= 5 IEnMin= 5 EnMin= -2905.42739317479     IErMin= 5 ErrMin= 2.56D-04
 ErrMax= 2.56D-04 EMaxC= 1.00D-01 BMatC= 2.44D-05 BMatP= 1.80D-03
 IDIUse=3 WtCom= 9.97D-01 WtEn= 2.56D-03
 Coeff-Com: -0.146D-02 0.102D-01 0.999D-01 0.181D+00 0.710D+00
 Coeff-En:   0.000D+00 0.000D+00 0.000D+00 0.000D+00 0.100D+01
 Coeff:     -0.145D-02 0.101D-01 0.996D-01 0.181D+00 0.711D+00
 Gap=     0.433 Goal=   None    Shift=    0.000
 RMSDP=2.26D-05 MaxDP=9.97D-04 DE=-1.08D-03 OVMax= 1.48D-03

 Cycle   6  Pass 1  IDiag  1:
 RMSU=  1.44D-05    CP:  1.02D+00  6.36D-01  9.60D-01  7.26D-01  1.08D+00
 FoFJK:  IHMeth= 1 ICntrl=     0 DoSepK=T KAlg= 1 I1Cent= 0 FoldK=F
 E= -2905.42740583618     Delta-E=       -0.000012661391 Rises=F Damp=F
 DIIS: error= 1.57D-04 at cycle   6 NSaved=   6.
 NSaved= 6 IEnMin= 6 EnMin= -2905.42740583618     IErMin= 6 ErrMin= 1.57D-04
 ErrMax= 1.57D-04 EMaxC= 1.00D-01 BMatC= 1.02D-05 BMatP= 2.44D-05
 IDIUse=3 WtCom= 9.98D-01 WtEn= 1.57D-03
 Coeff-Com: -0.257D-03-0.614D-02-0.346D-01-0.471D-01 0.399D+00 0.689D+00
 Coeff-En:   0.000D+00 0.000D+00 0.000D+00 0.000D+00 0.188D+00 0.812D+00
 Coeff:     -0.256D-03-0.614D-02-0.346D-01-0.470D-01 0.399D+00 0.689D+00
 Gap=     0.433 Goal=   None    Shift=    0.000
 RMSDP=1.27D-05 MaxDP=4.58D-04 DE=-1.27D-05 OVMax= 7.11D-04

 Cycle   7  Pass 1  IDiag  1:
 RMSU=  3.73D-06    CP:  1.02D+00  6.36D-01  9.67D-01  7.35D-01  1.24D+00
                    CP:  8.38D-01
 FoFJK:  IHMeth= 1 ICntrl=     0 DoSepK=T KAlg= 1 I1Cent= 0 FoldK=F
 E= -2905.42741331894     Delta-E=       -0.000007482767 Rises=F Damp=F
 DIIS: error= 1.32D-05 at cycle   7 NSaved=   7.
 NSaved= 7 IEnMin= 7 EnMin= -2905.42741331894     IErMin= 7 ErrMin= 1.32D-05
 ErrMax= 1.32D-05 EMaxC= 1.00D-01 BMatC= 7.46D-08 BMatP= 1.02D-05
 IDIUse=1 WtCom= 1.00D+00 WtEn= 0.00D+00
 Coeff-Com:  0.300D-04-0.104D-02-0.766D-02-0.114D-01-0.394D-02 0.608D-01
 Coeff-Com:  0.963D+00
 Coeff:      0.300D-04-0.104D-02-0.766D-02-0.114D-01-0.394D-02 0.608D-01
 Coeff:      0.963D+00
 Gap=     0.433 Goal=   None    Shift=    0.000
 RMSDP=2.55D-06 MaxDP=7.55D-05 DE=-7.48D-06 OVMax= 2.05D-04

 Cycle   8  Pass 1  IDiag  1:
 RMSU=  8.40D-07    CP:  1.02D+00  6.36D-01  9.68D-01  7.37D-01  1.26D+00
                    CP:  8.89D-01  1.20D+00
 FoFJK:  IHMeth= 1 ICntrl=     0 DoSepK=T KAlg= 1 I1Cent= 0 FoldK=F
 E= -2905.42741347309     Delta-E=       -0.000000154149 Rises=F Damp=F
 DIIS: error= 3.58D-06 at cycle   8 NSaved=   8.
 NSaved= 8 IEnMin= 8 EnMin= -2905.42741347309     IErMin= 8 ErrMin= 3.58D-06
 ErrMax= 3.58D-06 EMaxC= 1.00D-01 BMatC= 4.55D-09 BMatP= 7.46D-08
 IDIUse=1 WtCom= 1.00D+00 WtEn= 0.00D+00
 Coeff-Com:  0.142D-04 0.248D-03 0.132D-02 0.152D-02-0.220D-01-0.323D-01
 Coeff-Com:  0.297D-01 0.102D+01
 Coeff:      0.142D-04 0.248D-03 0.132D-02 0.152D-02-0.220D-01-0.323D-01
 Coeff:      0.297D-01 0.102D+01
 Gap=     0.433 Goal=   None    Shift=    0.000
 RMSDP=7.11D-07 MaxDP=1.67D-05 DE=-1.54D-07 OVMax= 7.43D-05

 Cycle   9  Pass 1  IDiag  1:
 RMSU=  2.30D-07    CP:  1.02D+00  6.36D-01  9.68D-01  7.37D-01  1.27D+00
                    CP:  8.99D-01  1.27D+00  1.29D+00
 FoFJK:  IHMeth= 1 ICntrl=     0 DoSepK=T KAlg= 1 I1Cent= 0 FoldK=F
 E= -2905.42741348645     Delta-E=       -0.000000013357 Rises=F Damp=F
 DIIS: error= 1.28D-06 at cycle   9 NSaved=   9.
 NSaved= 9 IEnMin= 9 EnMin= -2905.42741348645     IErMin= 9 ErrMin= 1.28D-06
 ErrMax= 1.28D-06 EMaxC= 1.00D-01 BMatC= 4.11D-10 BMatP= 4.55D-09
 IDIUse=1 WtCom= 1.00D+00 WtEn= 0.00D+00
 Coeff-Com: -0.214D-05 0.656D-04 0.488D-03 0.563D-03 0.591D-03-0.209D-02
 Coeff-Com: -0.578D-01-0.768D-01 0.113D+01
 Coeff:     -0.214D-05 0.656D-04 0.488D-03 0.563D-03 0.591D-03-0.209D-02
 Coeff:     -0.578D-01-0.768D-01 0.113D+01
 Gap=     0.433 Goal=   None    Shift=    0.000
 RMSDP=2.51D-07 MaxDP=6.71D-06 DE=-1.34D-08 OVMax= 3.28D-05

 Cycle  10  Pass 1  IDiag  1:
 RMSU=  8.32D-08    CP:  1.02D+00  6.36D-01  9.68D-01  7.36D-01  1.27D+00
                    CP:  9.00D-01  1.29D+00  1.40D+00  1.44D+00
 FoFJK:  IHMeth= 1 ICntrl=     0 DoSepK=T KAlg= 1 I1Cent= 0 FoldK=F
 E= -2905.42741348809     Delta-E=       -0.000000001640 Rises=F Damp=F
 DIIS: error= 4.26D-07 at cycle  10 NSaved=  10.
 NSaved=10 IEnMin=10 EnMin= -2905.42741348809     IErMin=10 ErrMin= 4.26D-07
 ErrMax= 4.26D-07 EMaxC= 1.00D-01 BMatC= 5.19D-11 BMatP= 4.11D-10
 IDIUse=1 WtCom= 1.00D+00 WtEn= 0.00D+00
 Coeff-Com: -0.629D-06-0.167D-04-0.989D-04-0.102D-03 0.184D-02 0.289D-02
 Coeff-Com:  0.931D-03-0.117D+00 0.888D-01 0.102D+01
 Coeff:     -0.629D-06-0.167D-04-0.989D-04-0.102D-03 0.184D-02 0.289D-02
 Coeff:      0.931D-03-0.117D+00 0.888D-01 0.102D+01
 Gap=     0.433 Goal=   None    Shift=    0.000
 RMSDP=8.45D-08 MaxDP=1.85D-06 DE=-1.64D-09 OVMax= 1.21D-05

 Cycle  11  Pass 1  IDiag  1:
 RMSU=  2.17D-08    CP:  1.02D+00  6.36D-01  9.68D-01  7.36D-01  1.27D+00
                    CP:  9.00D-01  1.29D+00  1.42D+00  1.63D+00  1.34D+00
 FoFJK:  IHMeth= 1 ICntrl=     0 DoSepK=T KAlg= 1 I1Cent= 0 FoldK=F
 E= -2905.42741348828     Delta-E=       -0.000000000187 Rises=F Damp=F
 DIIS: error= 1.58D-07 at cycle  11 NSaved=  11.
 NSaved=11 IEnMin=11 EnMin= -2905.42741348828     IErMin=11 ErrMin= 1.58D-07
 ErrMax= 1.58D-07 EMaxC= 1.00D-01 BMatC= 6.30D-12 BMatP= 5.19D-11
 IDIUse=1 WtCom= 1.00D+00 WtEn= 0.00D+00
 Coeff-Com:  0.473D-06-0.697D-05-0.580D-04-0.500D-04-0.274D-03 0.202D-04
 Coeff-Com:  0.899D-02 0.827D-02-0.131D+00-0.993D-01 0.121D+01
 Coeff:      0.473D-06-0.697D-05-0.580D-04-0.500D-04-0.274D-03 0.202D-04
 Coeff:      0.899D-02 0.827D-02-0.131D+00-0.993D-01 0.121D+01
 Gap=     0.433 Goal=   None    Shift=    0.000
 RMSDP=3.73D-08 MaxDP=7.90D-07 DE=-1.87D-10 OVMax= 5.57D-06

 Cycle  12  Pass 1  IDiag  1:
 RMSU=  7.48D-09    CP:  1.02D+00  6.36D-01  9.68D-01  7.36D-01  1.27D+00
                    CP:  9.00D-01  1.28D+00  1.42D+00  1.70D+00  1.54D+00
                    CP:  1.43D+00
 FoFJK:  IHMeth= 1 ICntrl=     0 DoSepK=T KAlg= 1 I1Cent= 0 FoldK=F
 E= -2905.42741348829     Delta-E=       -0.000000000012 Rises=F Damp=F
 DIIS: error= 4.14D-08 at cycle  12 NSaved=  12.
 NSaved=12 IEnMin=12 EnMin= -2905.42741348829     IErMin=12 ErrMin= 4.14D-08
 ErrMax= 4.14D-08 EMaxC= 1.00D-01 BMatC= 3.50D-13 BMatP= 6.30D-12
 IDIUse=1 WtCom= 1.00D+00 WtEn= 0.00D+00
 Coeff-Com: -0.431D-07 0.967D-06 0.813D-05-0.219D-06-0.119D-03-0.189D-03
 Coeff-Com: -0.307D-03 0.652D-02 0.820D-02-0.652D-01-0.135D+00 0.119D+01
 Coeff:     -0.431D-07 0.967D-06 0.813D-05-0.219D-06-0.119D-03-0.189D-03
 Coeff:     -0.307D-03 0.652D-02 0.820D-02-0.652D-01-0.135D+00 0.119D+01
 Gap=     0.433 Goal=   None    Shift=    0.000
 RMSDP=9.87D-09 MaxDP=2.38D-07 DE=-1.18D-11 OVMax= 1.27D-06

 SCF Done:  E(RwB97XD) =  -2905.42741349     A.U. after   12 cycles
             Convg  =    0.9867D-08             -V/T =  2.0015
 KE= 2.900936246595D+03 PE=-7.236076886116D+03 EE= 1.280795276558D+03
 Leave Link  502 at Thu Apr 16 12:45:29 2020, MaxMem= 1073741824 cpu:     424.1
 (Enter /home/matheus/.gaussian/g09/l601.exe)
 Copying SCF densities to generalized density rwf, IOpCl= 0 IROHF=0.

 **********************************************************************

            Population analysis using the SCF density.

 **********************************************************************

 Orbital symmetries:
       Occupied  (A) (A) (A) (A) (A) (A) (A) (A) (A) (A) (A) (A)
                 (A) (A) (A) (A) (A) (A) (A) (A) (A) (A) (A) (A)
                 (A) (A) (A)
       Virtual   (A) (A) (A) (A) (A) (A) (A) (A) (A) (A) (A) (A)
                 (A) (A) (A) (A) (A) (A) (A) (A) (A) (A) (A) (A)
                 (A) (A) (A) (A) (A) (A) (A) (A) (A) (A) (A) (A)
                 (A) (A) (A) (A) (A) (A) (A) (A) (A) (A) (A) (A)
                 (A) (A) (A) (A) (A) (A) (A) (A) (A) (A) (A) (A)
                 (A) (A) (A) (A) (A) (A) (A) (A) (A) (A) (A) (A)
                 (A) (A) (A) (A) (A) (A) (A) (A) (A) (A) (A) (A)
                 (A) (A) (A) (A) (A) (A) (A) (A) (A) (A) (A) (A)
                 (A) (A) (A) (A) (A) (A) (A) (A) (A) (A) (A) (A)
                 (A) (A) (A) (A) (A) (A) (A) (A) (A) (A) (A) (A)
                 (A) (A) (A) (A) (A) (A) (A) (A) (A) (A) (A) (A)
                 (A) (A) (A) (A) (A) (A) (A) (A) (A) (A) (A) (A)
                 (A) (A) (A) (A) (A) (A) (A) (A) (A) (A) (A) (A)
                 (A) (A) (A) (A) (A) (A) (A) (A) (A) (A) (A) (A)
                 (A) (A)
 The electronic state is 1-A.
 Alpha  occ. eigenvalues -- -513.09215 -67.36042 -60.90923 -60.90910 -60.90901
 Alpha  occ. eigenvalues --  -19.34023 -19.33646  -9.81371  -7.50707  -7.50664
 Alpha  occ. eigenvalues --   -7.50638  -3.37388  -3.37380  -3.37360  -3.37325
 Alpha  occ. eigenvalues --   -3.37322  -1.24515  -1.03328  -1.02042  -0.66402
 Alpha  occ. eigenvalues --   -0.60142  -0.53394  -0.49780  -0.49394  -0.48595
 Alpha  occ. eigenvalues --   -0.42487  -0.39778
 Alpha virt. eigenvalues --    0.03521   0.04348   0.08270   0.09789   0.10521
 Alpha virt. eigenvalues --    0.11828   0.13582   0.13970   0.17054   0.17943
 Alpha virt. eigenvalues --    0.18392   0.19012   0.20509   0.22169   0.23493
 Alpha virt. eigenvalues --    0.24395   0.25655   0.28042   0.31058   0.32941
 Alpha virt. eigenvalues --    0.34180   0.35059   0.35767   0.38375   0.39220
 Alpha virt. eigenvalues --    0.40529   0.42355   0.47386   0.51779   0.54877
 Alpha virt. eigenvalues --    0.55401   0.58593   0.60690   0.64979   0.67513
 Alpha virt. eigenvalues --    0.69462   0.70756   0.71955   0.74503   0.74917
 Alpha virt. eigenvalues --    0.75180   0.76756   0.77307   0.79195   0.81740
 Alpha virt. eigenvalues --    0.84362   0.85368   0.87568   0.88594   0.89463
 Alpha virt. eigenvalues --    0.91494   0.93247   0.93582   0.95535   0.99294
 Alpha virt. eigenvalues --    1.00211   1.01773   1.04000   1.04661   1.06915
 Alpha virt. eigenvalues --    1.08502   1.14880   1.15698   1.17816   1.21769
 Alpha virt. eigenvalues --    1.24291   1.29004   1.32753   1.36206   1.39890
 Alpha virt. eigenvalues --    1.43282   1.49132   1.49769   1.52167   1.58085
 Alpha virt. eigenvalues --    1.66210   1.71301   1.81457   1.87818   1.93008
 Alpha virt. eigenvalues --    1.96913   2.00557   2.07847   2.12432   2.13558
 Alpha virt. eigenvalues --    2.14711   2.16369   2.17693   2.20913   2.24600
 Alpha virt. eigenvalues --    2.26312   2.28542   2.30306   2.30632   2.33921
 Alpha virt. eigenvalues --    2.37120   2.39190   2.42025   2.43449   2.46523
 Alpha virt. eigenvalues --    2.47536   2.48174   2.52980   2.54343   2.56270
 Alpha virt. eigenvalues --    2.58005   2.60841   2.61907   2.67244   2.70343
 Alpha virt. eigenvalues --    2.72076   2.75473   2.77138   2.85287   2.86206
 Alpha virt. eigenvalues --    2.90636   3.03983   3.10040   3.13282   3.59475
 Alpha virt. eigenvalues --    3.65619   3.87878   3.92847   4.01127   4.09700
 Alpha virt. eigenvalues --    4.10261   4.17695   4.22181   4.25107   4.26466
 Alpha virt. eigenvalues --    4.37134   4.48899   4.51519   4.54665   4.67169
 Alpha virt. eigenvalues --    4.87724   4.95264   5.01647   5.13314   5.13851
 Alpha virt. eigenvalues --    5.20868   5.43693   5.83686   6.05430   6.11435
 Alpha virt. eigenvalues --    6.14475   6.29782   6.32756   6.44127   6.54590
 Alpha virt. eigenvalues --    6.55914   6.78037   6.79387   6.80852   6.82772
 Alpha virt. eigenvalues --    6.86875   6.88244   6.88718   6.97510   7.00987
 Alpha virt. eigenvalues --    7.06357   7.15850   7.24587   7.43992   7.68106
 Alpha virt. eigenvalues --    7.81346   8.08588   8.12118  13.98999  14.67548
          Condensed to atoms (all electrons):
              1          2          3          4          5
     1  O    8.166298  -0.164443   0.225660   0.001687  -0.020905
     2  O   -0.164443   8.240865   0.009000   0.197623  -0.017220
     3  H    0.225660   0.009000   0.544548   0.002228   0.001036
     4  H    0.001687   0.197623   0.002228   0.555085  -0.004229
     5  Kr  -0.020905  -0.017220   0.001036  -0.004229  36.032330
 Mulliken atomic charges:
              1
     1  O   -0.208297
     2  O   -0.265824
     3  H    0.217528
     4  H    0.247606
     5  Kr   0.008988
 Sum of Mulliken atomic charges =   0.00000
 Mulliken charges with hydrogens summed into heavy atoms:
              1
     1  O    0.009231
     2  O   -0.018219
     5  Kr   0.008988
 Sum of Mulliken charges with hydrogens summed into heavy atoms =   0.00000
 Electronic spatial extent (au):  <R**2>=            486.9919
 Charge=              0.0000 electrons
 Dipole moment (field-independent basis, Debye):
    X=              1.1824    Y=             -0.4051    Z=              1.4184  Tot=              1.8905
 Quadrupole moment (field-independent basis, Debye-Ang):
   XX=            -32.2240   YY=            -27.9707   ZZ=            -29.2262
   XY=              2.9489   XZ=             -3.6243   YZ=             -1.6858
 Traceless Quadrupole moment (field-independent basis, Debye-Ang):
   XX=             -2.4170   YY=              1.8363   ZZ=              0.5807
   XY=              2.9489   XZ=             -3.6243   YZ=             -1.6858
 Octapole moment (field-independent basis, Debye-Ang**2):
  XXX=             25.2587  YYY=             -1.0728  ZZZ=              1.0694  XYY=              4.4592
  XXY=            -10.3553  XXZ=              8.6651  XZZ=              5.3982  YZZ=             -1.6955
  YYZ=              2.0760  XYZ=              4.1959
 Hexadecapole moment (field-independent basis, Debye-Ang**3):
 XXXX=           -428.1051 YYYY=            -63.1929 ZZZZ=            -29.8987 XXXY=             26.0739
 XXXZ=            -22.0361 YYYX=              5.1058 YYYZ=             -2.3817 ZZZX=             -3.0827
 ZZZY=             -1.6838 XXYY=            -77.9348 XXZZ=            -71.6300 YYZZ=            -16.1555
 XXYZ=            -10.4200 YYXZ=             -4.9564 ZZXY=              3.5976
 N-N= 1.489179494746D+02 E-N=-7.236076884388D+03  KE= 2.900936246595D+03
 No NMR shielding tensors so no spin-rotation constants.
 Leave Link  601 at Thu Apr 16 12:45:29 2020, MaxMem= 1073741824 cpu:       0.8
 (Enter /home/matheus/.gaussian/g09/l108.exe)
 Variable Step   Value    
 -------- ---- -----------
     1       1    5.858151
 Leave Link  108 at Thu Apr 16 12:45:29 2020, MaxMem= 1073741824 cpu:       0.0
 (Enter /home/matheus/.gaussian/g09/l202.exe)
 ---------------------------------------------------------------------------------------------------
                            Z-MATRIX (ANGSTROMS AND DEGREES)
   CD    Cent   Atom    N1       Length/X        N2       Alpha/Y        N3        Beta/Z          J
 ---------------------------------------------------------------------------------------------------
      1      1  O        0   0.000000          0.000000          0.725000
      2      2  O        0   0.000000          0.000000         -0.725000
      3      3  H        0  -0.863315         -0.314221          1.023510
      4      4  H        0   0.000000          0.918721         -1.023510
      5      5  Kr       0   0.000000          3.100000          0.000000
 ---------------------------------------------------------------------------------------------------
                         Z-Matrix orientation:                         
 ---------------------------------------------------------------------
 Center     Atomic      Atomic             Coordinates (Angstroms)
 Number     Number       Type             X           Y           Z
 ---------------------------------------------------------------------
      1          8           0        0.000000    0.000000    0.725000
      2          8           0        0.000000    0.000000   -0.725000
      3          1           0       -0.863315   -0.314221    1.023510
      4          1           0        0.000000    0.918721   -1.023510
      5         36           0        0.000000    3.100000    0.000000
 ---------------------------------------------------------------------
                    Distance matrix (angstroms):
                    1          2          3          4          5
     1  O    0.000000
     2  O    1.450000   0.000000
     3  H    0.966000   1.975180   0.000000
     4  H    1.975180   0.966000   2.540817   0.000000
     5  Kr   3.183650   3.183650   3.667396   2.409472   0.000000
 Stoichiometry    H2KrO2
 Framework group  C1[X(H2KrO2)]
 Deg. of freedom     9
 Full point group                 C1      NOp   1
 RotChk:  IX=0 Diff= 1.68D-03
 Largest Abelian subgroup         C1      NOp   1
 Largest concise Abelian subgroup C1      NOp   1
                         Standard orientation:                         
 ---------------------------------------------------------------------
 Center     Atomic      Atomic             Coordinates (Angstroms)
 Number     Number       Type             X           Y           Z
 ---------------------------------------------------------------------
      1          8           0       -2.086026   -0.691909   -0.114642
      2          8           0       -2.068091    0.752503    0.011260
      3          1           0       -2.419709   -1.059655    0.713956
      4          1           0       -1.145903    1.037080    0.052994
      5         36           0        1.022182   -0.012838    0.001669
 ---------------------------------------------------------------------
 Rotational constants (GHZ):     25.7292432      2.1828757      2.0231414
 Leave Link  202 at Thu Apr 16 12:45:29 2020, MaxMem= 1073741824 cpu:       0.0
 (Enter /home/matheus/.gaussian/g09/l301.exe)
 Standard basis: Aug-CC-pVTZ (5D, 7F)
 Ernie: Thresh=  0.10000D-02 Tol=  0.10000D-05 Strict=F.
 Ernie:  38 primitive shells out of 205 were deleted.
 There are   197 symmetry adapted basis functions of A   symmetry.
 Integral buffers will be    131072 words long.
 Raffenetti 2 integral format.
 Two-electron integral symmetry is turned on.
   197 basis functions,   415 primitive gaussians,   229 cartesian basis functions
    27 alpha electrons       27 beta electrons
       nuclear repulsion energy       145.4585781027 Hartrees.
 IExCor= 4639 DFT=T Ex+Corr=wB97XD ExCW=0 ScaHFX=  1.000000
 ScaDFX=  1.000000  1.000000  1.000000  1.000000 ScalE2=  1.000000  1.000000
 IRadAn=      5 IRanWt=     -1 IRanGd=            0 ICorTp=0
  HFx wShort=  0.000000 wLong=  0.250000 cFull=  0.222036 cShort=  0.000000 cLong=  0.777964
  DFx wShort=  0.000000 wLong=  0.250000 cFull=  0.000000 cShort=  0.000000 cLong=  1.000000
 NAtoms=    5 NActive=    5 NUniq=    5 SFac= 1.00D+00 NAtFMM=   60 NAOKFM=F Big=F
 R6Disp: Dispersion energy =        -0.0009367396 Hartrees.
 Nuclear repulsion after empirical dispersion term =      145.4576413631 Hartrees.
 Leave Link  301 at Thu Apr 16 12:45:29 2020, MaxMem= 1073741824 cpu:       0.2
 (Enter /home/matheus/.gaussian/g09/l302.exe)
 NPDir=0 NMtPBC=     1 NCelOv=     1 NCel=       1 NClECP=     1 NCelD=      1
         NCelK=      1 NCelE2=     1 NClLst=     1 CellRange=     0.0.
 One-electron integrals computed using PRISM.
 NBasis=   197 RedAO= T  NBF=   197
 NBsUse=   197 1.00D-06 NBFU=   197
 Precomputing XC quadrature grid using
 IXCGrd= 2 IRadAn=           5 IRanWt=          -1 IRanGd=           0 AccXCQ= 0.00D+00.
 NRdTot=     427 NPtTot=      123512 NUsed=      126579 NTot=      126611
 NSgBfM=   229   229   229   229   229 NAtAll=     5     5.
 Leave Link  302 at Thu Apr 16 12:45:29 2020, MaxMem= 1073741824 cpu:       1.1
 (Enter /home/matheus/.gaussian/g09/l303.exe)
 DipDrv:  MaxL=1.
 Leave Link  303 at Thu Apr 16 12:45:29 2020, MaxMem= 1073741824 cpu:       0.2
 (Enter /home/matheus/.gaussian/g09/l401.exe)
 Initial guess read from the read-write file.
 B after Tr=     0.000000    0.000000    0.000000
         Rot=    1.000000    0.000000    0.000000    0.000000 Ang=   0.00 deg.
 Guess basis will be translated and rotated to current coordinates.
 Initial guess orbital symmetries:
       Occupied  (A) (A) (A) (A) (A) (A) (A) (A) (A) (A) (A) (A)
                 (A) (A) (A) (A) (A) (A) (A) (A) (A) (A) (A) (A)
                 (A) (A) (A)
       Virtual   (A) (A) (A) (A) (A) (A) (A) (A) (A) (A) (A) (A)
                 (A) (A) (A) (A) (A) (A) (A) (A) (A) (A) (A) (A)
                 (A) (A) (A) (A) (A) (A) (A) (A) (A) (A) (A) (A)
                 (A) (A) (A) (A) (A) (A) (A) (A) (A) (A) (A) (A)
                 (A) (A) (A) (A) (A) (A) (A) (A) (A) (A) (A) (A)
                 (A) (A) (A) (A) (A) (A) (A) (A) (A) (A) (A) (A)
                 (A) (A) (A) (A) (A) (A) (A) (A) (A) (A) (A) (A)
                 (A) (A) (A) (A) (A) (A) (A) (A) (A) (A) (A) (A)
                 (A) (A) (A) (A) (A) (A) (A) (A) (A) (A) (A) (A)
                 (A) (A) (A) (A) (A) (A) (A) (A) (A) (A) (A) (A)
                 (A) (A) (A) (A) (A) (A) (A) (A) (A) (A) (A) (A)
                 (A) (A) (A) (A) (A) (A) (A) (A) (A) (A) (A) (A)
                 (A) (A) (A) (A) (A) (A) (A) (A) (A) (A) (A) (A)
                 (A) (A) (A) (A) (A) (A) (A) (A) (A) (A) (A) (A)
                 (A) (A)
 The electronic state of the initial guess is 1-A.
 Generating alternative initial guess.
 Harris functional with IExCor= 4639 diagonalized for initial guess.
 ExpMin= 2.53D-02 ExpMax= 1.17D+07 ExpMxC= 1.33D+04 IAcc=3 IRadAn=         5 AccDes= 0.00D+00
 HarFok:  IExCor= 4639 AccDes= 0.00D+00 IRadAn=         5 IDoV= 1
 ScaDFX=  1.000000  1.000000  1.000000  1.000000
 FoFCou: FMM=F IPFlag=           0 FMFlag=      100000 FMFlg1=           0
         NFxFlg=           0 DoJE=T BraDBF=F KetDBF=T FulRan=T
         Omega=  0.000000  0.000000  1.000000  0.000000  0.000000 ICntrl=     500 IOpCl=  0
         NMat0=    1 NMatS0=    1 NMatT0=    0 NMatD0=    1 NMtDS0=    0 NMtDT0=    0
         I1Cent=           4 NGrid=           0.
 Petite list used in FoFCou.
 Harris En= -2875.40089238192    
 Leave Link  401 at Thu Apr 16 12:45:30 2020, MaxMem= 1073741824 cpu:       5.8
 (Enter /home/matheus/.gaussian/g09/l502.exe)
 Closed shell SCF:
 Requested convergence on RMS density matrix=1.00D-08 within 128 cycles.
 Requested convergence on MAX density matrix=1.00D-06.
 Requested convergence on             energy=1.00D-06.
 No special actions if energy rises.
 Using DIIS extrapolation, IDIIS=  1040.
 Integral symmetry usage will be decided dynamically.
       126521 words used for storage of precomputed grid.
 IEnd=      305468 IEndB=      305468 NGot=  1073741824 MDV=  1073505667
 LenX=  1073505667 LenY=  1073452785
 Fock matrices will be formed incrementally for  20 cycles.

 Cycle   1  Pass 1  IDiag  1:
 FoFJK:  IHMeth= 1 ICntrl=     0 DoSepK=T KAlg= 1 I1Cent= 0 FoldK=F
 FoFCou: FMM=F IPFlag=           0 FMFlag=      100000 FMFlg1=           0
         NFxFlg=           0 DoJE=T BraDBF=F KetDBF=F FulRan=T
         Omega=  0.000000  0.000000  1.000000  0.000000  0.000000 ICntrl=     500 IOpCl=  0
         NMat0=    1 NMatS0=    1 NMatT0=    0 NMatD0=    1 NMtDS0=    0 NMtDT0=    0
         I1Cent=           0 NGrid=           0.
 Symmetry not used in FoFCou.
 E= -2905.42906566373    
 DIIS: error= 1.20D-03 at cycle   1 NSaved=   1.
 NSaved= 1 IEnMin= 1 EnMin= -2905.42906566373     IErMin= 1 ErrMin= 1.20D-03
 ErrMax= 1.20D-03 EMaxC= 1.00D-01 BMatC= 5.30D-04 BMatP= 5.30D-04
 IDIUse=3 WtCom= 9.88D-01 WtEn= 1.20D-02
 Coeff-Com:  0.100D+01
 Coeff-En:   0.100D+01
 Coeff:      0.100D+01
 Gap=     0.435 Goal=   None    Shift=    0.000
 GapD=    0.435 DampG=2.000 DampE=1.000 DampFc=2.0000 IDamp=-1.
 RMSDP=7.60D-05 MaxDP=2.34D-03              OVMax= 3.23D-03

 Cycle   2  Pass 1  IDiag  1:
 RMSU=  5.38D-05    CP:  1.00D+00
 FoFJK:  IHMeth= 1 ICntrl=     0 DoSepK=T KAlg= 1 I1Cent= 0 FoldK=F
 E= -2905.42916680191     Delta-E=       -0.000101138179 Rises=F Damp=F
 DIIS: error= 9.45D-05 at cycle   2 NSaved=   2.
 NSaved= 2 IEnMin= 2 EnMin= -2905.42916680191     IErMin= 2 ErrMin= 9.45D-05
 ErrMax= 9.45D-05 EMaxC= 1.00D-01 BMatC= 5.22D-06 BMatP= 5.30D-04
 IDIUse=1 WtCom= 1.00D+00 WtEn= 0.00D+00
 Coeff-Com: -0.215D-03 0.100D+01
 Coeff:     -0.215D-03 0.100D+01
 Gap=     0.433 Goal=   None    Shift=    0.000
 RMSDP=1.68D-05 MaxDP=7.26D-04 DE=-1.01D-04 OVMax= 7.90D-04

 Cycle   3  Pass 1  IDiag  1:
 RMSU=  9.85D-06    CP:  1.00D+00  1.12D+00
 FoFJK:  IHMeth= 1 ICntrl=     0 DoSepK=T KAlg= 1 I1Cent= 0 FoldK=F
 E= -2905.42916950807     Delta-E=       -0.000002706161 Rises=F Damp=F
 DIIS: error= 9.94D-05 at cycle   3 NSaved=   3.
 NSaved= 3 IEnMin= 3 EnMin= -2905.42916950807     IErMin= 2 ErrMin= 9.45D-05
 ErrMax= 9.94D-05 EMaxC= 1.00D-01 BMatC= 4.49D-06 BMatP= 5.22D-06
 IDIUse=1 WtCom= 1.00D+00 WtEn= 0.00D+00
 Coeff-Com: -0.829D-02 0.483D+00 0.525D+00
 Coeff:     -0.829D-02 0.483D+00 0.525D+00
 Gap=     0.433 Goal=   None    Shift=    0.000
 RMSDP=5.98D-06 MaxDP=3.24D-04 DE=-2.71D-06 OVMax= 4.64D-04

 Cycle   4  Pass 1  IDiag  1:
 RMSU=  3.12D-06    CP:  1.00D+00  1.14D+00  7.25D-01
 FoFJK:  IHMeth= 1 ICntrl=     0 DoSepK=T KAlg= 1 I1Cent= 0 FoldK=F
 E= -2905.42917224164     Delta-E=       -0.000002733568 Rises=F Damp=F
 DIIS: error= 2.26D-05 at cycle   4 NSaved=   4.
 NSaved= 4 IEnMin= 4 EnMin= -2905.42917224164     IErMin= 4 ErrMin= 2.26D-05
 ErrMax= 2.26D-05 EMaxC= 1.00D-01 BMatC= 2.23D-07 BMatP= 4.49D-06
 IDIUse=1 WtCom= 1.00D+00 WtEn= 0.00D+00
 Coeff-Com: -0.269D-02 0.648D-01 0.184D+00 0.754D+00
 Coeff:     -0.269D-02 0.648D-01 0.184D+00 0.754D+00
 Gap=     0.433 Goal=   None    Shift=    0.000
 RMSDP=2.01D-06 MaxDP=6.32D-05 DE=-2.73D-06 OVMax= 1.16D-04

 Cycle   5  Pass 1  IDiag  1:
 RMSU=  1.11D-06    CP:  1.00D+00  1.15D+00  7.98D-01  1.02D+00
 FoFJK:  IHMeth= 1 ICntrl=     0 DoSepK=T KAlg= 1 I1Cent= 0 FoldK=F
 E= -2905.42917240243     Delta-E=       -0.000000160791 Rises=F Damp=F
 DIIS: error= 1.16D-05 at cycle   5 NSaved=   5.
 NSaved= 5 IEnMin= 5 EnMin= -2905.42917240243     IErMin= 5 ErrMin= 1.16D-05
 ErrMax= 1.16D-05 EMaxC= 1.00D-01 BMatC= 4.09D-08 BMatP= 2.23D-07
 IDIUse=1 WtCom= 1.00D+00 WtEn= 0.00D+00
 Coeff-Com:  0.182D-03-0.546D-01-0.887D-02 0.331D+00 0.732D+00
 Coeff:      0.182D-03-0.546D-01-0.887D-02 0.331D+00 0.732D+00
 Gap=     0.433 Goal=   None    Shift=    0.000
 RMSDP=9.86D-07 MaxDP=4.15D-05 DE=-1.61D-07 OVMax= 4.88D-05

 Cycle   6  Pass 1  IDiag  1:
 RMSU=  3.60D-07    CP:  1.00D+00  1.15D+00  8.35D-01  1.16D+00  9.12D-01
 FoFJK:  IHMeth= 1 ICntrl=     0 DoSepK=T KAlg= 1 I1Cent= 0 FoldK=F
 E= -2905.42917243551     Delta-E=       -0.000000033075 Rises=F Damp=F
 DIIS: error= 2.07D-06 at cycle   6 NSaved=   6.
 NSaved= 6 IEnMin= 6 EnMin= -2905.42917243551     IErMin= 6 ErrMin= 2.07D-06
 ErrMax= 2.07D-06 EMaxC= 1.00D-01 BMatC= 1.44D-09 BMatP= 4.09D-08
 IDIUse=1 WtCom= 1.00D+00 WtEn= 0.00D+00
 Coeff-Com:  0.188D-03-0.208D-01-0.123D-01 0.637D-01 0.227D+00 0.742D+00
 Coeff:      0.188D-03-0.208D-01-0.123D-01 0.637D-01 0.227D+00 0.742D+00
 Gap=     0.433 Goal=   None    Shift=    0.000
 RMSDP=1.97D-07 MaxDP=6.40D-06 DE=-3.31D-08 OVMax= 1.11D-05

 Cycle   7  Pass 1  IDiag  1:
 RMSU=  9.00D-08    CP:  1.00D+00  1.15D+00  8.40D-01  1.18D+00  9.70D-01
                    CP:  1.05D+00
 FoFJK:  IHMeth= 1 ICntrl=     0 DoSepK=T KAlg= 1 I1Cent= 0 FoldK=F
 E= -2905.42917243701     Delta-E=       -0.000000001508 Rises=F Damp=F
 DIIS: error= 4.19D-07 at cycle   7 NSaved=   7.
 NSaved= 7 IEnMin= 7 EnMin= -2905.42917243701     IErMin= 7 ErrMin= 4.19D-07
 ErrMax= 4.19D-07 EMaxC= 1.00D-01 BMatC= 7.08D-11 BMatP= 1.44D-09
 IDIUse=1 WtCom= 1.00D+00 WtEn= 0.00D+00
 Coeff-Com: -0.135D-04 0.554D-02 0.113D-02-0.347D-01-0.745D-01 0.168D-01
 Coeff-Com:  0.109D+01
 Coeff:     -0.135D-04 0.554D-02 0.113D-02-0.347D-01-0.745D-01 0.168D-01
 Coeff:      0.109D+01
 Gap=     0.433 Goal=   None    Shift=    0.000
 RMSDP=9.75D-08 MaxDP=3.79D-06 DE=-1.51D-09 OVMax= 6.29D-06

 Cycle   8  Pass 1  IDiag  1:
 RMSU=  2.86D-08    CP:  1.00D+00  1.15D+00  8.42D-01  1.19D+00  9.89D-01
                    CP:  1.18D+00  1.20D+00
 FoFJK:  IHMeth= 1 ICntrl=     0 DoSepK=T KAlg= 1 I1Cent= 0 FoldK=F
 E= -2905.42917243718     Delta-E=       -0.000000000168 Rises=F Damp=F
 DIIS: error= 7.22D-08 at cycle   8 NSaved=   8.
 NSaved= 8 IEnMin= 8 EnMin= -2905.42917243718     IErMin= 8 ErrMin= 7.22D-08
 ErrMax= 7.22D-08 EMaxC= 1.00D-01 BMatC= 3.63D-12 BMatP= 7.08D-11
 IDIUse=1 WtCom= 1.00D+00 WtEn= 0.00D+00
 Coeff-Com: -0.125D-04 0.213D-02 0.777D-03-0.103D-01-0.246D-01-0.269D-01
 Coeff-Com:  0.190D+00 0.869D+00
 Coeff:     -0.125D-04 0.213D-02 0.777D-03-0.103D-01-0.246D-01-0.269D-01
 Coeff:      0.190D+00 0.869D+00
 Gap=     0.433 Goal=   None    Shift=    0.000
 RMSDP=1.44D-08 MaxDP=4.04D-07 DE=-1.68D-10 OVMax= 1.10D-06

 Cycle   9  Pass 1  IDiag  1:
 RMSU=  6.14D-09    CP:  1.00D+00  1.15D+00  8.42D-01  1.19D+00  9.88D-01
                    CP:  1.18D+00  1.25D+00  1.21D+00
 FoFJK:  IHMeth= 1 ICntrl=     0 DoSepK=T KAlg= 1 I1Cent= 0 FoldK=F
 E= -2905.42917243719     Delta-E=       -0.000000000006 Rises=F Damp=F
 DIIS: error= 2.09D-08 at cycle   9 NSaved=   9.
 NSaved= 9 IEnMin= 9 EnMin= -2905.42917243719     IErMin= 9 ErrMin= 2.09D-08
 ErrMax= 2.09D-08 EMaxC= 1.00D-01 BMatC= 2.58D-13 BMatP= 3.63D-12
 IDIUse=1 WtCom= 1.00D+00 WtEn= 0.00D+00
 Coeff-Com:  0.993D-06-0.406D-03-0.102D-03 0.247D-02 0.586D-02-0.831D-03
 Coeff-Com: -0.864D-01 0.163D-01 0.106D+01
 Coeff:      0.993D-06-0.406D-03-0.102D-03 0.247D-02 0.586D-02-0.831D-03
 Coeff:     -0.864D-01 0.163D-01 0.106D+01
 Gap=     0.433 Goal=   None    Shift=    0.000
 RMSDP=6.84D-09 MaxDP=2.19D-07 DE=-5.91D-12 OVMax= 5.45D-07

 SCF Done:  E(RwB97XD) =  -2905.42917244     A.U. after    9 cycles
             Convg  =    0.6838D-08             -V/T =  2.0016
 KE= 2.900923220217D+03 PE=-7.229153630191D+03 EE= 1.277343596174D+03
 Leave Link  502 at Thu Apr 16 12:46:09 2020, MaxMem= 1073741824 cpu:     313.0
 (Enter /home/matheus/.gaussian/g09/l108.exe)
 Variable Step   Value    
 -------- ---- -----------
     1       2    6.047124
 Leave Link  108 at Thu Apr 16 12:46:09 2020, MaxMem= 1073741824 cpu:       0.0
 (Enter /home/matheus/.gaussian/g09/l202.exe)
 ---------------------------------------------------------------------------------------------------
                            Z-MATRIX (ANGSTROMS AND DEGREES)
   CD    Cent   Atom    N1       Length/X        N2       Alpha/Y        N3        Beta/Z          J
 ---------------------------------------------------------------------------------------------------
      1      1  O        0   0.000000          0.000000          0.725000
      2      2  O        0   0.000000          0.000000         -0.725000
      3      3  H        0  -0.863315         -0.314221          1.023510
      4      4  H        0   0.000000          0.918721         -1.023510
      5      5  Kr       0   0.000000          3.200000          0.000000
 ---------------------------------------------------------------------------------------------------
                         Z-Matrix orientation:                         
 ---------------------------------------------------------------------
 Center     Atomic      Atomic             Coordinates (Angstroms)
 Number     Number       Type             X           Y           Z
 ---------------------------------------------------------------------
      1          8           0        0.000000    0.000000    0.725000
      2          8           0        0.000000    0.000000   -0.725000
      3          1           0       -0.863315   -0.314221    1.023510
      4          1           0        0.000000    0.918721   -1.023510
      5         36           0        0.000000    3.200000    0.000000
 ---------------------------------------------------------------------
                    Distance matrix (angstroms):
                    1          2          3          4          5
     1  O    0.000000
     2  O    1.450000   0.000000
     3  H    0.966000   1.975180   0.000000
     4  H    1.975180   0.966000   2.540817   0.000000
     5  Kr   3.281101   3.281101   3.760670   2.500362   0.000000
 Stoichiometry    H2KrO2
 Framework group  C1[X(H2KrO2)]
 Deg. of freedom     9
 Full point group                 C1      NOp   1
 RotChk:  IX=0 Diff= 1.52D-03
 Largest Abelian subgroup         C1      NOp   1
 Largest concise Abelian subgroup C1      NOp   1
                         Standard orientation:                         
 ---------------------------------------------------------------------
 Center     Atomic      Atomic             Coordinates (Angstroms)
 Number     Number       Type             X           Y           Z
 ---------------------------------------------------------------------
      1          8           0       -2.152126   -0.692898   -0.114574
      2          8           0       -2.135408    0.751519    0.011441
      3          1           0       -2.484988   -1.061013    0.714190
      4          1           0       -1.213451    1.036917    0.052652
      5         36           0        1.055520   -0.012358    0.001617
 ---------------------------------------------------------------------
 Rotational constants (GHZ):     25.7283373      2.0487413      1.9073960
 Leave Link  202 at Thu Apr 16 12:46:09 2020, MaxMem= 1073741824 cpu:       0.0
 (Enter /home/matheus/.gaussian/g09/l301.exe)
 Standard basis: Aug-CC-pVTZ (5D, 7F)
 Ernie: Thresh=  0.10000D-02 Tol=  0.10000D-05 Strict=F.
 Ernie:  38 primitive shells out of 205 were deleted.
 There are   197 symmetry adapted basis functions of A   symmetry.
 Integral buffers will be    131072 words long.
 Raffenetti 2 integral format.
 Two-electron integral symmetry is turned on.
   197 basis functions,   415 primitive gaussians,   229 cartesian basis functions
    27 alpha electrons       27 beta electrons
       nuclear repulsion energy       142.1987415969 Hartrees.
 IExCor= 4639 DFT=T Ex+Corr=wB97XD ExCW=0 ScaHFX=  1.000000
 ScaDFX=  1.000000  1.000000  1.000000  1.000000 ScalE2=  1.000000  1.000000
 IRadAn=      5 IRanWt=     -1 IRanGd=            0 ICorTp=0
  HFx wShort=  0.000000 wLong=  0.250000 cFull=  0.222036 cShort=  0.000000 cLong=  0.777964
  DFx wShort=  0.000000 wLong=  0.250000 cFull=  0.000000 cShort=  0.000000 cLong=  1.000000
 NAtoms=    5 NActive=    5 NUniq=    5 SFac= 1.00D+00 NAtFMM=   60 NAOKFM=F Big=F
 R6Disp: Dispersion energy =        -0.0009824000 Hartrees.
 Nuclear repulsion after empirical dispersion term =      142.1977591970 Hartrees.
 Leave Link  301 at Thu Apr 16 12:46:09 2020, MaxMem= 1073741824 cpu:       0.2
 (Enter /home/matheus/.gaussian/g09/l302.exe)
 NPDir=0 NMtPBC=     1 NCelOv=     1 NCel=       1 NClECP=     1 NCelD=      1
         NCelK=      1 NCelE2=     1 NClLst=     1 CellRange=     0.0.
 One-electron integrals computed using PRISM.
 NBasis=   197 RedAO= T  NBF=   197
 NBsUse=   197 1.00D-06 NBFU=   197
 Precomputing XC quadrature grid using
 IXCGrd= 2 IRadAn=           5 IRanWt=          -1 IRanGd=           0 AccXCQ= 0.00D+00.
 NRdTot=     427 NPtTot=      123512 NUsed=      126579 NTot=      126611
 NSgBfM=   229   229   229   229   229 NAtAll=     5     5.
 Leave Link  302 at Thu Apr 16 12:46:09 2020, MaxMem= 1073741824 cpu:       1.0
 (Enter /home/matheus/.gaussian/g09/l303.exe)
 DipDrv:  MaxL=1.
 Leave Link  303 at Thu Apr 16 12:46:09 2020, MaxMem= 1073741824 cpu:       0.2
 (Enter /home/matheus/.gaussian/g09/l401.exe)
 Initial guess read from the read-write file.
 B after Tr=     0.000000    0.000000    0.000000
         Rot=    1.000000    0.000000    0.000000    0.000000 Ang=   0.00 deg.
 Guess basis will be translated and rotated to current coordinates.
 Initial guess orbital symmetries:
       Occupied  (A) (A) (A) (A) (A) (A) (A) (A) (A) (A) (A) (A)
                 (A) (A) (A) (A) (A) (A) (A) (A) (A) (A) (A) (A)
                 (A) (A) (A)
       Virtual   (A) (A) (A) (A) (A) (A) (A) (A) (A) (A) (A) (A)
                 (A) (A) (A) (A) (A) (A) (A) (A) (A) (A) (A) (A)
                 (A) (A) (A) (A) (A) (A) (A) (A) (A) (A) (A) (A)
                 (A) (A) (A) (A) (A) (A) (A) (A) (A) (A) (A) (A)
                 (A) (A) (A) (A) (A) (A) (A) (A) (A) (A) (A) (A)
                 (A) (A) (A) (A) (A) (A) (A) (A) (A) (A) (A) (A)
                 (A) (A) (A) (A) (A) (A) (A) (A) (A) (A) (A) (A)
                 (A) (A) (A) (A) (A) (A) (A) (A) (A) (A) (A) (A)
                 (A) (A) (A) (A) (A) (A) (A) (A) (A) (A) (A) (A)
                 (A) (A) (A) (A) (A) (A) (A) (A) (A) (A) (A) (A)
                 (A) (A) (A) (A) (A) (A) (A) (A) (A) (A) (A) (A)
                 (A) (A) (A) (A) (A) (A) (A) (A) (A) (A) (A) (A)
                 (A) (A) (A) (A) (A) (A) (A) (A) (A) (A) (A) (A)
                 (A) (A) (A) (A) (A) (A) (A) (A) (A) (A) (A) (A)
                 (A) (A)
 The electronic state of the initial guess is 1-A.
 Generating alternative initial guess.
 Harris functional with IExCor= 4639 diagonalized for initial guess.
 ExpMin= 2.53D-02 ExpMax= 1.17D+07 ExpMxC= 1.33D+04 IAcc=3 IRadAn=         5 AccDes= 0.00D+00
 HarFok:  IExCor= 4639 AccDes= 0.00D+00 IRadAn=         5 IDoV= 1
 ScaDFX=  1.000000  1.000000  1.000000  1.000000
 FoFCou: FMM=F IPFlag=           0 FMFlag=      100000 FMFlg1=           0
         NFxFlg=           0 DoJE=T BraDBF=F KetDBF=T FulRan=T
         Omega=  0.000000  0.000000  1.000000  0.000000  0.000000 ICntrl=     500 IOpCl=  0
         NMat0=    1 NMatS0=    1 NMatT0=    0 NMatD0=    1 NMtDS0=    0 NMtDT0=    0
         I1Cent=           4 NGrid=           0.
 Petite list used in FoFCou.
 Harris En= -2875.40320871984    
 Leave Link  401 at Thu Apr 16 12:46:10 2020, MaxMem= 1073741824 cpu:       5.8
 (Enter /home/matheus/.gaussian/g09/l502.exe)
 Closed shell SCF:
 Requested convergence on RMS density matrix=1.00D-08 within 128 cycles.
 Requested convergence on MAX density matrix=1.00D-06.
 Requested convergence on             energy=1.00D-06.
 No special actions if energy rises.
 Using DIIS extrapolation, IDIIS=  1040.
 Integral symmetry usage will be decided dynamically.
       126521 words used for storage of precomputed grid.
 IEnd=      305468 IEndB=      305468 NGot=  1073741824 MDV=  1073505667
 LenX=  1073505667 LenY=  1073452785
 Fock matrices will be formed incrementally for  20 cycles.

 Cycle   1  Pass 1  IDiag  1:
 FoFJK:  IHMeth= 1 ICntrl=     0 DoSepK=T KAlg= 1 I1Cent= 0 FoldK=F
 FoFCou: FMM=F IPFlag=           0 FMFlag=      100000 FMFlg1=           0
         NFxFlg=           0 DoJE=T BraDBF=F KetDBF=F FulRan=T
         Omega=  0.000000  0.000000  1.000000  0.000000  0.000000 ICntrl=     500 IOpCl=  0
         NMat0=    1 NMatS0=    1 NMatT0=    0 NMatD0=    1 NMtDS0=    0 NMtDT0=    0
         I1Cent=           0 NGrid=           0.
 Symmetry not used in FoFCou.
 E= -2905.43023826566    
 DIIS: error= 1.01D-03 at cycle   1 NSaved=   1.
 NSaved= 1 IEnMin= 1 EnMin= -2905.43023826566     IErMin= 1 ErrMin= 1.01D-03
 ErrMax= 1.01D-03 EMaxC= 1.00D-01 BMatC= 4.08D-04 BMatP= 4.08D-04
 IDIUse=3 WtCom= 9.90D-01 WtEn= 1.01D-02
 Coeff-Com:  0.100D+01
 Coeff-En:   0.100D+01
 Coeff:      0.100D+01
 Gap=     0.435 Goal=   None    Shift=    0.000
 GapD=    0.435 DampG=2.000 DampE=1.000 DampFc=2.0000 IDamp=-1.
 RMSDP=6.89D-05 MaxDP=2.00D-03              OVMax= 2.96D-03

 Cycle   2  Pass 1  IDiag  1:
 RMSU=  4.87D-05    CP:  1.00D+00
 FoFJK:  IHMeth= 1 ICntrl=     0 DoSepK=T KAlg= 1 I1Cent= 0 FoldK=F
 E= -2905.43031478865     Delta-E=       -0.000076522989 Rises=F Damp=F
 DIIS: error= 7.59D-05 at cycle   2 NSaved=   2.
 NSaved= 2 IEnMin= 2 EnMin= -2905.43031478865     IErMin= 2 ErrMin= 7.59D-05
 ErrMax= 7.59D-05 EMaxC= 1.00D-01 BMatC= 3.48D-06 BMatP= 4.08D-04
 IDIUse=1 WtCom= 1.00D+00 WtEn= 0.00D+00
 Coeff-Com: -0.233D-02 0.100D+01
 Coeff:     -0.233D-02 0.100D+01
 Gap=     0.433 Goal=   None    Shift=    0.000
 RMSDP=1.44D-05 MaxDP=5.64D-04 DE=-7.65D-05 OVMax= 6.93D-04

 Cycle   3  Pass 1  IDiag  1:
 RMSU=  8.12D-06    CP:  1.00D+00  1.13D+00
 FoFJK:  IHMeth= 1 ICntrl=     0 DoSepK=T KAlg= 1 I1Cent= 0 FoldK=F
 E= -2905.43031678384     Delta-E=       -0.000001995191 Rises=F Damp=F
 DIIS: error= 7.85D-05 at cycle   3 NSaved=   3.
 NSaved= 3 IEnMin= 3 EnMin= -2905.43031678384     IErMin= 2 ErrMin= 7.59D-05
 ErrMax= 7.85D-05 EMaxC= 1.00D-01 BMatC= 2.99D-06 BMatP= 3.48D-06
 IDIUse=1 WtCom= 1.00D+00 WtEn= 0.00D+00
 Coeff-Com: -0.806D-02 0.483D+00 0.525D+00
 Coeff:     -0.806D-02 0.483D+00 0.525D+00
 Gap=     0.434 Goal=   None    Shift=    0.000
 RMSDP=4.95D-06 MaxDP=2.63D-04 DE=-2.00D-06 OVMax= 3.87D-04

 Cycle   4  Pass 1  IDiag  1:
 RMSU=  2.70D-06    CP:  1.00D+00  1.14D+00  7.48D-01
 FoFJK:  IHMeth= 1 ICntrl=     0 DoSepK=T KAlg= 1 I1Cent= 0 FoldK=F
 E= -2905.43031861002     Delta-E=       -0.000001826176 Rises=F Damp=F
 DIIS: error= 2.06D-05 at cycle   4 NSaved=   4.
 NSaved= 4 IEnMin= 4 EnMin= -2905.43031861002     IErMin= 4 ErrMin= 2.06D-05
 ErrMax= 2.06D-05 EMaxC= 1.00D-01 BMatC= 1.59D-07 BMatP= 2.99D-06
 IDIUse=1 WtCom= 1.00D+00 WtEn= 0.00D+00
 Coeff-Com: -0.234D-02 0.499D-01 0.182D+00 0.771D+00
 Coeff:     -0.234D-02 0.499D-01 0.182D+00 0.771D+00
 Gap=     0.434 Goal=   None    Shift=    0.000
 RMSDP=1.81D-06 MaxDP=6.16D-05 DE=-1.83D-06 OVMax= 1.08D-04

 Cycle   5  Pass 1  IDiag  1:
 RMSU=  9.38D-07    CP:  1.00D+00  1.15D+00  8.35D-01  1.04D+00
 FoFJK:  IHMeth= 1 ICntrl=     0 DoSepK=T KAlg= 1 I1Cent= 0 FoldK=F
 E= -2905.43031872803     Delta-E=       -0.000000118018 Rises=F Damp=F
 DIIS: error= 9.16D-06 at cycle   5 NSaved=   5.
 NSaved= 5 IEnMin= 5 EnMin= -2905.43031872803     IErMin= 5 ErrMin= 9.16D-06
 ErrMax= 9.16D-06 EMaxC= 1.00D-01 BMatC= 2.75D-08 BMatP= 1.59D-07
 IDIUse=1 WtCom= 1.00D+00 WtEn= 0.00D+00
 Coeff-Com:  0.213D-03-0.556D-01-0.389D-02 0.334D+00 0.725D+00
 Coeff:      0.213D-03-0.556D-01-0.389D-02 0.334D+00 0.725D+00
 Gap=     0.434 Goal=   None    Shift=    0.000
 RMSDP=8.48D-07 MaxDP=3.51D-05 DE=-1.18D-07 OVMax= 4.24D-05

 Cycle   6  Pass 1  IDiag  1:
 RMSU=  3.00D-07    CP:  1.00D+00  1.16D+00  8.73D-01  1.17D+00  9.12D-01
 FoFJK:  IHMeth= 1 ICntrl=     0 DoSepK=T KAlg= 1 I1Cent= 0 FoldK=F
 E= -2905.43031875043     Delta-E=       -0.000000022399 Rises=F Damp=F
 DIIS: error= 1.66D-06 at cycle   6 NSaved=   6.
 NSaved= 6 IEnMin= 6 EnMin= -2905.43031875043     IErMin= 6 ErrMin= 1.66D-06
 ErrMax= 1.66D-06 EMaxC= 1.00D-01 BMatC= 9.84D-10 BMatP= 2.75D-08
 IDIUse=1 WtCom= 1.00D+00 WtEn= 0.00D+00
 Coeff-Com:  0.180D-03-0.199D-01-0.105D-01 0.614D-01 0.221D+00 0.748D+00
 Coeff:      0.180D-03-0.199D-01-0.105D-01 0.614D-01 0.221D+00 0.748D+00
 Gap=     0.434 Goal=   None    Shift=    0.000
 RMSDP=1.69D-07 MaxDP=5.87D-06 DE=-2.24D-08 OVMax= 9.98D-06

 Cycle   7  Pass 1  IDiag  1:
 RMSU=  7.51D-08    CP:  1.00D+00  1.16D+00  8.79D-01  1.19D+00  9.70D-01
                    CP:  1.04D+00
 FoFJK:  IHMeth= 1 ICntrl=     0 DoSepK=T KAlg= 1 I1Cent= 0 FoldK=F
 E= -2905.43031875152     Delta-E=       -0.000000001086 Rises=F Damp=F
 DIIS: error= 3.73D-07 at cycle   7 NSaved=   7.
 NSaved= 7 IEnMin= 7 EnMin= -2905.43031875152     IErMin= 7 ErrMin= 3.73D-07
 ErrMax= 3.73D-07 EMaxC= 1.00D-01 BMatC= 5.49D-11 BMatP= 9.84D-10
 IDIUse=1 WtCom= 1.00D+00 WtEn= 0.00D+00
 Coeff-Com: -0.171D-04 0.591D-02 0.609D-03-0.371D-01-0.772D-01 0.252D-01
 Coeff-Com:  0.108D+01
 Coeff:     -0.171D-04 0.591D-02 0.609D-03-0.371D-01-0.772D-01 0.252D-01
 Coeff:      0.108D+01
 Gap=     0.434 Goal=   None    Shift=    0.000
 RMSDP=8.28D-08 MaxDP=3.22D-06 DE=-1.09D-09 OVMax= 5.71D-06

 Cycle   8  Pass 1  IDiag  1:
 RMSU=  2.53D-08    CP:  1.00D+00  1.16D+00  8.81D-01  1.20D+00  9.88D-01
                    CP:  1.17D+00  1.21D+00
 FoFJK:  IHMeth= 1 ICntrl=     0 DoSepK=T KAlg= 1 I1Cent= 0 FoldK=F
 E= -2905.43031875165     Delta-E=       -0.000000000133 Rises=F Damp=F
 DIIS: error= 7.00D-08 at cycle   8 NSaved=   8.
 NSaved= 8 IEnMin= 8 EnMin= -2905.43031875165     IErMin= 8 ErrMin= 7.00D-08
 ErrMax= 7.00D-08 EMaxC= 1.00D-01 BMatC= 2.78D-12 BMatP= 5.49D-11
 IDIUse=1 WtCom= 1.00D+00 WtEn= 0.00D+00
 Coeff-Com: -0.125D-04 0.208D-02 0.567D-03-0.102D-01-0.237D-01-0.257D-01
 Coeff-Com:  0.177D+00 0.880D+00
 Coeff:     -0.125D-04 0.208D-02 0.567D-03-0.102D-01-0.237D-01-0.257D-01
 Coeff:      0.177D+00 0.880D+00
 Gap=     0.434 Goal=   None    Shift=    0.000
 RMSDP=1.33D-08 MaxDP=3.14D-07 DE=-1.33D-10 OVMax= 1.05D-06

 Cycle   9  Pass 1  IDiag  1:
 RMSU=  5.63D-09    CP:  1.00D+00  1.16D+00  8.81D-01  1.20D+00  9.88D-01
                    CP:  1.18D+00  1.27D+00  1.24D+00
 FoFJK:  IHMeth= 1 ICntrl=     0 DoSepK=T KAlg= 1 I1Cent= 0 FoldK=F
 E= -2905.43031875165     Delta-E=        0.000000000004 Rises=F Damp=F
 DIIS: error= 2.08D-08 at cycle   9 NSaved=   9.
 NSaved= 9 IEnMin= 8 EnMin= -2905.43031875165     IErMin= 9 ErrMin= 2.08D-08
 ErrMax= 2.08D-08 EMaxC= 1.00D-01 BMatC= 2.63D-13 BMatP= 2.78D-12
 IDIUse=1 WtCom= 1.00D+00 WtEn= 0.00D+00
 Coeff-Com:  0.187D-05-0.586D-03-0.881D-04 0.349D-02 0.802D-02-0.148D-02
 Coeff-Com: -0.107D+00-0.149D-02 0.110D+01
 Coeff:      0.187D-05-0.586D-03-0.881D-04 0.349D-02 0.802D-02-0.148D-02
 Coeff:     -0.107D+00-0.149D-02 0.110D+01
 Gap=     0.434 Goal=   None    Shift=    0.000
 RMSDP=7.22D-09 MaxDP=2.41D-07 DE= 3.64D-12 OVMax= 5.78D-07

 SCF Done:  E(RwB97XD) =  -2905.43031875     A.U. after    9 cycles
             Convg  =    0.7224D-08             -V/T =  2.0016
 KE= 2.900914813286D+03 PE=-7.222637623942D+03 EE= 1.274094732707D+03
 Leave Link  502 at Thu Apr 16 12:46:48 2020, MaxMem= 1073741824 cpu:     300.7
 (Enter /home/matheus/.gaussian/g09/l108.exe)
 Variable Step   Value    
 -------- ---- -----------
     1       3    6.236096
 Leave Link  108 at Thu Apr 16 12:46:48 2020, MaxMem= 1073741824 cpu:       0.0
 (Enter /home/matheus/.gaussian/g09/l202.exe)
 ---------------------------------------------------------------------------------------------------
                            Z-MATRIX (ANGSTROMS AND DEGREES)
   CD    Cent   Atom    N1       Length/X        N2       Alpha/Y        N3        Beta/Z          J
 ---------------------------------------------------------------------------------------------------
      1      1  O        0   0.000000          0.000000          0.725000
      2      2  O        0   0.000000          0.000000         -0.725000
      3      3  H        0  -0.863315         -0.314221          1.023510
      4      4  H        0   0.000000          0.918721         -1.023510
      5      5  Kr       0   0.000000          3.300000          0.000000
 ---------------------------------------------------------------------------------------------------
                         Z-Matrix orientation:                         
 ---------------------------------------------------------------------
 Center     Atomic      Atomic             Coordinates (Angstroms)
 Number     Number       Type             X           Y           Z
 ---------------------------------------------------------------------
      1          8           0        0.000000    0.000000    0.725000
      2          8           0        0.000000    0.000000   -0.725000
      3          1           0       -0.863315   -0.314221    1.023510
      4          1           0        0.000000    0.918721   -1.023510
      5         36           0        0.000000    3.300000    0.000000
 ---------------------------------------------------------------------
                    Distance matrix (angstroms):
                    1          2          3          4          5
     1  O    0.000000
     2  O    1.450000   0.000000
     3  H    0.966000   1.975180   0.000000
     4  H    1.975180   0.966000   2.540817   0.000000
     5  Kr   3.378702   3.378702   3.854281   2.591923   0.000000
 Stoichiometry    H2KrO2
 Framework group  C1[X(H2KrO2)]
 Deg. of freedom     9
 Full point group                 C1      NOp   1
 RotChk:  IX=0 Diff= 1.39D-03
 Largest Abelian subgroup         C1      NOp   1
 Largest concise Abelian subgroup C1      NOp   1
                         Standard orientation:                         
 ---------------------------------------------------------------------
 Center     Atomic      Atomic             Coordinates (Angstroms)
 Number     Number       Type             X           Y           Z
 ---------------------------------------------------------------------
      1          8           0       -2.218282   -0.693810   -0.114511
      2          8           0       -2.202660    0.750610    0.011609
      3          1           0       -2.550390   -1.062259    0.714408
      4          1           0       -1.280910    1.036749    0.052334
      5         36           0        1.088857   -0.011914    0.001569
 ---------------------------------------------------------------------
 Rotational constants (GHZ):     25.7275139      1.9265757      1.8010659
 Leave Link  202 at Thu Apr 16 12:46:48 2020, MaxMem= 1073741824 cpu:       0.0
 (Enter /home/matheus/.gaussian/g09/l301.exe)
 Standard basis: Aug-CC-pVTZ (5D, 7F)
 Ernie: Thresh=  0.10000D-02 Tol=  0.10000D-05 Strict=F.
 Ernie:  38 primitive shells out of 205 were deleted.
 There are   197 symmetry adapted basis functions of A   symmetry.
 Integral buffers will be    131072 words long.
 Raffenetti 2 integral format.
 Two-electron integral symmetry is turned on.
   197 basis functions,   415 primitive gaussians,   229 cartesian basis functions
    27 alpha electrons       27 beta electrons
       nuclear repulsion energy       139.1230328590 Hartrees.
 IExCor= 4639 DFT=T Ex+Corr=wB97XD ExCW=0 ScaHFX=  1.000000
 ScaDFX=  1.000000  1.000000  1.000000  1.000000 ScalE2=  1.000000  1.000000
 IRadAn=      5 IRanWt=     -1 IRanGd=            0 ICorTp=0
  HFx wShort=  0.000000 wLong=  0.250000 cFull=  0.222036 cShort=  0.000000 cLong=  0.777964
  DFx wShort=  0.000000 wLong=  0.250000 cFull=  0.000000 cShort=  0.000000 cLong=  1.000000
 NAtoms=    5 NActive=    5 NUniq=    5 SFac= 1.00D+00 NAtFMM=   60 NAOKFM=F Big=F
 R6Disp: Dispersion energy =        -0.0010216502 Hartrees.
 Nuclear repulsion after empirical dispersion term =      139.1220112087 Hartrees.
 Leave Link  301 at Thu Apr 16 12:46:48 2020, MaxMem= 1073741824 cpu:       0.3
 (Enter /home/matheus/.gaussian/g09/l302.exe)
 NPDir=0 NMtPBC=     1 NCelOv=     1 NCel=       1 NClECP=     1 NCelD=      1
         NCelK=      1 NCelE2=     1 NClLst=     1 CellRange=     0.0.
 One-electron integrals computed using PRISM.
 NBasis=   197 RedAO= T  NBF=   197
 NBsUse=   197 1.00D-06 NBFU=   197
 Precomputing XC quadrature grid using
 IXCGrd= 2 IRadAn=           5 IRanWt=          -1 IRanGd=           0 AccXCQ= 0.00D+00.
 NRdTot=     427 NPtTot=      123512 NUsed=      126579 NTot=      126611
 NSgBfM=   229   229   229   229   229 NAtAll=     5     5.
 Leave Link  302 at Thu Apr 16 12:46:48 2020, MaxMem= 1073741824 cpu:       1.1
 (Enter /home/matheus/.gaussian/g09/l303.exe)
 DipDrv:  MaxL=1.
 Leave Link  303 at Thu Apr 16 12:46:48 2020, MaxMem= 1073741824 cpu:       0.2
 (Enter /home/matheus/.gaussian/g09/l401.exe)
 Initial guess read from the read-write file.
 B after Tr=     0.000000    0.000000    0.000000
         Rot=    1.000000    0.000000    0.000000    0.000000 Ang=   0.00 deg.
 Guess basis will be translated and rotated to current coordinates.
 Initial guess orbital symmetries:
       Occupied  (A) (A) (A) (A) (A) (A) (A) (A) (A) (A) (A) (A)
                 (A) (A) (A) (A) (A) (A) (A) (A) (A) (A) (A) (A)
                 (A) (A) (A)
       Virtual   (A) (A) (A) (A) (A) (A) (A) (A) (A) (A) (A) (A)
                 (A) (A) (A) (A) (A) (A) (A) (A) (A) (A) (A) (A)
                 (A) (A) (A) (A) (A) (A) (A) (A) (A) (A) (A) (A)
                 (A) (A) (A) (A) (A) (A) (A) (A) (A) (A) (A) (A)
                 (A) (A) (A) (A) (A) (A) (A) (A) (A) (A) (A) (A)
                 (A) (A) (A) (A) (A) (A) (A) (A) (A) (A) (A) (A)
                 (A) (A) (A) (A) (A) (A) (A) (A) (A) (A) (A) (A)
                 (A) (A) (A) (A) (A) (A) (A) (A) (A) (A) (A) (A)
                 (A) (A) (A) (A) (A) (A) (A) (A) (A) (A) (A) (A)
                 (A) (A) (A) (A) (A) (A) (A) (A) (A) (A) (A) (A)
                 (A) (A) (A) (A) (A) (A) (A) (A) (A) (A) (A) (A)
                 (A) (A) (A) (A) (A) (A) (A) (A) (A) (A) (A) (A)
                 (A) (A) (A) (A) (A) (A) (A) (A) (A) (A) (A) (A)
                 (A) (A) (A) (A) (A) (A) (A) (A) (A) (A) (A) (A)
                 (A) (A)
 The electronic state of the initial guess is 1-A.
 Generating alternative initial guess.
 Harris functional with IExCor= 4639 diagonalized for initial guess.
 ExpMin= 2.53D-02 ExpMax= 1.17D+07 ExpMxC= 1.33D+04 IAcc=3 IRadAn=         5 AccDes= 0.00D+00
 HarFok:  IExCor= 4639 AccDes= 0.00D+00 IRadAn=         5 IDoV= 1
 ScaDFX=  1.000000  1.000000  1.000000  1.000000
 FoFCou: FMM=F IPFlag=           0 FMFlag=      100000 FMFlg1=           0
         NFxFlg=           0 DoJE=T BraDBF=F KetDBF=T FulRan=T
         Omega=  0.000000  0.000000  1.000000  0.000000  0.000000 ICntrl=     500 IOpCl=  0
         NMat0=    1 NMatS0=    1 NMatT0=    0 NMatD0=    1 NMtDS0=    0 NMtDT0=    0
         I1Cent=           4 NGrid=           0.
 Petite list used in FoFCou.
 Harris En= -2875.40484341598    
 Leave Link  401 at Thu Apr 16 12:46:49 2020, MaxMem= 1073741824 cpu:       6.0
 (Enter /home/matheus/.gaussian/g09/l502.exe)
 Closed shell SCF:
 Requested convergence on RMS density matrix=1.00D-08 within 128 cycles.
 Requested convergence on MAX density matrix=1.00D-06.
 Requested convergence on             energy=1.00D-06.
 No special actions if energy rises.
 Using DIIS extrapolation, IDIIS=  1040.
 Integral symmetry usage will be decided dynamically.
       126521 words used for storage of precomputed grid.
 IEnd=      305468 IEndB=      305468 NGot=  1073741824 MDV=  1073505667
 LenX=  1073505667 LenY=  1073452785
 Fock matrices will be formed incrementally for  20 cycles.

 Cycle   1  Pass 1  IDiag  1:
 FoFJK:  IHMeth= 1 ICntrl=     0 DoSepK=T KAlg= 1 I1Cent= 0 FoldK=F
 FoFCou: FMM=F IPFlag=           0 FMFlag=      100000 FMFlg1=           0
         NFxFlg=           0 DoJE=T BraDBF=F KetDBF=F FulRan=T
         Omega=  0.000000  0.000000  1.000000  0.000000  0.000000 ICntrl=     500 IOpCl=  0
         NMat0=    1 NMatS0=    1 NMatT0=    0 NMatD0=    1 NMtDS0=    0 NMtDT0=    0
         I1Cent=           0 NGrid=           0.
 Symmetry not used in FoFCou.
 E= -2905.43098797929    
 DIIS: error= 9.24D-04 at cycle   1 NSaved=   1.
 NSaved= 1 IEnMin= 1 EnMin= -2905.43098797929     IErMin= 1 ErrMin= 9.24D-04
 ErrMax= 9.24D-04 EMaxC= 1.00D-01 BMatC= 3.06D-04 BMatP= 3.06D-04
 IDIUse=3 WtCom= 9.91D-01 WtEn= 9.24D-03
 Coeff-Com:  0.100D+01
 Coeff-En:   0.100D+01
 Coeff:      0.100D+01
 Gap=     0.435 Goal=   None    Shift=    0.000
 RMSDP=6.33D-05 MaxDP=1.92D-03              OVMax= 2.73D-03

 Cycle   2  Pass 1  IDiag  1:
 RMSU=  4.48D-05    CP:  1.00D+00
 FoFJK:  IHMeth= 1 ICntrl=     0 DoSepK=T KAlg= 1 I1Cent= 0 FoldK=F
 E= -2905.43104662344     Delta-E=       -0.000058644152 Rises=F Damp=F
 DIIS: error= 7.35D-05 at cycle   2 NSaved=   2.
 NSaved= 2 IEnMin= 2 EnMin= -2905.43104662344     IErMin= 2 ErrMin= 7.35D-05
 ErrMax= 7.35D-05 EMaxC= 1.00D-01 BMatC= 2.35D-06 BMatP= 3.06D-04
 IDIUse=1 WtCom= 1.00D+00 WtEn= 0.00D+00
 Coeff-Com: -0.423D-02 0.100D+01
 Coeff:     -0.423D-02 0.100D+01
 Gap=     0.434 Goal=   None    Shift=    0.000
 RMSDP=1.25D-05 MaxDP=4.51D-04 DE=-5.86D-05 OVMax= 6.39D-04

 Cycle   3  Pass 1  IDiag  1:
 RMSU=  6.66D-06    CP:  1.00D+00  1.13D+00
 FoFJK:  IHMeth= 1 ICntrl=     0 DoSepK=T KAlg= 1 I1Cent= 0 FoldK=F
 E= -2905.43104814721     Delta-E=       -0.000001523771 Rises=F Damp=F
 DIIS: error= 6.18D-05 at cycle   3 NSaved=   3.
 NSaved= 3 IEnMin= 3 EnMin= -2905.43104814721     IErMin= 3 ErrMin= 6.18D-05
 ErrMax= 6.18D-05 EMaxC= 1.00D-01 BMatC= 2.00D-06 BMatP= 2.35D-06
 IDIUse=1 WtCom= 1.00D+00 WtEn= 0.00D+00
 Coeff-Com: -0.815D-02 0.482D+00 0.526D+00
 Coeff:     -0.815D-02 0.482D+00 0.526D+00
 Gap=     0.434 Goal=   None    Shift=    0.000
 RMSDP=4.12D-06 MaxDP=2.14D-04 DE=-1.52D-06 OVMax= 3.22D-04

 Cycle   4  Pass 1  IDiag  1:
 RMSU=  2.35D-06    CP:  1.00D+00  1.15D+00  7.69D-01
 FoFJK:  IHMeth= 1 ICntrl=     0 DoSepK=T KAlg= 1 I1Cent= 0 FoldK=F
 E= -2905.43104936992     Delta-E=       -0.000001222711 Rises=F Damp=F
 DIIS: error= 1.83D-05 at cycle   4 NSaved=   4.
 NSaved= 4 IEnMin= 4 EnMin= -2905.43104936992     IErMin= 4 ErrMin= 1.83D-05
 ErrMax= 1.83D-05 EMaxC= 1.00D-01 BMatC= 1.16D-07 BMatP= 2.00D-06
 IDIUse=1 WtCom= 1.00D+00 WtEn= 0.00D+00
 Coeff-Com: -0.210D-02 0.337D-01 0.182D+00 0.787D+00
 Coeff:     -0.210D-02 0.337D-01 0.182D+00 0.787D+00
 Gap=     0.434 Goal=   None    Shift=    0.000
 RMSDP=1.64D-06 MaxDP=5.76D-05 DE=-1.22D-06 OVMax= 1.00D-04

 Cycle   5  Pass 1  IDiag  1:
 RMSU=  7.96D-07    CP:  1.00D+00  1.16D+00  8.70D-01  1.06D+00
 FoFJK:  IHMeth= 1 ICntrl=     0 DoSepK=T KAlg= 1 I1Cent= 0 FoldK=F
 E= -2905.43104945870     Delta-E=       -0.000000088783 Rises=F Damp=F
 DIIS: error= 7.56D-06 at cycle   5 NSaved=   5.
 NSaved= 5 IEnMin= 5 EnMin= -2905.43104945870     IErMin= 5 ErrMin= 7.56D-06
 ErrMax= 7.56D-06 EMaxC= 1.00D-01 BMatC= 1.86D-08 BMatP= 1.16D-07
 IDIUse=1 WtCom= 1.00D+00 WtEn= 0.00D+00
 Coeff-Com:  0.240D-03-0.561D-01 0.180D-02 0.335D+00 0.719D+00
 Coeff:      0.240D-03-0.561D-01 0.180D-02 0.335D+00 0.719D+00
 Gap=     0.434 Goal=   None    Shift=    0.000
 RMSDP=7.17D-07 MaxDP=2.87D-05 DE=-8.88D-08 OVMax= 3.69D-05

 Cycle   6  Pass 1  IDiag  1:
 RMSU=  2.49D-07    CP:  1.00D+00  1.16D+00  9.10D-01  1.18D+00  9.12D-01
 FoFJK:  IHMeth= 1 ICntrl=     0 DoSepK=T KAlg= 1 I1Cent= 0 FoldK=F
 E= -2905.43104947397     Delta-E=       -0.000000015265 Rises=F Damp=F
 DIIS: error= 1.38D-06 at cycle   6 NSaved=   6.
 NSaved= 6 IEnMin= 6 EnMin= -2905.43104947397     IErMin= 6 ErrMin= 1.38D-06
 ErrMax= 1.38D-06 EMaxC= 1.00D-01 BMatC= 6.93D-10 BMatP= 1.86D-08
 IDIUse=1 WtCom= 1.00D+00 WtEn= 0.00D+00
 Coeff-Com:  0.178D-03-0.190D-01-0.890D-02 0.585D-01 0.217D+00 0.753D+00
 Coeff:      0.178D-03-0.190D-01-0.890D-02 0.585D-01 0.217D+00 0.753D+00
 Gap=     0.434 Goal=   None    Shift=    0.000
 RMSDP=1.46D-07 MaxDP=5.59D-06 DE=-1.53D-08 OVMax= 9.01D-06

 Cycle   7  Pass 1  IDiag  1:
 RMSU=  6.35D-08    CP:  1.00D+00  1.16D+00  9.16D-01  1.21D+00  9.71D-01
                    CP:  1.04D+00
 FoFJK:  IHMeth= 1 ICntrl=     0 DoSepK=T KAlg= 1 I1Cent= 0 FoldK=F
 E= -2905.43104947475     Delta-E=       -0.000000000786 Rises=F Damp=F
 DIIS: error= 3.31D-07 at cycle   7 NSaved=   7.
 NSaved= 7 IEnMin= 7 EnMin= -2905.43104947475     IErMin= 7 ErrMin= 3.31D-07
 ErrMax= 3.31D-07 EMaxC= 1.00D-01 BMatC= 4.22D-11 BMatP= 6.93D-10
 IDIUse=1 WtCom= 1.00D+00 WtEn= 0.00D+00
 Coeff-Com: -0.214D-04 0.631D-02-0.299D-04-0.394D-01-0.804D-01 0.307D-01
 Coeff-Com:  0.108D+01
 Coeff:     -0.214D-04 0.631D-02-0.299D-04-0.394D-01-0.804D-01 0.307D-01
 Coeff:      0.108D+01
 Gap=     0.434 Goal=   None    Shift=    0.000
 RMSDP=7.10D-08 MaxDP=2.70D-06 DE=-7.86D-10 OVMax= 5.21D-06

 Cycle   8  Pass 1  IDiag  1:
 RMSU=  2.28D-08    CP:  1.00D+00  1.16D+00  9.18D-01  1.21D+00  9.89D-01
                    CP:  1.16D+00  1.24D+00
 FoFJK:  IHMeth= 1 ICntrl=     0 DoSepK=T KAlg= 1 I1Cent= 0 FoldK=F
 E= -2905.43104947484     Delta-E=       -0.000000000081 Rises=F Damp=F
 DIIS: error= 6.49D-08 at cycle   8 NSaved=   8.
 NSaved= 8 IEnMin= 8 EnMin= -2905.43104947484     IErMin= 8 ErrMin= 6.49D-08
 ErrMax= 6.49D-08 EMaxC= 1.00D-01 BMatC= 2.00D-12 BMatP= 4.22D-11
 IDIUse=1 WtCom= 1.00D+00 WtEn= 0.00D+00
 Coeff-Com: -0.121D-04 0.190D-02 0.339D-03-0.942D-02-0.215D-01-0.240D-01
 Coeff-Com:  0.155D+00 0.897D+00
 Coeff:     -0.121D-04 0.190D-02 0.339D-03-0.942D-02-0.215D-01-0.240D-01
 Coeff:      0.155D+00 0.897D+00
 Gap=     0.434 Goal=   None    Shift=    0.000
 RMSDP=1.26D-08 MaxDP=2.92D-07 DE=-8.09D-11 OVMax= 1.05D-06

 Cycle   9  Pass 1  IDiag  1:
 RMSU=  4.96D-09    CP:  1.00D+00  1.16D+00  9.18D-01  1.21D+00  9.88D-01
                    CP:  1.17D+00  1.30D+00  1.26D+00
 FoFJK:  IHMeth= 1 ICntrl=     0 DoSepK=T KAlg= 1 I1Cent= 0 FoldK=F
 E= -2905.43104947484     Delta-E=       -0.000000000005 Rises=F Damp=F
 DIIS: error= 2.23D-08 at cycle   9 NSaved=   9.
 NSaved= 9 IEnMin= 9 EnMin= -2905.43104947484     IErMin= 9 ErrMin= 2.23D-08
 ErrMax= 2.23D-08 EMaxC= 1.00D-01 BMatC= 2.44D-13 BMatP= 2.00D-12
 IDIUse=1 WtCom= 1.00D+00 WtEn= 0.00D+00
 Coeff-Com:  0.272D-05-0.747D-03-0.209D-04 0.449D-02 0.992D-02-0.294D-02
 Coeff-Com: -0.127D+00-0.973D-03 0.112D+01
 Coeff:      0.272D-05-0.747D-03-0.209D-04 0.449D-02 0.992D-02-0.294D-02
 Coeff:     -0.127D+00-0.973D-03 0.112D+01
 Gap=     0.434 Goal=   None    Shift=    0.000
 RMSDP=7.32D-09 MaxDP=2.55D-07 DE=-4.55D-12 OVMax= 6.46D-07

 SCF Done:  E(RwB97XD) =  -2905.43104947     A.U. after    9 cycles
             Convg  =    0.7319D-08             -V/T =  2.0016
 KE= 2.900909779291D+03 PE=-7.216494456968D+03 EE= 1.271031616993D+03
 Leave Link  502 at Thu Apr 16 12:47:25 2020, MaxMem= 1073741824 cpu:     287.0
 (Enter /home/matheus/.gaussian/g09/l108.exe)
 Variable Step   Value    
 -------- ---- -----------
     1       4    6.425069
 Leave Link  108 at Thu Apr 16 12:47:25 2020, MaxMem= 1073741824 cpu:       0.0
 (Enter /home/matheus/.gaussian/g09/l202.exe)
 ---------------------------------------------------------------------------------------------------
                            Z-MATRIX (ANGSTROMS AND DEGREES)
   CD    Cent   Atom    N1       Length/X        N2       Alpha/Y        N3        Beta/Z          J
 ---------------------------------------------------------------------------------------------------
      1      1  O        0   0.000000          0.000000          0.725000
      2      2  O        0   0.000000          0.000000         -0.725000
      3      3  H        0  -0.863315         -0.314221          1.023510
      4      4  H        0   0.000000          0.918721         -1.023510
      5      5  Kr       0   0.000000          3.400000          0.000000
 ---------------------------------------------------------------------------------------------------
                         Z-Matrix orientation:                         
 ---------------------------------------------------------------------
 Center     Atomic      Atomic             Coordinates (Angstroms)
 Number     Number       Type             X           Y           Z
 ---------------------------------------------------------------------
      1          8           0        0.000000    0.000000    0.725000
      2          8           0        0.000000    0.000000   -0.725000
      3          1           0       -0.863315   -0.314221    1.023510
      4          1           0        0.000000    0.918721   -1.023510
      5         36           0        0.000000    3.400000    0.000000
 ---------------------------------------------------------------------
                    Distance matrix (angstroms):
                    1          2          3          4          5
     1  O    0.000000
     2  O    1.450000   0.000000
     3  H    0.966000   1.975180   0.000000
[...]
 Coeff-Com: -0.673D-02 0.101D+01
 Coeff:     -0.673D-02 0.101D+01
 Gap=     0.435 Goal=   None    Shift=    0.000
 RMSDP=2.46D-06 MaxDP=9.47D-05 DE=-1.03D-06 OVMax= 8.27D-05

 Cycle   3  Pass 1  IDiag  1:
 RMSU=  9.51D-07    CP:  1.00D+00  1.11D+00
 FoFJK:  IHMeth= 1 ICntrl=     0 DoSepK=T KAlg= 1 I1Cent= 0 FoldK=F
 E= -2905.43097065857     Delta-E=       -0.000000031663 Rises=F Damp=F
 DIIS: error= 5.80D-06 at cycle   3 NSaved=   3.
 NSaved= 3 IEnMin= 3 EnMin= -2905.43097065857     IErMin= 3 ErrMin= 5.80D-06
 ErrMax= 5.80D-06 EMaxC= 1.00D-01 BMatC= 5.05D-09 BMatP= 2.37D-08
 IDIUse=1 WtCom= 1.00D+00 WtEn= 0.00D+00
 Coeff-Com: -0.598D-02 0.272D+00 0.734D+00
 Coeff:     -0.598D-02 0.272D+00 0.734D+00
 Gap=     0.435 Goal=   None    Shift=    0.000
 RMSDP=3.72D-07 MaxDP=1.10D-05 DE=-3.17D-08 OVMax= 2.57D-05

 Cycle   4  Pass 1  IDiag  1:
 RMSU=  1.97D-07    CP:  1.00D+00  1.12D+00  1.07D+00
 FoFJK:  IHMeth= 1 ICntrl=     0 DoSepK=T KAlg= 1 I1Cent= 0 FoldK=F
 E= -2905.43097066275     Delta-E=       -0.000000004184 Rises=F Damp=F
 DIIS: error= 1.96D-06 at cycle   4 NSaved=   4.
 NSaved= 4 IEnMin= 4 EnMin= -2905.43097066275     IErMin= 4 ErrMin= 1.96D-06
 ErrMax= 1.96D-06 EMaxC= 1.00D-01 BMatC= 1.12D-09 BMatP= 5.05D-09
 IDIUse=1 WtCom= 1.00D+00 WtEn= 0.00D+00
 Coeff-Com: -0.191D-02 0.282D-01 0.297D+00 0.677D+00
 Coeff:     -0.191D-02 0.282D-01 0.297D+00 0.677D+00
 Gap=     0.435 Goal=   None    Shift=    0.000
 RMSDP=1.83D-07 MaxDP=5.49D-06 DE=-4.18D-09 OVMax= 9.96D-06

 Cycle   5  Pass 1  IDiag  1:
 RMSU=  8.41D-08    CP:  1.00D+00  1.13D+00  1.16D+00  9.87D-01
 FoFJK:  IHMeth= 1 ICntrl=     0 DoSepK=T KAlg= 1 I1Cent= 0 FoldK=F
 E= -2905.43097066359     Delta-E=       -0.000000000839 Rises=F Damp=F
 DIIS: error= 8.63D-07 at cycle   5 NSaved=   5.
 NSaved= 5 IEnMin= 5 EnMin= -2905.43097066359     IErMin= 5 ErrMin= 8.63D-07
 ErrMax= 8.63D-07 EMaxC= 1.00D-01 BMatC= 2.34D-10 BMatP= 1.12D-09
 IDIUse=1 WtCom= 1.00D+00 WtEn= 0.00D+00
 Coeff-Com:  0.488D-03-0.528D-01-0.341D-01 0.327D+00 0.760D+00
 Coeff:      0.488D-03-0.528D-01-0.341D-01 0.327D+00 0.760D+00
 Gap=     0.435 Goal=   None    Shift=    0.000
 RMSDP=9.11D-08 MaxDP=2.55D-06 DE=-8.39D-10 OVMax= 5.14D-06

 Cycle   6  Pass 1  IDiag  1:
 RMSU=  3.05D-08    CP:  1.00D+00  1.13D+00  1.20D+00  1.13D+00  1.00D+00
 FoFJK:  IHMeth= 1 ICntrl=     0 DoSepK=T KAlg= 1 I1Cent= 0 FoldK=F
 E= -2905.43097066383     Delta-E=       -0.000000000231 Rises=F Damp=F
 DIIS: error= 1.21D-07 at cycle   6 NSaved=   6.
 NSaved= 6 IEnMin= 6 EnMin= -2905.43097066383     IErMin= 6 ErrMin= 1.21D-07
 ErrMax= 1.21D-07 EMaxC= 1.00D-01 BMatC= 5.38D-12 BMatP= 2.34D-10
 IDIUse=1 WtCom= 1.00D+00 WtEn= 0.00D+00
 Coeff-Com:  0.160D-03-0.884D-02-0.188D-01 0.184D-01 0.121D+00 0.888D+00
 Coeff:      0.160D-03-0.884D-02-0.188D-01 0.184D-01 0.121D+00 0.888D+00
 Gap=     0.435 Goal=   None    Shift=    0.000
 RMSDP=1.79D-08 MaxDP=5.81D-07 DE=-2.31D-10 OVMax= 1.56D-06

 Cycle   7  Pass 1  IDiag  1:
 RMSU=  8.82D-09    CP:  1.00D+00  1.13D+00  1.20D+00  1.14D+00  1.07D+00
                    CP:  1.20D+00
 FoFJK:  IHMeth= 1 ICntrl=     0 DoSepK=T KAlg= 1 I1Cent= 0 FoldK=F
 E= -2905.43097066383     Delta-E=       -0.000000000004 Rises=F Damp=F
 DIIS: error= 9.45D-08 at cycle   7 NSaved=   7.
 NSaved= 7 IEnMin= 7 EnMin= -2905.43097066383     IErMin= 7 ErrMin= 9.45D-08
 ErrMax= 9.45D-08 EMaxC= 1.00D-01 BMatC= 1.51D-12 BMatP= 5.38D-12
 IDIUse=1 WtCom= 1.00D+00 WtEn= 0.00D+00
 Coeff-Com: -0.348D-04 0.719D-02-0.976D-03-0.591D-01-0.105D+00 0.331D+00
 Coeff-Com:  0.827D+00
 Coeff:     -0.348D-04 0.719D-02-0.976D-03-0.591D-01-0.105D+00 0.331D+00
 Coeff:      0.827D+00
 Gap=     0.435 Goal=   None    Shift=    0.000
 RMSDP=9.52D-09 MaxDP=2.45D-07 DE=-4.09D-12 OVMax= 9.64D-07

 SCF Done:  E(RwB97XD) =  -2905.43097066     A.U. after    7 cycles
             Convg  =    0.9524D-08             -V/T =  2.0016
 KE= 2.900921341217D+03 PE=-7.151107780991D+03 EE= 1.238431030197D+03
 Leave Link  502 at Thu Apr 16 12:54:10 2020, MaxMem= 1073741824 cpu:     128.5
 (Enter /home/matheus/.gaussian/g09/l108.exe)
 Variable Step   Value    
 -------- ---- -----------
     1      20    9.448631
 Leave Link  108 at Thu Apr 16 12:54:10 2020, MaxMem= 1073741824 cpu:       0.0
 (Enter /home/matheus/.gaussian/g09/l202.exe)
 ---------------------------------------------------------------------------------------------------
                            Z-MATRIX (ANGSTROMS AND DEGREES)
   CD    Cent   Atom    N1       Length/X        N2       Alpha/Y        N3        Beta/Z          J
 ---------------------------------------------------------------------------------------------------
      1      1  O        0   0.000000          0.000000          0.725000
      2      2  O        0   0.000000          0.000000         -0.725000
      3      3  H        0  -0.863315         -0.314221          1.023510
      4      4  H        0   0.000000          0.918721         -1.023510
      5      5  Kr       0   0.000000          5.000000          0.000000
 ---------------------------------------------------------------------------------------------------
                         Z-Matrix orientation:                         
 ---------------------------------------------------------------------
 Center     Atomic      Atomic             Coordinates (Angstroms)
 Number     Number       Type             X           Y           Z
 ---------------------------------------------------------------------
      1          8           0        0.000000    0.000000    0.725000
      2          8           0        0.000000    0.000000   -0.725000
      3          1           0       -0.863315   -0.314221    1.023510
      4          1           0        0.000000    0.918721   -1.023510
      5         36           0        0.000000    5.000000    0.000000
 ---------------------------------------------------------------------
                    Distance matrix (angstroms):
                    1          2          3          4          5
     1  O    0.000000
     2  O    1.450000   0.000000
     3  H    0.966000   1.975180   0.000000
     4  H    1.975180   0.966000   2.540817   0.000000
     5  Kr   5.052289   5.052289   5.480313   4.207661   0.000000
 Stoichiometry    H2KrO2
 Framework group  C1[X(H2KrO2)]
 Deg. of freedom     9
 Full point group                 C1      NOp   1
 RotChk:  IX=0 Diff= 4.38D-04
 Largest Abelian subgroup         C1      NOp   1
 Largest concise Abelian subgroup C1      NOp   1
                         Standard orientation:                         
 ---------------------------------------------------------------------
 Center     Atomic      Atomic             Coordinates (Angstroms)
 Number     Number       Type             X           Y           Z
 ---------------------------------------------------------------------
      1          8           0       -3.347351   -0.702876   -0.113803
      2          8           0       -3.340916    0.741517    0.013421
      3          1           0       -3.672093   -1.074253    0.716726
      4          1           0       -2.420932    1.033951    0.049025
      5         36           0        1.655532   -0.007467    0.001036
 ---------------------------------------------------------------------
 Rotational constants (GHZ):     25.7201059      0.8391004      0.8143789
 Leave Link  202 at Thu Apr 16 12:54:10 2020, MaxMem= 1073741824 cpu:       0.0
 (Enter /home/matheus/.gaussian/g09/l301.exe)
 Standard basis: Aug-CC-pVTZ (5D, 7F)
 Ernie: Thresh=  0.10000D-02 Tol=  0.10000D-05 Strict=F.
 Ernie:  38 primitive shells out of 205 were deleted.
 There are   197 symmetry adapted basis functions of A   symmetry.
 Integral buffers will be    131072 words long.
 Raffenetti 2 integral format.
 Two-electron integral symmetry is turned on.
   197 basis functions,   415 primitive gaussians,   229 cartesian basis functions
    27 alpha electrons       27 beta electrons
       nuclear repulsion energy       104.9504969950 Hartrees.
 IExCor= 4639 DFT=T Ex+Corr=wB97XD ExCW=0 ScaHFX=  1.000000
 ScaDFX=  1.000000  1.000000  1.000000  1.000000 ScalE2=  1.000000  1.000000
 IRadAn=      5 IRanWt=     -1 IRanGd=            0 ICorTp=0
  HFx wShort=  0.000000 wLong=  0.250000 cFull=  0.222036 cShort=  0.000000 cLong=  0.777964
  DFx wShort=  0.000000 wLong=  0.250000 cFull=  0.000000 cShort=  0.000000 cLong=  1.000000
 NAtoms=    5 NActive=    5 NUniq=    5 SFac= 1.00D+00 NAtFMM=   60 NAOKFM=F Big=F
 R6Disp: Dispersion energy =        -0.0004712304 Hartrees.
 Nuclear repulsion after empirical dispersion term =      104.9500257647 Hartrees.
 Leave Link  301 at Thu Apr 16 12:54:10 2020, MaxMem= 1073741824 cpu:       0.2
 (Enter /home/matheus/.gaussian/g09/l302.exe)
 NPDir=0 NMtPBC=     1 NCelOv=     1 NCel=       1 NClECP=     1 NCelD=      1
         NCelK=      1 NCelE2=     1 NClLst=     1 CellRange=     0.0.
 One-electron integrals computed using PRISM.
 NBasis=   197 RedAO= T  NBF=   197
 NBsUse=   197 1.00D-06 NBFU=   197
 Precomputing XC quadrature grid using
 IXCGrd= 2 IRadAn=           5 IRanWt=          -1 IRanGd=           0 AccXCQ= 0.00D+00.
 NRdTot=     427 NPtTot=      124116 NUsed=      127183 NTot=      127215
 NSgBfM=   228   228   229   229   229 NAtAll=     5     5.
 Leave Link  302 at Thu Apr 16 12:54:10 2020, MaxMem= 1073741824 cpu:       1.0
 (Enter /home/matheus/.gaussian/g09/l303.exe)
 DipDrv:  MaxL=1.
 Leave Link  303 at Thu Apr 16 12:54:10 2020, MaxMem= 1073741824 cpu:       0.2
 (Enter /home/matheus/.gaussian/g09/l401.exe)
 Initial guess read from the read-write file.
 B after Tr=     0.000000    0.000000    0.000000
         Rot=    1.000000    0.000000    0.000000    0.000000 Ang=   0.00 deg.
 Guess basis will be translated and rotated to current coordinates.
 Initial guess orbital symmetries:
       Occupied  (A) (A) (A) (A) (A) (A) (A) (A) (A) (A) (A) (A)
                 (A) (A) (A) (A) (A) (A) (A) (A) (A) (A) (A) (A)
                 (A) (A) (A)
       Virtual   (A) (A) (A) (A) (A) (A) (A) (A) (A) (A) (A) (A)
                 (A) (A) (A) (A) (A) (A) (A) (A) (A) (A) (A) (A)
                 (A) (A) (A) (A) (A) (A) (A) (A) (A) (A) (A) (A)
                 (A) (A) (A) (A) (A) (A) (A) (A) (A) (A) (A) (A)
                 (A) (A) (A) (A) (A) (A) (A) (A) (A) (A) (A) (A)
                 (A) (A) (A) (A) (A) (A) (A) (A) (A) (A) (A) (A)
                 (A) (A) (A) (A) (A) (A) (A) (A) (A) (A) (A) (A)
                 (A) (A) (A) (A) (A) (A) (A) (A) (A) (A) (A) (A)
                 (A) (A) (A) (A) (A) (A) (A) (A) (A) (A) (A) (A)
                 (A) (A) (A) (A) (A) (A) (A) (A) (A) (A) (A) (A)
                 (A) (A) (A) (A) (A) (A) (A) (A) (A) (A) (A) (A)
                 (A) (A) (A) (A) (A) (A) (A) (A) (A) (A) (A) (A)
                 (A) (A) (A) (A) (A) (A) (A) (A) (A) (A) (A) (A)
                 (A) (A) (A) (A) (A) (A) (A) (A) (A) (A) (A) (A)
                 (A) (A)
 The electronic state of the initial guess is 1-A.
 Generating alternative initial guess.
 Harris functional with IExCor= 4639 diagonalized for initial guess.
 ExpMin= 2.53D-02 ExpMax= 1.17D+07 ExpMxC= 1.33D+04 IAcc=3 IRadAn=         5 AccDes= 0.00D+00
 HarFok:  IExCor= 4639 AccDes= 0.00D+00 IRadAn=         5 IDoV= 1
 ScaDFX=  1.000000  1.000000  1.000000  1.000000
 FoFCou: FMM=F IPFlag=           0 FMFlag=      100000 FMFlg1=           0
         NFxFlg=           0 DoJE=T BraDBF=F KetDBF=T FulRan=T
         Omega=  0.000000  0.000000  1.000000  0.000000  0.000000 ICntrl=     500 IOpCl=  0
         NMat0=    1 NMatS0=    1 NMatT0=    0 NMatD0=    1 NMtDS0=    0 NMtDT0=    0
         I1Cent=           4 NGrid=           0.
 Petite list used in FoFCou.
 Harris En= -2875.40563504355    
 Leave Link  401 at Thu Apr 16 12:54:10 2020, MaxMem= 1073741824 cpu:       3.8
 (Enter /home/matheus/.gaussian/g09/l502.exe)
 Closed shell SCF:
 Requested convergence on RMS density matrix=1.00D-08 within 128 cycles.
 Requested convergence on MAX density matrix=1.00D-06.
 Requested convergence on             energy=1.00D-06.
 No special actions if energy rises.
 Using DIIS extrapolation, IDIIS=  1040.
 Integral symmetry usage will be decided dynamically.
       127125 words used for storage of precomputed grid.
 IEnd=      306072 IEndB=      306072 NGot=  1073741824 MDV=  1073505063
 LenX=  1073505063 LenY=  1073452181
 Fock matrices will be formed incrementally for  20 cycles.

 Cycle   1  Pass 1  IDiag  1:
 FoFJK:  IHMeth= 1 ICntrl=     0 DoSepK=T KAlg= 1 I1Cent= 0 FoldK=F
 FoFCou: FMM=F IPFlag=           0 FMFlag=      100000 FMFlg1=           0
         NFxFlg=           0 DoJE=T BraDBF=F KetDBF=F FulRan=T
         Omega=  0.000000  0.000000  1.000000  0.000000  0.000000 ICntrl=     500 IOpCl=  0
         NMat0=    1 NMatS0=    1 NMatT0=    0 NMatD0=    1 NMtDS0=    0 NMtDT0=    0
         I1Cent=           0 NGrid=           0.
 Symmetry not used in FoFCou.
 E= -2905.43092236514    
 DIIS: error= 1.30D-04 at cycle   1 NSaved=   1.
 NSaved= 1 IEnMin= 1 EnMin= -2905.43092236514     IErMin= 1 ErrMin= 1.30D-04
 ErrMax= 1.30D-04 EMaxC= 1.00D-01 BMatC= 3.60D-06 BMatP= 3.60D-06
 IDIUse=3 WtCom= 9.99D-01 WtEn= 1.30D-03
 Coeff-Com:  0.100D+01
 Coeff-En:   0.100D+01
 Coeff:      0.100D+01
 Gap=     0.435 Goal=   None    Shift=    0.000
 RMSDP=1.78D-05 MaxDP=6.74D-04              OVMax= 3.92D-04

 Cycle   2  Pass 1  IDiag  1:
 RMSU=  1.26D-05    CP:  1.00D+00
 FoFJK:  IHMeth= 1 ICntrl=     0 DoSepK=T KAlg= 1 I1Cent= 0 FoldK=F
 E= -2905.43092322231     Delta-E=       -0.000000857171 Rises=F Damp=F
 DIIS: error= 1.03D-05 at cycle   2 NSaved=   2.
 NSaved= 2 IEnMin= 2 EnMin= -2905.43092322231     IErMin= 2 ErrMin= 1.03D-05
 ErrMax= 1.03D-05 EMaxC= 1.00D-01 BMatC= 1.94D-08 BMatP= 3.60D-06
 IDIUse=1 WtCom= 1.00D+00 WtEn= 0.00D+00
 Coeff-Com: -0.632D-02 0.101D+01
 Coeff:     -0.632D-02 0.101D+01
 Gap=     0.435 Goal=   None    Shift=    0.000
 RMSDP=2.22D-06 MaxDP=7.81D-05 DE=-8.57D-07 OVMax= 7.50D-05

 Cycle   3  Pass 1  IDiag  1:
 RMSU=  8.43D-07    CP:  1.00D+00  1.11D+00
 FoFJK:  IHMeth= 1 ICntrl=     0 DoSepK=T KAlg= 1 I1Cent= 0 FoldK=F
 E= -2905.43092324808     Delta-E=       -0.000000025767 Rises=F Damp=F
 DIIS: error= 5.34D-06 at cycle   3 NSaved=   3.
 NSaved= 3 IEnMin= 3 EnMin= -2905.43092324808     IErMin= 3 ErrMin= 5.34D-06
 ErrMax= 5.34D-06 EMaxC= 1.00D-01 BMatC= 4.04D-09 BMatP= 1.94D-08
 IDIUse=1 WtCom= 1.00D+00 WtEn= 0.00D+00
 Coeff-Com: -0.558D-02 0.269D+00 0.736D+00
 Coeff:     -0.558D-02 0.269D+00 0.736D+00
 Gap=     0.435 Goal=   None    Shift=    0.000
 RMSDP=3.26D-07 MaxDP=9.85D-06 DE=-2.58D-08 OVMax= 2.30D-05

 Cycle   4  Pass 1  IDiag  1:
 RMSU=  1.74D-07    CP:  1.00D+00  1.12D+00  1.07D+00
 FoFJK:  IHMeth= 1 ICntrl=     0 DoSepK=T KAlg= 1 I1Cent= 0 FoldK=F
 E= -2905.43092325149     Delta-E=       -0.000000003412 Rises=F Damp=F
 DIIS: error= 1.76D-06 at cycle   4 NSaved=   4.
 NSaved= 4 IEnMin= 4 EnMin= -2905.43092325149     IErMin= 4 ErrMin= 1.76D-06
 ErrMax= 1.76D-06 EMaxC= 1.00D-01 BMatC= 8.49D-10 BMatP= 4.04D-09
 IDIUse=1 WtCom= 1.00D+00 WtEn= 0.00D+00
 Coeff-Com: -0.171D-02 0.255D-01 0.287D+00 0.689D+00
 Coeff:     -0.171D-02 0.255D-01 0.287D+00 0.689D+00
 Gap=     0.435 Goal=   None    Shift=    0.000
 RMSDP=1.65D-07 MaxDP=5.07D-06 DE=-3.41D-09 OVMax= 8.91D-06

 Cycle   5  Pass 1  IDiag  1:
 RMSU=  7.55D-08    CP:  1.00D+00  1.12D+00  1.16D+00  1.01D+00
 FoFJK:  IHMeth= 1 ICntrl=     0 DoSepK=T KAlg= 1 I1Cent= 0 FoldK=F
 E= -2905.43092325211     Delta-E=       -0.000000000620 Rises=F Damp=F
 DIIS: error= 8.26D-07 at cycle   5 NSaved=   5.
 NSaved= 5 IEnMin= 5 EnMin= -2905.43092325211     IErMin= 5 ErrMin= 8.26D-07
 ErrMax= 8.26D-07 EMaxC= 1.00D-01 BMatC= 1.97D-10 BMatP= 8.49D-10
 IDIUse=1 WtCom= 1.00D+00 WtEn= 0.00D+00
 Coeff-Com:  0.461D-03-0.528D-01-0.345D-01 0.342D+00 0.745D+00
 Coeff:      0.461D-03-0.528D-01-0.345D-01 0.342D+00 0.745D+00
 Gap=     0.435 Goal=   None    Shift=    0.000
 RMSDP=7.90D-08 MaxDP=2.15D-06 DE=-6.20D-10 OVMax= 4.46D-06

 Cycle   6  Pass 1  IDiag  1:
 RMSU=  2.76D-08    CP:  1.00D+00  1.12D+00  1.19D+00  1.15D+00  9.91D-01
 FoFJK:  IHMeth= 1 ICntrl=     0 DoSepK=T KAlg= 1 I1Cent= 0 FoldK=F
 E= -2905.43092325229     Delta-E=       -0.000000000186 Rises=F Damp=F
 DIIS: error= 1.12D-07 at cycle   6 NSaved=   6.
 NSaved= 6 IEnMin= 6 EnMin= -2905.43092325229     IErMin= 6 ErrMin= 1.12D-07
 ErrMax= 1.12D-07 EMaxC= 1.00D-01 BMatC= 4.83D-12 BMatP= 1.97D-10
 IDIUse=1 WtCom= 1.00D+00 WtEn= 0.00D+00
 Coeff-Com:  0.161D-03-0.983D-02-0.198D-01 0.249D-01 0.133D+00 0.871D+00
 Coeff:      0.161D-03-0.983D-02-0.198D-01 0.249D-01 0.133D+00 0.871D+00
 Gap=     0.435 Goal=   None    Shift=    0.000
 RMSDP=1.64D-08 MaxDP=5.10D-07 DE=-1.86D-10 OVMax= 1.45D-06

 Cycle   7  Pass 1  IDiag  1:
 RMSU=  8.20D-09    CP:  1.00D+00  1.12D+00  1.20D+00  1.16D+00  1.06D+00
                    CP:  1.20D+00
 FoFJK:  IHMeth= 1 ICntrl=     0 DoSepK=T KAlg= 1 I1Cent= 0 FoldK=F
 E= -2905.43092325230     Delta-E=       -0.000000000011 Rises=F Damp=F
 DIIS: error= 8.75D-08 at cycle   7 NSaved=   7.
 NSaved= 7 IEnMin= 7 EnMin= -2905.43092325230     IErMin= 7 ErrMin= 8.75D-08
 ErrMax= 8.75D-08 EMaxC= 1.00D-01 BMatC= 1.27D-12 BMatP= 4.83D-12
 IDIUse=1 WtCom= 1.00D+00 WtEn= 0.00D+00
 Coeff-Com: -0.331D-04 0.720D-02-0.937D-03-0.618D-01-0.103D+00 0.315D+00
 Coeff-Com:  0.843D+00
 Coeff:     -0.331D-04 0.720D-02-0.937D-03-0.618D-01-0.103D+00 0.315D+00
 Coeff:      0.843D+00
 Gap=     0.435 Goal=   None    Shift=    0.000
 RMSDP=9.01D-09 MaxDP=2.31D-07 DE=-1.09D-11 OVMax= 9.34D-07

 SCF Done:  E(RwB97XD) =  -2905.43092325     A.U. after    7 cycles
             Convg  =    0.9013D-08             -V/T =  2.0016
 KE= 2.900921835402D+03 PE=-7.148366781996D+03 EE= 1.237063997577D+03
 Leave Link  502 at Thu Apr 16 12:54:27 2020, MaxMem= 1073741824 cpu:     128.6
 (Enter /home/matheus/.gaussian/g09/l108.exe)
 Scan completed.

 Summary of the potential surface scan:
   N      R1          SCF    
 ----  ---------  -----------
    1     3.0000  -2905.42741
    2     3.1000  -2905.42917
    3     3.2000  -2905.43032
    4     3.3000  -2905.43105
    5     3.4000  -2905.43148
    6     3.5000  -2905.43172
    7     3.6000  -2905.43181
    8     3.7000  -2905.43184
    9     3.8000  -2905.43180
   10     3.9000  -2905.43174
   11     4.0000  -2905.43165
   12     4.1000  -2905.43156
   13     4.2000  -2905.43147
   14     4.3000  -2905.43138
   15     4.4000  -2905.43130
   16     4.5000  -2905.43122
   17     4.6000  -2905.43115
   18     4.7000  -2905.43108
   19     4.8000  -2905.43102
   20     4.9000  -2905.43097
   21     5.0000  -2905.43092
 ----  ---------  -----------
  
 Leave Link  108 at Thu Apr 16 12:54:27 2020, MaxMem= 1073741824 cpu:       0.0
 (Enter /home/matheus/.gaussian/g09/l9999.exe)

 Test job not archived.
 1\1\GINC-REDGIANT\Scan\RwB97XD\Aug-CC-pVTZ\H2Kr1O2\ROOT\16-Apr-2020\1\
 \#p wb97xd/aug-cc-PVTz iop(3/107=0250000000) iop(3/108=0250000000) int
 =ultrafine Scan\\TCC\\0,1\O,0,0.,0.,0.725\O,0,0.,0.,-0.725\H,0,-0.8633
 149634,-0.3142209495,1.0235104166\H,0,0.,0.9187205947,-1.0235104166\Kr
 ,0,0.,R1,0.\\R1=3.,s,20,0.1\\Version=EM64L-G09RevC.01\State=1-A\HF=-29
 05.4274135,-2905.4291724,-2905.4303188,-2905.4310495,-2905.4314798,-29
 05.431715,-2905.4318147,-2905.4318357,-2905.4318015,-2905.4317353,-290
 5.4316535,-2905.4315648,-2905.4314746,-2905.431384,-2905.431301,-2905.
 4312228,-2905.4311493,-2905.4310831,-2905.4310245,-2905.4309707,-2905.
 4309233\RMSD=9.867e-09,6.838e-09,7.224e-09,7.319e-09,6.911e-09,6.175e-
 09,5.377e-09,4.272e-09,3.598e-09,3.433e-09,9.707e-09,8.242e-09,7.155e-
 09,6.363e-09,5.550e-09,5.034e-09,4.850e-09,4.469e-09,9.280e-09,9.524e-
 09,9.013e-09\PG=C01 [X(H2Kr1O2)]\\@


 IN THE UNIVERSE THE DIFFICULT THINGS ARE DONE AS IF THEY WERE EASY.

                                                          -- LAO-TSU
 Job cpu time:  0 days  1 hours 18 minutes 31.3 seconds.
 File lengths (MBytes):  RWF=     33 Int=      0 D2E=      0 Chk=      4 Scr=      1
 Normal termination of Gaussian 09 at Thu Apr 16 12:54:27 2020.
