 Entering Gaussian System, Link 0=g09
 Input=/home/matheus/.tcc/Inputs-wb97xd/H2O2-Kr_14.com
 Output=/home/matheus/.tcc/Logs-wb97xd/H2O2-Kr_14.log
 Initial command:
 /home/matheus/.gaussian/g09/l1.exe /home/matheus/.gaussian/g09/scratch/Gau-5070.inp -scrdir=/home/matheus/.gaussian/g09/scratch/
 Entering Link 1 = /home/matheus/.gaussian/g09/l1.exe PID=      5073.
  
 Copyright (c) 1988,1990,1992,1993,1995,1998,2003,2009,2011,
            Gaussian, Inc.  All Rights Reserved.
  
 This is part of the Gaussian(R) 09 program.  It is based on
 the Gaussian(R) 03 system (copyright 2003, Gaussian, Inc.),
 the Gaussian(R) 98 system (copyright 1998, Gaussian, Inc.),
 the Gaussian(R) 94 system (copyright 1995, Gaussian, Inc.),
 the Gaussian 92(TM) system (copyright 1992, Gaussian, Inc.),
 the Gaussian 90(TM) system (copyright 1990, Gaussian, Inc.),
 the Gaussian 88(TM) system (copyright 1988, Gaussian, Inc.),
 the Gaussian 86(TM) system (copyright 1986, Carnegie Mellon
 University), and the Gaussian 82(TM) system (copyright 1983,
 Carnegie Mellon University). Gaussian is a federally registered
 trademark of Gaussian, Inc.
  
 This software contains proprietary and confidential information,
 including trade secrets, belonging to Gaussian, Inc.
  
 This software is provided under written license and may be
 used, copied, transmitted, or stored only in accord with that
 written license.
  
 The following legend is applicable only to US Government
 contracts under FAR:
  
                    RESTRICTED RIGHTS LEGEND
  
 Use, reproduction and disclosure by the US Government is
 subject to restrictions as set forth in subparagraphs (a)
 and (c) of the Commercial Computer Software - Restricted
 Rights clause in FAR 52.227-19.
  
 Gaussian, Inc.
 340 Quinnipiac St., Bldg. 40, Wallingford CT 06492
  
  
 ---------------------------------------------------------------
 Warning -- This program may not be used in any manner that
 competes with the business of Gaussian, Inc. or will provide
 assistance to any competitor of Gaussian, Inc.  The licensee
 of this program is prohibited from giving any competitor of
 Gaussian, Inc. access to this program.  By using this program,
 the user acknowledges that Gaussian, Inc. is engaged in the
 business of creating and licensing software in the field of
 computational chemistry and represents and warrants to the
 licensee that it is not a competitor of Gaussian, Inc. and that
 it will not use this program in any manner prohibited above.
 ---------------------------------------------------------------
  

 Cite this work as:
 Gaussian 09, Revision C.01,
 M. J. Frisch, G. W. Trucks, H. B. Schlegel, G. E. Scuseria, 
 M. A. Robb, J. R. Cheeseman, G. Scalmani, V. Barone, B. Mennucci, 
 G. A. Petersson, H. Nakatsuji, M. Caricato, X. Li, H. P. Hratchian, 
 A. F. Izmaylov, J. Bloino, G. Zheng, J. L. Sonnenberg, M. Hada, 
 M. Ehara, K. Toyota, R. Fukuda, J. Hasegawa, M. Ishida, T. Nakajima, 
 Y. Honda, O. Kitao, H. Nakai, T. Vreven, J. A. Montgomery, Jr., 
 J. E. Peralta, F. Ogliaro, M. Bearpark, J. J. Heyd, E. Brothers, 
 K. N. Kudin, V. N. Staroverov, T. Keith, R. Kobayashi, J. Normand, 
 K. Raghavachari, A. Rendell, J. C. Burant, S. S. Iyengar, J. Tomasi, 
 M. Cossi, N. Rega, J. M. Millam, M. Klene, J. E. Knox, J. B. Cross, 
 V. Bakken, C. Adamo, J. Jaramillo, R. Gomperts, R. E. Stratmann, 
 O. Yazyev, A. J. Austin, R. Cammi, C. Pomelli, J. W. Ochterski, 
 R. L. Martin, K. Morokuma, V. G. Zakrzewski, G. A. Voth, 
 P. Salvador, J. J. Dannenberg, S. Dapprich, A. D. Daniels, 
 O. Farkas, J. B. Foresman, J. V. Ortiz, J. Cioslowski, 
 and D. J. Fox, Gaussian, Inc., Wallingford CT, 2010.
 
 ******************************************
 Gaussian 09:  EM64L-G09RevC.01 23-Sep-2011
                16-Apr-2020 
 ******************************************
 %mem=8GB
 %nproc=8
 Will use up to    8 processors via shared memory.
 ----------------------------------------------------------------------
 #p wb97xd/aug-cc-PVTz iop(3/107=0250000000) iop(3/108=0250000000) int=
 ultrafine Scan
 ----------------------------------------------------------------------
 1/38=1,60=1/1,8;
 2/12=2,17=6,18=5,29=3,40=1/2;
 3/5=16,6=1,7=10,11=2,16=1,25=1,30=1,74=-58,75=-5,107=250000000,108=250000000/1,2,3;
 4//1;
 5/5=2,38=5/2;
 6/7=2,8=2,9=2,10=2,18=1,28=1/1;
 1/60=1/8(1);
 99/9=1/99;
 2/29=3/2;
 3/5=16,6=1,7=10,11=2,16=1,25=1,30=1,74=-58,75=-5,107=250000000,108=250000000/1,2,3;
 4/5=5,16=3/1;
 5/5=2,38=5/2;
 1/60=1/8(-4);
 99/9=1/99;
 Leave Link    1 at Thu Apr 16 10:49:13 2020, MaxMem= 1073741824 cpu:       0.1
 (Enter /home/matheus/.gaussian/g09/l101.exe)
 ---
 TCC
 ---
 Charge =  0 Multiplicity = 1
 Symbolic Z-Matrix:
 O                     0.        0.        0.725 
 O                     0.        0.       -0.725 
 H                     0.59054  -0.70378   1.02351 
 H                     0.        0.91872  -1.02351 
 Kr                    0.       R1        0. 
       Variables:
  R1                    3.     Scan 20    0.1    
 
 NAtoms=      5 NQM=        0 NQMF=       0 NMMI=      5 NMMIF=      0
                NMic=       0 NMicF=      0.
                    Isotopes and Nuclear Properties:
 (Nuclear quadrupole moments (NQMom) in fm**2, nuclear magnetic moments (NMagM)
  in nuclear magnetons)

  Atom         1           2           3           4           5
 IAtWgt=          16          16           1           1          84
 AtmWgt=  15.9949146  15.9949146   1.0078250   1.0078250  83.9115064
 NucSpn=           0           0           1           1           0
 AtZEff=   0.0000000   0.0000000   0.0000000   0.0000000   0.0000000
 NQMom=    0.0000000   0.0000000   0.0000000   0.0000000   0.0000000
 NMagM=    0.0000000   0.0000000   2.7928460   2.7928460   0.0000000
 Leave Link  101 at Thu Apr 16 10:49:13 2020, MaxMem= 1073741824 cpu:       0.3
 (Enter /home/matheus/.gaussian/g09/l108.exe)
 Scan the potential surface.
 Variable   Value     No. Steps Step-Size
 -------- ----------- --------- ---------
     1       3.000000      20      0.1000
 A total of     21 points will be computed.
 Leave Link  108 at Thu Apr 16 10:49:13 2020, MaxMem= 1073741824 cpu:       0.0
 (Enter /home/matheus/.gaussian/g09/l202.exe)
 ---------------------------------------------------------------------------------------------------
                            Z-MATRIX (ANGSTROMS AND DEGREES)
   CD    Cent   Atom    N1       Length/X        N2       Alpha/Y        N3        Beta/Z          J
 ---------------------------------------------------------------------------------------------------
      1      1  O        0   0.000000          0.000000          0.725000
      2      2  O        0   0.000000          0.000000         -0.725000
      3      3  H        0   0.590542         -0.703781          1.023510
      4      4  H        0   0.000000          0.918721         -1.023510
      5      5  Kr       0   0.000000          3.000000          0.000000
 ---------------------------------------------------------------------------------------------------
                         Z-Matrix orientation:                         
 ---------------------------------------------------------------------
 Center     Atomic      Atomic             Coordinates (Angstroms)
 Number     Number       Type             X           Y           Z
 ---------------------------------------------------------------------
      1          8           0        0.000000    0.000000    0.725000
      2          8           0        0.000000    0.000000   -0.725000
      3          1           0        0.590542   -0.703781    1.023510
      4          1           0        0.000000    0.918721   -1.023510
      5         36           0        0.000000    3.000000    0.000000
 ---------------------------------------------------------------------
                    Distance matrix (angstroms):
                    1          2          3          4          5
     1  O    0.000000
     2  O    1.450000   0.000000
     3  H    0.966000   1.975180   0.000000
     4  H    1.975180   0.966000   2.677974   0.000000
     5  Kr   3.086361   3.086361   3.887712   2.319331   0.000000
 Stoichiometry    H2KrO2
 Framework group  C1[X(H2KrO2)]
 Deg. of freedom     9
 Full point group                 C1      NOp   1
 Largest Abelian subgroup         C1      NOp   1
 Largest concise Abelian subgroup C1      NOp   1
                         Standard orientation:                         
 ---------------------------------------------------------------------
 Center     Atomic      Atomic             Coordinates (Angstroms)
 Number     Number       Type             X           Y           Z
 ---------------------------------------------------------------------
      1          8           0        2.015651   -0.687348   -0.079909
      2          8           0        1.990960    0.760101    0.002433
      3          1           0        2.733117   -1.006163    0.482902
      4          1           0        1.067391    1.041693    0.032139
      5         36           0       -0.995928   -0.017154    0.002910
 ---------------------------------------------------------------------
 Rotational constants (GHZ):     26.2569855      2.3123407      2.1308521
 Leave Link  202 at Thu Apr 16 10:49:13 2020, MaxMem= 1073741824 cpu:       0.0
 (Enter /home/matheus/.gaussian/g09/l301.exe)
 Standard basis: Aug-CC-pVTZ (5D, 7F)
 Ernie: Thresh=  0.10000D-02 Tol=  0.10000D-05 Strict=F.
 Ernie:  38 primitive shells out of 205 were deleted.
 There are   197 symmetry adapted basis functions of A   symmetry.
 Integral buffers will be    131072 words long.
 Raffenetti 2 integral format.
 Two-electron integral symmetry is turned on.
   197 basis functions,   415 primitive gaussians,   229 cartesian basis functions
    27 alpha electrons       27 beta electrons
       nuclear repulsion energy       148.4787781510 Hartrees.
 IExCor= 4639 DFT=T Ex+Corr=wB97XD ExCW=0 ScaHFX=  1.000000
 ScaDFX=  1.000000  1.000000  1.000000  1.000000 ScalE2=  1.000000  1.000000
 IRadAn=      5 IRanWt=     -1 IRanGd=            0 ICorTp=0
  HFx wShort=  0.000000 wLong=  0.250000 cFull=  0.222036 cShort=  0.000000 cLong=  0.777964
  DFx wShort=  0.000000 wLong=  0.250000 cFull=  0.000000 cShort=  0.000000 cLong=  1.000000
 NAtoms=    5 NActive=    5 NUniq=    5 SFac= 1.00D+00 NAtFMM=   60 NAOKFM=F Big=F
 R6Disp: Dispersion energy =        -0.0008029767 Hartrees.
 Nuclear repulsion after empirical dispersion term =      148.4779751743 Hartrees.
 Leave Link  301 at Thu Apr 16 10:49:13 2020, MaxMem= 1073741824 cpu:       0.2
 (Enter /home/matheus/.gaussian/g09/l302.exe)
 NPDir=0 NMtPBC=     1 NCelOv=     1 NCel=       1 NClECP=     1 NCelD=      1
         NCelK=      1 NCelE2=     1 NClLst=     1 CellRange=     0.0.
 One-electron integrals computed using PRISM.
 NBasis=   197 RedAO= T  NBF=   197
 NBsUse=   197 1.00D-06 NBFU=   197
 Precomputing XC quadrature grid using
 IXCGrd= 2 IRadAn=           5 IRanWt=          -1 IRanGd=           0 AccXCQ= 0.00D+00.
 NRdTot=     427 NPtTot=      123814 NUsed=      126881 NTot=      126913
 NSgBfM=   229   229   229   229   229 NAtAll=     5     5.
 Leave Link  302 at Thu Apr 16 10:49:13 2020, MaxMem= 1073741824 cpu:       1.0
 (Enter /home/matheus/.gaussian/g09/l303.exe)
 DipDrv:  MaxL=1.
 Leave Link  303 at Thu Apr 16 10:49:13 2020, MaxMem= 1073741824 cpu:       0.2
 (Enter /home/matheus/.gaussian/g09/l401.exe)
 Harris functional with IExCor= 4639 diagonalized for initial guess.
 ExpMin= 2.53D-02 ExpMax= 1.17D+07 ExpMxC= 1.33D+04 IAcc=3 IRadAn=         5 AccDes= 0.00D+00
 HarFok:  IExCor= 4639 AccDes= 0.00D+00 IRadAn=         5 IDoV= 1
 ScaDFX=  1.000000  1.000000  1.000000  1.000000
 FoFCou: FMM=F IPFlag=           0 FMFlag=      100000 FMFlg1=           0
         NFxFlg=           0 DoJE=T BraDBF=F KetDBF=T FulRan=T
         Omega=  0.000000  0.000000  1.000000  0.000000  0.000000 ICntrl=     500 IOpCl=  0
         NMat0=    1 NMatS0=    1 NMatT0=    0 NMatD0=    1 NMtDS0=    0 NMtDT0=    0
         I1Cent=           4 NGrid=           0.
 Petite list used in FoFCou.
 Harris En= -2875.39532902522    
 Initial guess orbital symmetries:
       Occupied  (A) (A) (A) (A) (A) (A) (A) (A) (A) (A) (A) (A)
                 (A) (A) (A) (A) (A) (A) (A) (A) (A) (A) (A) (A)
                 (A) (A) (A)
       Virtual   (A) (A) (A) (A) (A) (A) (A) (A) (A) (A) (A) (A)
                 (A) (A) (A) (A) (A) (A) (A) (A) (A) (A) (A) (A)
                 (A) (A) (A) (A) (A) (A) (A) (A) (A) (A) (A) (A)
                 (A) (A) (A) (A) (A) (A) (A) (A) (A) (A) (A) (A)
                 (A) (A) (A) (A) (A) (A) (A) (A) (A) (A) (A) (A)
                 (A) (A) (A) (A) (A) (A) (A) (A) (A) (A) (A) (A)
                 (A) (A) (A) (A) (A) (A) (A) (A) (A) (A) (A) (A)
                 (A) (A) (A) (A) (A) (A) (A) (A) (A) (A) (A) (A)
                 (A) (A) (A) (A) (A) (A) (A) (A) (A) (A) (A) (A)
                 (A) (A) (A) (A) (A) (A) (A) (A) (A) (A) (A) (A)
                 (A) (A) (A) (A) (A) (A) (A) (A) (A) (A) (A) (A)
                 (A) (A) (A) (A) (A) (A) (A) (A) (A) (A) (A) (A)
                 (A) (A) (A) (A) (A) (A) (A) (A) (A) (A) (A) (A)
                 (A) (A) (A) (A) (A) (A) (A) (A) (A) (A) (A) (A)
                 (A) (A)
 The electronic state of the initial guess is 1-A.
 Leave Link  401 at Thu Apr 16 10:49:14 2020, MaxMem= 1073741824 cpu:       4.0
 (Enter /home/matheus/.gaussian/g09/l502.exe)
 Closed shell SCF:
 Requested convergence on RMS density matrix=1.00D-08 within 128 cycles.
 Requested convergence on MAX density matrix=1.00D-06.
 Requested convergence on             energy=1.00D-06.
 No special actions if energy rises.
 Using DIIS extrapolation, IDIIS=  1040.
 Integral symmetry usage will be decided dynamically.
       126823 words used for storage of precomputed grid.
 IEnd=      305770 IEndB=      305770 NGot=  1073741824 MDV=  1073505365
 LenX=  1073505365 LenY=  1073452483
 Fock matrices will be formed incrementally for  20 cycles.

 Cycle   1  Pass 1  IDiag  1:
 FoFJK:  IHMeth= 1 ICntrl=     0 DoSepK=T KAlg= 1 I1Cent= 0 FoldK=F
 FoFCou: FMM=F IPFlag=           0 FMFlag=      100000 FMFlg1=           0
         NFxFlg=           0 DoJE=T BraDBF=F KetDBF=F FulRan=T
         Omega=  0.000000  0.000000  1.000000  0.000000  0.000000 ICntrl=     500 IOpCl=  0
         NMat0=    1 NMatS0=    1 NMatT0=    0 NMatD0=    1 NMtDS0=    0 NMtDT0=    0
         I1Cent=           0 NGrid=           0.
 Symmetry not used in FoFCou.
 E= -2904.90221139581    
 DIIS: error= 7.37D-02 at cycle   1 NSaved=   1.
 NSaved= 1 IEnMin= 1 EnMin= -2904.90221139581     IErMin= 1 ErrMin= 7.37D-02
 ErrMax= 7.37D-02 EMaxC= 1.00D-01 BMatC= 2.21D+00 BMatP= 2.21D+00
 IDIUse=3 WtCom= 2.63D-01 WtEn= 7.37D-01
 Coeff-Com:  0.100D+01
 Coeff-En:   0.100D+01
 Coeff:      0.100D+01
 Gap=     0.538 Goal=   None    Shift=    0.000
 GapD=    0.538 DampG=2.000 DampE=0.500 DampFc=1.0000 IDamp=-1.
 RMSDP=6.12D-03 MaxDP=3.66D-01              OVMax= 1.80D-01

 Cycle   2  Pass 1  IDiag  1:
 RMSU=  4.30D-03    CP:  1.03D+00
 FoFJK:  IHMeth= 1 ICntrl=     0 DoSepK=T KAlg= 1 I1Cent= 0 FoldK=F
 E= -2905.22139227717     Delta-E=       -0.319180881354 Rises=F Damp=F
 DIIS: error= 3.55D-02 at cycle   2 NSaved=   2.
 NSaved= 2 IEnMin= 2 EnMin= -2905.22139227717     IErMin= 2 ErrMin= 3.55D-02
 ErrMax= 3.55D-02 EMaxC= 1.00D-01 BMatC= 5.65D-01 BMatP= 2.21D+00
 IDIUse=3 WtCom= 6.45D-01 WtEn= 3.55D-01
 Coeff-Com:  0.328D+00 0.672D+00
 Coeff-En:   0.199D+00 0.801D+00
 Coeff:      0.282D+00 0.718D+00
 Gap=     0.479 Goal=   None    Shift=    0.000
 RMSDP=2.69D-03 MaxDP=1.58D-01 DE=-3.19D-01 OVMax= 7.43D-02

 Cycle   3  Pass 1  IDiag  1:
 RMSU=  5.74D-04    CP:  1.02D+00  5.80D-01
 FoFJK:  IHMeth= 1 ICntrl=     0 DoSepK=T KAlg= 1 I1Cent= 0 FoldK=F
 E= -2905.41547576225     Delta-E=       -0.194083485086 Rises=F Damp=F
 DIIS: error= 6.75D-03 at cycle   3 NSaved=   3.
 NSaved= 3 IEnMin= 3 EnMin= -2905.41547576225     IErMin= 3 ErrMin= 6.75D-03
 ErrMax= 6.75D-03 EMaxC= 1.00D-01 BMatC= 1.99D-02 BMatP= 5.65D-01
 IDIUse=3 WtCom= 9.33D-01 WtEn= 6.75D-02
 Coeff-Com:  0.333D-01 0.193D+00 0.774D+00
 Coeff-En:   0.000D+00 0.000D+00 0.100D+01
 Coeff:      0.310D-01 0.180D+00 0.789D+00
 Gap=     0.430 Goal=   None    Shift=    0.000
 RMSDP=4.87D-04 MaxDP=1.89D-02 DE=-1.94D-01 OVMax= 2.68D-02

 Cycle   4  Pass 1  IDiag  1:
 RMSU=  2.29D-04    CP:  1.02D+00  6.38D-01  9.03D-01
 FoFJK:  IHMeth= 1 ICntrl=     0 DoSepK=T KAlg= 1 I1Cent= 0 FoldK=F
 E= -2905.42448624009     Delta-E=       -0.009010477838 Rises=F Damp=F
 DIIS: error= 2.60D-03 at cycle   4 NSaved=   4.
 NSaved= 4 IEnMin= 4 EnMin= -2905.42448624009     IErMin= 4 ErrMin= 2.60D-03
 ErrMax= 2.60D-03 EMaxC= 1.00D-01 BMatC= 1.77D-03 BMatP= 1.99D-02
 IDIUse=3 WtCom= 9.74D-01 WtEn= 2.60D-02
 Coeff-Com: -0.254D-02 0.504D-01 0.368D+00 0.584D+00
 Coeff-En:   0.000D+00 0.000D+00 0.000D+00 0.100D+01
 Coeff:     -0.247D-02 0.491D-01 0.358D+00 0.595D+00
 Gap=     0.415 Goal=   None    Shift=    0.000
 RMSDP=1.14D-04 MaxDP=6.49D-03 DE=-9.01D-03 OVMax= 6.94D-03

 Cycle   5  Pass 1  IDiag  1:
 RMSU=  4.10D-05    CP:  1.02D+00  6.37D-01  9.49D-01  7.22D-01
 FoFJK:  IHMeth= 1 ICntrl=     0 DoSepK=T KAlg= 1 I1Cent= 0 FoldK=F
 E= -2905.42554838073     Delta-E=       -0.001062140644 Rises=F Damp=F
 DIIS: error= 2.76D-04 at cycle   5 NSaved=   5.
 NSaved= 5 IEnMin= 5 EnMin= -2905.42554838073     IErMin= 5 ErrMin= 2.76D-04
 ErrMax= 2.76D-04 EMaxC= 1.00D-01 BMatC= 2.67D-05 BMatP= 1.77D-03
 IDIUse=3 WtCom= 9.97D-01 WtEn= 2.76D-03
 Coeff-Com: -0.154D-02 0.116D-01 0.103D+00 0.189D+00 0.697D+00
 Coeff-En:   0.000D+00 0.000D+00 0.000D+00 0.000D+00 0.100D+01
 Coeff:     -0.154D-02 0.116D-01 0.103D+00 0.189D+00 0.698D+00
 Gap=     0.414 Goal=   None    Shift=    0.000
 RMSDP=2.35D-05 MaxDP=9.88D-04 DE=-1.06D-03 OVMax= 1.63D-03

 Cycle   6  Pass 1  IDiag  1:
 RMSU=  1.49D-05    CP:  1.02D+00  6.37D-01  9.57D-01  7.44D-01  1.07D+00
 FoFJK:  IHMeth= 1 ICntrl=     0 DoSepK=T KAlg= 1 I1Cent= 0 FoldK=F
 E= -2905.42556236488     Delta-E=       -0.000013984142 Rises=F Damp=F
 DIIS: error= 1.89D-04 at cycle   6 NSaved=   6.
 NSaved= 6 IEnMin= 6 EnMin= -2905.42556236488     IErMin= 6 ErrMin= 1.89D-04
 ErrMax= 1.89D-04 EMaxC= 1.00D-01 BMatC= 1.03D-05 BMatP= 2.67D-05
 IDIUse=3 WtCom= 9.98D-01 WtEn= 1.89D-03
 Coeff-Com: -0.238D-03-0.654D-02-0.350D-01-0.467D-01 0.389D+00 0.700D+00
 Coeff-En:   0.000D+00 0.000D+00 0.000D+00 0.000D+00 0.181D+00 0.819D+00
 Coeff:     -0.237D-03-0.653D-02-0.349D-01-0.466D-01 0.388D+00 0.700D+00
 Gap=     0.414 Goal=   None    Shift=    0.000
 RMSDP=1.34D-05 MaxDP=4.48D-04 DE=-1.40D-05 OVMax= 7.64D-04

 Cycle   7  Pass 1  IDiag  1:
 RMSU=  3.78D-06    CP:  1.02D+00  6.37D-01  9.65D-01  7.55D-01  1.24D+00
                    CP:  8.68D-01
 FoFJK:  IHMeth= 1 ICntrl=     0 DoSepK=T KAlg= 1 I1Cent= 0 FoldK=F
 E= -2905.42556994313     Delta-E=       -0.000007578254 Rises=F Damp=F
 DIIS: error= 1.21D-05 at cycle   7 NSaved=   7.
 NSaved= 7 IEnMin= 7 EnMin= -2905.42556994313     IErMin= 7 ErrMin= 1.21D-05
 ErrMax= 1.21D-05 EMaxC= 1.00D-01 BMatC= 5.88D-08 BMatP= 1.03D-05
 IDIUse=1 WtCom= 1.00D+00 WtEn= 0.00D+00
 Coeff-Com:  0.369D-04-0.835D-03-0.595D-02-0.885D-02-0.158D-01 0.324D-01
 Coeff-Com:  0.999D+00
 Coeff:      0.369D-04-0.835D-03-0.595D-02-0.885D-02-0.158D-01 0.324D-01
 Coeff:      0.999D+00
 Gap=     0.414 Goal=   None    Shift=    0.000
 RMSDP=2.81D-06 MaxDP=8.64D-05 DE=-7.58D-06 OVMax= 2.02D-04

 Cycle   8  Pass 1  IDiag  1:
 RMSU=  8.31D-07    CP:  1.02D+00  6.37D-01  9.66D-01  7.58D-01  1.26D+00
                    CP:  9.23D-01  1.21D+00
 FoFJK:  IHMeth= 1 ICntrl=     0 DoSepK=T KAlg= 1 I1Cent= 0 FoldK=F
 E= -2905.42557007665     Delta-E=       -0.000000133517 Rises=F Damp=F
 DIIS: error= 3.10D-06 at cycle   8 NSaved=   8.
 NSaved= 8 IEnMin= 8 EnMin= -2905.42557007665     IErMin= 8 ErrMin= 3.10D-06
 ErrMax= 3.10D-06 EMaxC= 1.00D-01 BMatC= 3.39D-09 BMatP= 5.88D-08
 IDIUse=1 WtCom= 1.00D+00 WtEn= 0.00D+00
 Coeff-Com:  0.111D-04 0.212D-03 0.107D-02 0.108D-02-0.185D-01-0.283D-01
 Coeff-Com:  0.414D-01 0.100D+01
 Coeff:      0.111D-04 0.212D-03 0.107D-02 0.108D-02-0.185D-01-0.283D-01
 Coeff:      0.414D-01 0.100D+01
 Gap=     0.414 Goal=   None    Shift=    0.000
 RMSDP=6.54D-07 MaxDP=1.71D-05 DE=-1.34D-07 OVMax= 5.69D-05

 Cycle   9  Pass 1  IDiag  1:
 RMSU=  1.92D-07    CP:  1.02D+00  6.37D-01  9.66D-01  7.58D-01  1.27D+00
                    CP:  9.33D-01  1.28D+00  1.25D+00
 FoFJK:  IHMeth= 1 ICntrl=     0 DoSepK=T KAlg= 1 I1Cent= 0 FoldK=F
 E= -2905.42557008562     Delta-E=       -0.000000008968 Rises=F Damp=F
 DIIS: error= 9.52D-07 at cycle   9 NSaved=   9.
 NSaved= 9 IEnMin= 9 EnMin= -2905.42557008562     IErMin= 9 ErrMin= 9.52D-07
 ErrMax= 9.52D-07 EMaxC= 1.00D-01 BMatC= 2.95D-10 BMatP= 3.39D-09
 IDIUse=1 WtCom= 1.00D+00 WtEn= 0.00D+00
 Coeff-Com: -0.192D-05 0.633D-04 0.431D-03 0.477D-03 0.425D-03-0.206D-02
 Coeff-Com: -0.614D-01-0.291D-03 0.106D+01
 Coeff:     -0.192D-05 0.633D-04 0.431D-03 0.477D-03 0.425D-03-0.206D-02
 Coeff:     -0.614D-01-0.291D-03 0.106D+01
 Gap=     0.414 Goal=   None    Shift=    0.000
 RMSDP=1.86D-07 MaxDP=4.96D-06 DE=-8.97D-09 OVMax= 2.17D-05

 Cycle  10  Pass 1  IDiag  1:
 RMSU=  6.80D-08    CP:  1.02D+00  6.37D-01  9.66D-01  7.58D-01  1.27D+00
                    CP:  9.34D-01  1.30D+00  1.33D+00  1.33D+00
 FoFJK:  IHMeth= 1 ICntrl=     0 DoSepK=T KAlg= 1 I1Cent= 0 FoldK=F
 E= -2905.42557008657     Delta-E=       -0.000000000957 Rises=F Damp=F
 DIIS: error= 3.57D-07 at cycle  10 NSaved=  10.
 NSaved=10 IEnMin=10 EnMin= -2905.42557008657     IErMin=10 ErrMin= 3.57D-07
 ErrMax= 3.57D-07 EMaxC= 1.00D-01 BMatC= 3.11D-11 BMatP= 2.95D-10
 IDIUse=1 WtCom= 1.00D+00 WtEn= 0.00D+00
 Coeff-Com: -0.349D-06-0.121D-04-0.693D-04-0.543D-04 0.139D-02 0.220D-02
 Coeff-Com: -0.648D-03-0.959D-01 0.533D-01 0.104D+01
 Coeff:     -0.349D-06-0.121D-04-0.693D-04-0.543D-04 0.139D-02 0.220D-02
 Coeff:     -0.648D-03-0.959D-01 0.533D-01 0.104D+01
 Gap=     0.414 Goal=   None    Shift=    0.000
 RMSDP=6.33D-08 MaxDP=1.29D-06 DE=-9.57D-10 OVMax= 9.16D-06

 Cycle  11  Pass 1  IDiag  1:
 RMSU=  1.93D-08    CP:  1.02D+00  6.37D-01  9.66D-01  7.58D-01  1.27D+00
                    CP:  9.34D-01  1.30D+00  1.35D+00  1.48D+00  1.35D+00
 FoFJK:  IHMeth= 1 ICntrl=     0 DoSepK=T KAlg= 1 I1Cent= 0 FoldK=F
 E= -2905.42557008668     Delta-E=       -0.000000000105 Rises=F Damp=F
 DIIS: error= 1.43D-07 at cycle  11 NSaved=  11.
 NSaved=11 IEnMin=11 EnMin= -2905.42557008668     IErMin=11 ErrMin= 1.43D-07
 ErrMax= 1.43D-07 EMaxC= 1.00D-01 BMatC= 4.46D-12 BMatP= 3.11D-11
 IDIUse=1 WtCom= 1.00D+00 WtEn= 0.00D+00
 Coeff-Com:  0.389D-06-0.586D-05-0.443D-04-0.353D-04-0.262D-03-0.621D-04
 Coeff-Com:  0.846D-02 0.305D-02-0.109D+00-0.135D+00 0.123D+01
 Coeff:      0.389D-06-0.586D-05-0.443D-04-0.353D-04-0.262D-03-0.621D-04
 Coeff:      0.846D-02 0.305D-02-0.109D+00-0.135D+00 0.123D+01
 Gap=     0.414 Goal=   None    Shift=    0.000
 RMSDP=3.05D-08 MaxDP=6.82D-07 DE=-1.05D-10 OVMax= 4.72D-06

 Cycle  12  Pass 1  IDiag  1:
 RMSU=  6.85D-09    CP:  1.02D+00  6.37D-01  9.66D-01  7.58D-01  1.27D+00
                    CP:  9.34D-01  1.30D+00  1.35D+00  1.53D+00  1.56D+00
                    CP:  1.53D+00
 FoFJK:  IHMeth= 1 ICntrl=     0 DoSepK=T KAlg= 1 I1Cent= 0 FoldK=F
 E= -2905.42557008670     Delta-E=       -0.000000000024 Rises=F Damp=F
 DIIS: error= 5.32D-08 at cycle  12 NSaved=  12.
 NSaved=12 IEnMin=12 EnMin= -2905.42557008670     IErMin=12 ErrMin= 5.32D-08
 ErrMax= 5.32D-08 EMaxC= 1.00D-01 BMatC= 3.58D-13 BMatP= 4.46D-12
 IDIUse=1 WtCom= 1.00D+00 WtEn= 0.00D+00
 Coeff-Com: -0.449D-07 0.103D-05 0.780D-05-0.140D-05-0.115D-03-0.182D-03
 Coeff-Com: -0.320D-03 0.721D-02 0.975D-02-0.857D-01-0.180D+00 0.125D+01
 Coeff:     -0.449D-07 0.103D-05 0.780D-05-0.140D-05-0.115D-03-0.182D-03
 Coeff:     -0.320D-03 0.721D-02 0.975D-02-0.857D-01-0.180D+00 0.125D+01
 Gap=     0.414 Goal=   None    Shift=    0.000
 RMSDP=1.14D-08 MaxDP=2.40D-07 DE=-2.36D-11 OVMax= 1.66D-06

 Cycle  13  Pass 1  IDiag  1:
 RMSU=  1.94D-09    CP:  1.02D+00  6.37D-01  9.66D-01  7.58D-01  1.27D+00
                    CP:  9.34D-01  1.30D+00  1.35D+00  1.55D+00  1.61D+00
                    CP:  1.75D+00  1.63D+00
 FoFJK:  IHMeth= 1 ICntrl=     0 DoSepK=T KAlg= 1 I1Cent= 0 FoldK=F
 E= -2905.42557008670     Delta-E=       -0.000000000001 Rises=F Damp=F
 DIIS: error= 1.03D-08 at cycle  13 NSaved=  13.
 NSaved=13 IEnMin=13 EnMin= -2905.42557008670     IErMin=13 ErrMin= 1.03D-08
 ErrMax= 1.03D-08 EMaxC= 1.00D-01 BMatC= 2.77D-14 BMatP= 3.58D-13
 IDIUse=1 WtCom= 1.00D+00 WtEn= 0.00D+00
 Coeff-Com: -0.385D-07 0.451D-06 0.362D-05 0.683D-06 0.161D-04 0.833D-05
 Coeff-Com: -0.585D-03-0.267D-03 0.932D-02 0.708D-02-0.116D+00 0.940D-01
 Coeff-Com:  0.101D+01
 Coeff:     -0.385D-07 0.451D-06 0.362D-05 0.683D-06 0.161D-04 0.833D-05
 Coeff:     -0.585D-03-0.267D-03 0.932D-02 0.708D-02-0.116D+00 0.940D-01
 Coeff:      0.101D+01
 Gap=     0.414 Goal=   None    Shift=    0.000
 RMSDP=2.71D-09 MaxDP=6.37D-08 DE=-9.09D-13 OVMax= 2.98D-07

 SCF Done:  E(RwB97XD) =  -2905.42557009     A.U. after   13 cycles
             Convg  =    0.2710D-08             -V/T =  2.0015
 KE= 2.900929623529D+03 PE=-7.235294922972D+03 EE= 1.280461754182D+03
 Leave Link  502 at Thu Apr 16 10:49:52 2020, MaxMem= 1073741824 cpu:     306.4
 (Enter /home/matheus/.gaussian/g09/l601.exe)
 Copying SCF densities to generalized density rwf, IOpCl= 0 IROHF=0.

 **********************************************************************

            Population analysis using the SCF density.

 **********************************************************************

 Orbital symmetries:
       Occupied  (A) (A) (A) (A) (A) (A) (A) (A) (A) (A) (A) (A)
                 (A) (A) (A) (A) (A) (A) (A) (A) (A) (A) (A) (A)
                 (A) (A) (A)
       Virtual   (A) (A) (A) (A) (A) (A) (A) (A) (A) (A) (A) (A)
                 (A) (A) (A) (A) (A) (A) (A) (A) (A) (A) (A) (A)
                 (A) (A) (A) (A) (A) (A) (A) (A) (A) (A) (A) (A)
                 (A) (A) (A) (A) (A) (A) (A) (A) (A) (A) (A) (A)
                 (A) (A) (A) (A) (A) (A) (A) (A) (A) (A) (A) (A)
                 (A) (A) (A) (A) (A) (A) (A) (A) (A) (A) (A) (A)
                 (A) (A) (A) (A) (A) (A) (A) (A) (A) (A) (A) (A)
                 (A) (A) (A) (A) (A) (A) (A) (A) (A) (A) (A) (A)
                 (A) (A) (A) (A) (A) (A) (A) (A) (A) (A) (A) (A)
                 (A) (A) (A) (A) (A) (A) (A) (A) (A) (A) (A) (A)
                 (A) (A) (A) (A) (A) (A) (A) (A) (A) (A) (A) (A)
                 (A) (A) (A) (A) (A) (A) (A) (A) (A) (A) (A) (A)
                 (A) (A) (A) (A) (A) (A) (A) (A) (A) (A) (A) (A)
                 (A) (A) (A) (A) (A) (A) (A) (A) (A) (A) (A) (A)
                 (A) (A)
 The electronic state is 1-A.
 Alpha  occ. eigenvalues -- -513.08982 -67.35809 -60.90690 -60.90676 -60.90668
 Alpha  occ. eigenvalues --  -19.33831 -19.33435  -9.81136  -7.50474  -7.50427
 Alpha  occ. eigenvalues --   -7.50404  -3.37154  -3.37145  -3.37127  -3.37089
 Alpha  occ. eigenvalues --   -3.37087  -1.24351  -1.03299  -1.01802  -0.65410
 Alpha  occ. eigenvalues --   -0.61224  -0.52592  -0.49649  -0.49116  -0.48480
 Alpha  occ. eigenvalues --   -0.44418  -0.37781
 Alpha virt. eigenvalues --    0.03629   0.04339   0.08178   0.10006   0.10721
 Alpha virt. eigenvalues --    0.11725   0.13623   0.14322   0.16859   0.17794
 Alpha virt. eigenvalues --    0.18596   0.19228   0.20733   0.22616   0.23675
 Alpha virt. eigenvalues --    0.24460   0.26084   0.28557   0.31223   0.33473
 Alpha virt. eigenvalues --    0.33823   0.34697   0.36135   0.38827   0.39758
 Alpha virt. eigenvalues --    0.41149   0.41534   0.47762   0.51816   0.54941
 Alpha virt. eigenvalues --    0.56240   0.58345   0.62035   0.65562   0.67668
 Alpha virt. eigenvalues --    0.70298   0.70632   0.71907   0.72880   0.74996
 Alpha virt. eigenvalues --    0.75442   0.77243   0.77874   0.79415   0.81524
 Alpha virt. eigenvalues --    0.83872   0.84786   0.86661   0.88806   0.89723
 Alpha virt. eigenvalues --    0.92133   0.93472   0.95696   0.96657   0.98112
 Alpha virt. eigenvalues --    1.01260   1.01939   1.03731   1.06688   1.09104
 Alpha virt. eigenvalues --    1.10111   1.12311   1.14552   1.17199   1.21053
 Alpha virt. eigenvalues --    1.25963   1.30758   1.33174   1.37083   1.39408
 Alpha virt. eigenvalues --    1.41699   1.49401   1.52327   1.54696   1.60289
 Alpha virt. eigenvalues --    1.61986   1.74577   1.82399   1.82836   1.92689
 Alpha virt. eigenvalues --    1.97149   1.99779   2.04592   2.12362   2.13925
 Alpha virt. eigenvalues --    2.14872   2.18435   2.19944   2.21938   2.22778
 Alpha virt. eigenvalues --    2.24295   2.29460   2.29997   2.31030   2.33470
 Alpha virt. eigenvalues --    2.35749   2.38105   2.43526   2.45956   2.47583
 Alpha virt. eigenvalues --    2.47683   2.50438   2.51965   2.54021   2.57083
 Alpha virt. eigenvalues --    2.58030   2.60372   2.64038   2.64733   2.69154
 Alpha virt. eigenvalues --    2.72170   2.73732   2.81024   2.83293   2.87120
 Alpha virt. eigenvalues --    2.92633   3.04333   3.08849   3.13282   3.60293
 Alpha virt. eigenvalues --    3.66062   3.86155   3.98930   4.00448   4.03269
 Alpha virt. eigenvalues --    4.08391   4.14480   4.18476   4.22883   4.25688
 Alpha virt. eigenvalues --    4.44792   4.47779   4.51900   4.53659   4.71675
 Alpha virt. eigenvalues --    4.90867   4.99257   5.01509   5.07939   5.10893
 Alpha virt. eigenvalues --    5.27467   5.43064   5.83370   6.04437   6.06448
 Alpha virt. eigenvalues --    6.11151   6.31802   6.35015   6.39651   6.51313
 Alpha virt. eigenvalues --    6.65189   6.73542   6.76086   6.82234   6.85377
 Alpha virt. eigenvalues --    6.85612   6.90283   6.91696   6.96079   7.01779
 Alpha virt. eigenvalues --    7.03606   7.21449   7.25596   7.38932   7.72776
 Alpha virt. eigenvalues --    7.80795   8.05983   8.12056  14.00327  14.64078
          Condensed to atoms (all electrons):
              1          2          3          4          5
     1  O    8.144958  -0.159402   0.231605   0.001350  -0.023268
     2  O   -0.159402   8.229055   0.007587   0.210624  -0.017190
     3  H    0.231605   0.007587   0.544123   0.003333   0.003073
     4  H    0.001350   0.210624   0.003333   0.539977  -0.004189
     5  Kr  -0.023268  -0.017190   0.003073  -0.004189  36.034842
 Mulliken atomic charges:
              1
     1  O   -0.195243
     2  O   -0.270674
     3  H    0.210279
     4  H    0.248906
     5  Kr   0.006732
 Sum of Mulliken atomic charges =   0.00000
 Mulliken charges with hydrogens summed into heavy atoms:
              1
     1  O    0.015036
     2  O   -0.021768
     5  Kr   0.006732
 Sum of Mulliken charges with hydrogens summed into heavy atoms =   0.00000
 Electronic spatial extent (au):  <R**2>=            490.5739
 Charge=              0.0000 electrons
 Dipole moment (field-independent basis, Debye):
    X=             -0.5226    Y=             -0.3452    Z=              0.9950  Tot=              1.1757
 Quadrupole moment (field-independent basis, Debye-Ang):
   XX=            -28.4751   YY=            -28.1988   ZZ=            -30.0168
   XY=             -3.6041   XZ=              2.9873   YZ=             -1.0952
 Traceless Quadrupole moment (field-independent basis, Debye-Ang):
   XX=              0.4218   YY=              0.6981   ZZ=             -1.1199
   XY=             -3.6041   XZ=              2.9873   YZ=             -1.0952
 Octapole moment (field-independent basis, Debye-Ang**2):
  XXX=             -9.7271  YYY=             -0.8262  ZZZ=              0.5274  XYY=             -4.2182
  XXY=            -14.4000  XXZ=              8.4770  XZZ=             -7.0032  YZZ=             -0.9291
  YYZ=              1.3022  XYZ=             -3.2100
 Hexadecapole moment (field-independent basis, Debye-Ang**3):
 XXXX=           -378.0285 YYYY=            -63.6997 ZZZZ=            -29.9735 XXXY=            -42.4521
 XXXZ=             24.5783 YYYX=             -5.5676 YYYZ=             -1.4177 ZZZX=              1.7452
 ZZZY=             -0.7955 XXYY=            -75.7337 XXZZ=            -75.5042 YYZZ=            -16.9852
 XXYZ=             -9.2023 YYXZ=              3.6362 ZZXY=             -1.9898
 N-N= 1.484779751743D+02 E-N=-7.235294922581D+03  KE= 2.900929623529D+03
 No NMR shielding tensors so no spin-rotation constants.
 Leave Link  601 at Thu Apr 16 10:49:52 2020, MaxMem= 1073741824 cpu:       0.8
 (Enter /home/matheus/.gaussian/g09/l108.exe)
 Variable Step   Value    
 -------- ---- -----------
     1       1    5.858151
 Leave Link  108 at Thu Apr 16 10:49:52 2020, MaxMem= 1073741824 cpu:       0.0
 (Enter /home/matheus/.gaussian/g09/l202.exe)
 ---------------------------------------------------------------------------------------------------
                            Z-MATRIX (ANGSTROMS AND DEGREES)
   CD    Cent   Atom    N1       Length/X        N2       Alpha/Y        N3        Beta/Z          J
 ---------------------------------------------------------------------------------------------------
      1      1  O        0   0.000000          0.000000          0.725000
      2      2  O        0   0.000000          0.000000         -0.725000
      3      3  H        0   0.590542         -0.703781          1.023510
      4      4  H        0   0.000000          0.918721         -1.023510
      5      5  Kr       0   0.000000          3.100000          0.000000
 ---------------------------------------------------------------------------------------------------
                         Z-Matrix orientation:                         
 ---------------------------------------------------------------------
 Center     Atomic      Atomic             Coordinates (Angstroms)
 Number     Number       Type             X           Y           Z
 ---------------------------------------------------------------------
      1          8           0        0.000000    0.000000    0.725000
      2          8           0        0.000000    0.000000   -0.725000
      3          1           0        0.590542   -0.703781    1.023510
      4          1           0        0.000000    0.918721   -1.023510
      5         36           0        0.000000    3.100000    0.000000
 ---------------------------------------------------------------------
                    Distance matrix (angstroms):
                    1          2          3          4          5
     1  O    0.000000
     2  O    1.450000   0.000000
     3  H    0.966000   1.975180   0.000000
     4  H    1.975180   0.966000   2.677974   0.000000
     5  Kr   3.183650   3.183650   3.983097   2.409472   0.000000
 Stoichiometry    H2KrO2
 Framework group  C1[X(H2KrO2)]
 Deg. of freedom     9
 Full point group                 C1      NOp   1
 RotChk:  IX=0 Diff= 1.88D-03
 Largest Abelian subgroup         C1      NOp   1
 Largest concise Abelian subgroup C1      NOp   1
                         Standard orientation:                         
 ---------------------------------------------------------------------
 Center     Atomic      Atomic             Coordinates (Angstroms)
 Number     Number       Type             X           Y           Z
 ---------------------------------------------------------------------
      1          8           0        2.081509   -0.688678   -0.079786
      2          8           0        2.058531    0.758792    0.002685
      3          1           0        2.798286   -1.008419    0.483377
      4          1           0        1.135289    1.041502    0.031924
      5         36           0       -1.029275   -0.016500    0.002820
 ---------------------------------------------------------------------
 Rotational constants (GHZ):     26.2553722      2.1663424      2.0062482
 Leave Link  202 at Thu Apr 16 10:49:52 2020, MaxMem= 1073741824 cpu:       0.0
 (Enter /home/matheus/.gaussian/g09/l301.exe)
 Standard basis: Aug-CC-pVTZ (5D, 7F)
 Ernie: Thresh=  0.10000D-02 Tol=  0.10000D-05 Strict=F.
 Ernie:  38 primitive shells out of 205 were deleted.
 There are   197 symmetry adapted basis functions of A   symmetry.
 Integral buffers will be    131072 words long.
 Raffenetti 2 integral format.
 Two-electron integral symmetry is turned on.
   197 basis functions,   415 primitive gaussians,   229 cartesian basis functions
    27 alpha electrons       27 beta electrons
       nuclear repulsion energy       145.0361916629 Hartrees.
 IExCor= 4639 DFT=T Ex+Corr=wB97XD ExCW=0 ScaHFX=  1.000000
 ScaDFX=  1.000000  1.000000  1.000000  1.000000 ScalE2=  1.000000  1.000000
 IRadAn=      5 IRanWt=     -1 IRanGd=            0 ICorTp=0
  HFx wShort=  0.000000 wLong=  0.250000 cFull=  0.222036 cShort=  0.000000 cLong=  0.777964
  DFx wShort=  0.000000 wLong=  0.250000 cFull=  0.000000 cShort=  0.000000 cLong=  1.000000
 NAtoms=    5 NActive=    5 NUniq=    5 SFac= 1.00D+00 NAtFMM=   60 NAOKFM=F Big=F
 R6Disp: Dispersion energy =        -0.0008545332 Hartrees.
 Nuclear repulsion after empirical dispersion term =      145.0353371297 Hartrees.
 Leave Link  301 at Thu Apr 16 10:49:52 2020, MaxMem= 1073741824 cpu:       0.2
 (Enter /home/matheus/.gaussian/g09/l302.exe)
 NPDir=0 NMtPBC=     1 NCelOv=     1 NCel=       1 NClECP=     1 NCelD=      1
         NCelK=      1 NCelE2=     1 NClLst=     1 CellRange=     0.0.
 One-electron integrals computed using PRISM.
 NBasis=   197 RedAO= T  NBF=   197
 NBsUse=   197 1.00D-06 NBFU=   197
 Precomputing XC quadrature grid using
 IXCGrd= 2 IRadAn=           5 IRanWt=          -1 IRanGd=           0 AccXCQ= 0.00D+00.
 NRdTot=     427 NPtTot=      123814 NUsed=      126881 NTot=      126913
 NSgBfM=   229   229   229   229   229 NAtAll=     5     5.
 Leave Link  302 at Thu Apr 16 10:49:53 2020, MaxMem= 1073741824 cpu:       1.0
 (Enter /home/matheus/.gaussian/g09/l303.exe)
 DipDrv:  MaxL=1.
 Leave Link  303 at Thu Apr 16 10:49:53 2020, MaxMem= 1073741824 cpu:       0.2
 (Enter /home/matheus/.gaussian/g09/l401.exe)
 Initial guess read from the read-write file.
 B after Tr=     0.000000    0.000000    0.000000
         Rot=    1.000000    0.000000    0.000000    0.000000 Ang=   0.00 deg.
 Guess basis will be translated and rotated to current coordinates.
 Initial guess orbital symmetries:
       Occupied  (A) (A) (A) (A) (A) (A) (A) (A) (A) (A) (A) (A)
                 (A) (A) (A) (A) (A) (A) (A) (A) (A) (A) (A) (A)
                 (A) (A) (A)
       Virtual   (A) (A) (A) (A) (A) (A) (A) (A) (A) (A) (A) (A)
                 (A) (A) (A) (A) (A) (A) (A) (A) (A) (A) (A) (A)
                 (A) (A) (A) (A) (A) (A) (A) (A) (A) (A) (A) (A)
                 (A) (A) (A) (A) (A) (A) (A) (A) (A) (A) (A) (A)
                 (A) (A) (A) (A) (A) (A) (A) (A) (A) (A) (A) (A)
                 (A) (A) (A) (A) (A) (A) (A) (A) (A) (A) (A) (A)
                 (A) (A) (A) (A) (A) (A) (A) (A) (A) (A) (A) (A)
                 (A) (A) (A) (A) (A) (A) (A) (A) (A) (A) (A) (A)
                 (A) (A) (A) (A) (A) (A) (A) (A) (A) (A) (A) (A)
                 (A) (A) (A) (A) (A) (A) (A) (A) (A) (A) (A) (A)
                 (A) (A) (A) (A) (A) (A) (A) (A) (A) (A) (A) (A)
                 (A) (A) (A) (A) (A) (A) (A) (A) (A) (A) (A) (A)
                 (A) (A) (A) (A) (A) (A) (A) (A) (A) (A) (A) (A)
                 (A) (A) (A) (A) (A) (A) (A) (A) (A) (A) (A) (A)
                 (A) (A)
 The electronic state of the initial guess is 1-A.
 Generating alternative initial guess.
 Harris functional with IExCor= 4639 diagonalized for initial guess.
 ExpMin= 2.53D-02 ExpMax= 1.17D+07 ExpMxC= 1.33D+04 IAcc=3 IRadAn=         5 AccDes= 0.00D+00
 HarFok:  IExCor= 4639 AccDes= 0.00D+00 IRadAn=         5 IDoV= 1
 ScaDFX=  1.000000  1.000000  1.000000  1.000000
 FoFCou: FMM=F IPFlag=           0 FMFlag=      100000 FMFlg1=           0
         NFxFlg=           0 DoJE=T BraDBF=F KetDBF=T FulRan=T
         Omega=  0.000000  0.000000  1.000000  0.000000  0.000000 ICntrl=     500 IOpCl=  0
         NMat0=    1 NMatS0=    1 NMatT0=    0 NMatD0=    1 NMtDS0=    0 NMtDT0=    0
         I1Cent=           4 NGrid=           0.
 Petite list used in FoFCou.
 Harris En= -2875.39849002884    
 Leave Link  401 at Thu Apr 16 10:49:53 2020, MaxMem= 1073741824 cpu:       4.3
 (Enter /home/matheus/.gaussian/g09/l502.exe)
 Closed shell SCF:
 Requested convergence on RMS density matrix=1.00D-08 within 128 cycles.
 Requested convergence on MAX density matrix=1.00D-06.
 Requested convergence on             energy=1.00D-06.
 No special actions if energy rises.
 Using DIIS extrapolation, IDIIS=  1040.
 Integral symmetry usage will be decided dynamically.
       126823 words used for storage of precomputed grid.
 IEnd=      305770 IEndB=      305770 NGot=  1073741824 MDV=  1073505365
 LenX=  1073505365 LenY=  1073452483
 Fock matrices will be formed incrementally for  20 cycles.

 Cycle   1  Pass 1  IDiag  1:
 FoFJK:  IHMeth= 1 ICntrl=     0 DoSepK=T KAlg= 1 I1Cent= 0 FoldK=F
 FoFCou: FMM=F IPFlag=           0 FMFlag=      100000 FMFlg1=           0
         NFxFlg=           0 DoJE=T BraDBF=F KetDBF=F FulRan=T
         Omega=  0.000000  0.000000  1.000000  0.000000  0.000000 ICntrl=     500 IOpCl=  0
         NMat0=    1 NMatS0=    1 NMatT0=    0 NMatD0=    1 NMtDS0=    0 NMtDT0=    0
         I1Cent=           0 NGrid=           0.
 Symmetry not used in FoFCou.
 E= -2905.42717218571    
 DIIS: error= 1.13D-03 at cycle   1 NSaved=   1.
 NSaved= 1 IEnMin= 1 EnMin= -2905.42717218571     IErMin= 1 ErrMin= 1.13D-03
 ErrMax= 1.13D-03 EMaxC= 1.00D-01 BMatC= 5.09D-04 BMatP= 5.09D-04
 IDIUse=3 WtCom= 9.89D-01 WtEn= 1.13D-02
 Coeff-Com:  0.100D+01
 Coeff-En:   0.100D+01
 Coeff:      0.100D+01
 Gap=     0.416 Goal=   None    Shift=    0.000
 GapD=    0.416 DampG=2.000 DampE=1.000 DampFc=2.0000 IDamp=-1.
 RMSDP=7.72D-05 MaxDP=2.35D-03              OVMax= 3.53D-03

 Cycle   2  Pass 1  IDiag  1:
 RMSU=  5.45D-05    CP:  1.00D+00
 FoFJK:  IHMeth= 1 ICntrl=     0 DoSepK=T KAlg= 1 I1Cent= 0 FoldK=F
 E= -2905.42727213424     Delta-E=       -0.000099948526 Rises=F Damp=F
 DIIS: error= 1.13D-04 at cycle   2 NSaved=   2.
 NSaved= 2 IEnMin= 2 EnMin= -2905.42727213424     IErMin= 2 ErrMin= 1.13D-04
 ErrMax= 1.13D-04 EMaxC= 1.00D-01 BMatC= 5.26D-06 BMatP= 5.09D-04
 IDIUse=3 WtCom= 9.99D-01 WtEn= 1.13D-03
 Coeff-Com: -0.373D-05 0.100D+01
 Coeff-En:   0.000D+00 0.100D+01
 Coeff:     -0.372D-05 0.100D+01
 Gap=     0.414 Goal=   None    Shift=    0.000
 RMSDP=1.75D-05 MaxDP=7.38D-04 DE=-9.99D-05 OVMax= 7.82D-04

 Cycle   3  Pass 1  IDiag  1:
 RMSU=  9.97D-06    CP:  1.00D+00  1.14D+00
 FoFJK:  IHMeth= 1 ICntrl=     0 DoSepK=T KAlg= 1 I1Cent= 0 FoldK=F
 E= -2905.42727456452     Delta-E=       -0.000002430286 Rises=F Damp=F
 DIIS: error= 1.14D-04 at cycle   3 NSaved=   3.
 NSaved= 3 IEnMin= 3 EnMin= -2905.42727456452     IErMin= 2 ErrMin= 1.13D-04
 ErrMax= 1.14D-04 EMaxC= 1.00D-01 BMatC= 4.96D-06 BMatP= 5.26D-06
 IDIUse=3 WtCom= 9.99D-01 WtEn= 1.14D-03
 Coeff-Com: -0.863D-02 0.496D+00 0.512D+00
 Coeff-En:   0.000D+00 0.259D+00 0.741D+00
 Coeff:     -0.862D-02 0.496D+00 0.512D+00
 Gap=     0.414 Goal=   None    Shift=    0.000
 RMSDP=6.14D-06 MaxDP=3.15D-04 DE=-2.43D-06 OVMax= 5.21D-04

 Cycle   4  Pass 1  IDiag  1:
 RMSU=  3.28D-06    CP:  1.00D+00  1.15D+00  7.30D-01
 FoFJK:  IHMeth= 1 ICntrl=     0 DoSepK=T KAlg= 1 I1Cent= 0 FoldK=F
 E= -2905.42727758242     Delta-E=       -0.000003017897 Rises=F Damp=F
 DIIS: error= 2.72D-05 at cycle   4 NSaved=   4.
 NSaved= 4 IEnMin= 4 EnMin= -2905.42727758242     IErMin= 4 ErrMin= 2.72D-05
 ErrMax= 2.72D-05 EMaxC= 1.00D-01 BMatC= 2.22D-07 BMatP= 4.96D-06
 IDIUse=1 WtCom= 1.00D+00 WtEn= 0.00D+00
 Coeff-Com: -0.275D-02 0.614D-01 0.176D+00 0.766D+00
 Coeff:     -0.275D-02 0.614D-01 0.176D+00 0.766D+00
 Gap=     0.414 Goal=   None    Shift=    0.000
 RMSDP=2.07D-06 MaxDP=6.72D-05 DE=-3.02D-06 OVMax= 1.26D-04

 Cycle   5  Pass 1  IDiag  1:
 RMSU=  1.10D-06    CP:  1.00D+00  1.16D+00  8.09D-01  1.03D+00
 FoFJK:  IHMeth= 1 ICntrl=     0 DoSepK=T KAlg= 1 I1Cent= 0 FoldK=F
 E= -2905.42727774916     Delta-E=       -0.000000166743 Rises=F Damp=F
 DIIS: error= 1.15D-05 at cycle   5 NSaved=   5.
 NSaved= 5 IEnMin= 5 EnMin= -2905.42727774916     IErMin= 5 ErrMin= 1.15D-05
 ErrMax= 1.15D-05 EMaxC= 1.00D-01 BMatC= 3.47D-08 BMatP= 2.22D-07
 IDIUse=1 WtCom= 1.00D+00 WtEn= 0.00D+00
 Coeff-Com:  0.202D-03-0.547D-01-0.996D-02 0.311D+00 0.753D+00
 Coeff:      0.202D-03-0.547D-01-0.996D-02 0.311D+00 0.753D+00
 Gap=     0.414 Goal=   None    Shift=    0.000
 RMSDP=1.04D-06 MaxDP=5.01D-05 DE=-1.67D-07 OVMax= 5.07D-05

 Cycle   6  Pass 1  IDiag  1:
 RMSU=  3.65D-07    CP:  1.00D+00  1.17D+00  8.46D-01  1.17D+00  9.56D-01
 FoFJK:  IHMeth= 1 ICntrl=     0 DoSepK=T KAlg= 1 I1Cent= 0 FoldK=F
 E= -2905.42727777859     Delta-E=       -0.000000029430 Rises=F Damp=F
 DIIS: error= 1.90D-06 at cycle   6 NSaved=   6.
 NSaved= 6 IEnMin= 6 EnMin= -2905.42727777859     IErMin= 6 ErrMin= 1.90D-06
 ErrMax= 1.90D-06 EMaxC= 1.00D-01 BMatC= 1.40D-09 BMatP= 3.47D-08
 IDIUse=1 WtCom= 1.00D+00 WtEn= 0.00D+00
 Coeff-Com:  0.192D-03-0.202D-01-0.119D-01 0.566D-01 0.232D+00 0.743D+00
 Coeff:      0.192D-03-0.202D-01-0.119D-01 0.566D-01 0.232D+00 0.743D+00
 Gap=     0.414 Goal=   None    Shift=    0.000
 RMSDP=2.02D-07 MaxDP=6.54D-06 DE=-2.94D-08 OVMax= 1.06D-05

 Cycle   7  Pass 1  IDiag  1:
 RMSU=  9.02D-08    CP:  1.00D+00  1.17D+00  8.52D-01  1.19D+00  1.02D+00
                    CP:  1.06D+00
 FoFJK:  IHMeth= 1 ICntrl=     0 DoSepK=T KAlg= 1 I1Cent= 0 FoldK=F
 E= -2905.42727778012     Delta-E=       -0.000000001531 Rises=F Damp=F
 DIIS: error= 5.71D-07 at cycle   7 NSaved=   7.
 NSaved= 7 IEnMin= 7 EnMin= -2905.42727778012     IErMin= 7 ErrMin= 5.71D-07
 ErrMax= 5.71D-07 EMaxC= 1.00D-01 BMatC= 7.57D-11 BMatP= 1.40D-09
 IDIUse=1 WtCom= 1.00D+00 WtEn= 0.00D+00
 Coeff-Com: -0.173D-04 0.605D-02 0.132D-02-0.356D-01-0.831D-01 0.176D-01
 Coeff-Com:  0.109D+01
 Coeff:     -0.173D-04 0.605D-02 0.132D-02-0.356D-01-0.831D-01 0.176D-01
 Coeff:      0.109D+01
 Gap=     0.414 Goal=   None    Shift=    0.000
 RMSDP=1.06D-07 MaxDP=4.40D-06 DE=-1.53D-09 OVMax= 6.55D-06

 Cycle   8  Pass 1  IDiag  1:
 RMSU=  2.99D-08    CP:  1.00D+00  1.17D+00  8.54D-01  1.20D+00  1.04D+00
                    CP:  1.20D+00  1.22D+00
 FoFJK:  IHMeth= 1 ICntrl=     0 DoSepK=T KAlg= 1 I1Cent= 0 FoldK=F
 E= -2905.42727778029     Delta-E=       -0.000000000164 Rises=F Damp=F
 DIIS: error= 7.09D-08 at cycle   8 NSaved=   8.
 NSaved= 8 IEnMin= 8 EnMin= -2905.42727778029     IErMin= 8 ErrMin= 7.09D-08
 ErrMax= 7.09D-08 EMaxC= 1.00D-01 BMatC= 3.45D-12 BMatP= 7.57D-11
 IDIUse=1 WtCom= 1.00D+00 WtEn= 0.00D+00
 Coeff-Com: -0.126D-04 0.205D-02 0.754D-03-0.943D-02-0.247D-01-0.259D-01
 Coeff-Com:  0.177D+00 0.880D+00
 Coeff:     -0.126D-04 0.205D-02 0.754D-03-0.943D-02-0.247D-01-0.259D-01
 Coeff:      0.177D+00 0.880D+00
 Gap=     0.414 Goal=   None    Shift=    0.000
 RMSDP=1.51D-08 MaxDP=5.37D-07 DE=-1.64D-10 OVMax= 1.12D-06

 Cycle   9  Pass 1  IDiag  1:
 RMSU=  6.24D-09    CP:  1.00D+00  1.17D+00  8.54D-01  1.20D+00  1.04D+00
                    CP:  1.20D+00  1.27D+00  1.22D+00
 FoFJK:  IHMeth= 1 ICntrl=     0 DoSepK=T KAlg= 1 I1Cent= 0 FoldK=F
 E= -2905.42727778031     Delta-E=       -0.000000000021 Rises=F Damp=F
 DIIS: error= 2.66D-08 at cycle   9 NSaved=   9.
 NSaved= 9 IEnMin= 9 EnMin= -2905.42727778031     IErMin= 9 ErrMin= 2.66D-08
 ErrMax= 2.66D-08 EMaxC= 1.00D-01 BMatC= 2.84D-13 BMatP= 3.45D-12
 IDIUse=1 WtCom= 1.00D+00 WtEn= 0.00D+00
 Coeff-Com:  0.135D-05-0.474D-03-0.110D-03 0.274D-02 0.686D-02-0.177D-02
 Coeff-Com: -0.919D-01 0.338D-01 0.105D+01
 Coeff:      0.135D-05-0.474D-03-0.110D-03 0.274D-02 0.686D-02-0.177D-02
 Coeff:     -0.919D-01 0.338D-01 0.105D+01
 Gap=     0.414 Goal=   None    Shift=    0.000
 RMSDP=7.39D-09 MaxDP=2.52D-07 DE=-2.09D-11 OVMax= 5.69D-07

 SCF Done:  E(RwB97XD) =  -2905.42727778     A.U. after    9 cycles
             Convg  =    0.7394D-08             -V/T =  2.0016
 KE= 2.900917212426D+03 PE=-7.228406661235D+03 EE= 1.277026833900D+03
 Leave Link  502 at Thu Apr 16 10:50:19 2020, MaxMem= 1073741824 cpu:     207.7
 (Enter /home/matheus/.gaussian/g09/l108.exe)
 Variable Step   Value    
 -------- ---- -----------
     1       2    6.047124
 Leave Link  108 at Thu Apr 16 10:50:19 2020, MaxMem= 1073741824 cpu:       0.0
 (Enter /home/matheus/.gaussian/g09/l202.exe)
 ---------------------------------------------------------------------------------------------------
                            Z-MATRIX (ANGSTROMS AND DEGREES)
   CD    Cent   Atom    N1       Length/X        N2       Alpha/Y        N3        Beta/Z          J
 ---------------------------------------------------------------------------------------------------
      1      1  O        0   0.000000          0.000000          0.725000
      2      2  O        0   0.000000          0.000000         -0.725000
      3      3  H        0   0.590542         -0.703781          1.023510
      4      4  H        0   0.000000          0.918721         -1.023510
      5      5  Kr       0   0.000000          3.200000          0.000000
 ---------------------------------------------------------------------------------------------------
                         Z-Matrix orientation:                         
 ---------------------------------------------------------------------
 Center     Atomic      Atomic             Coordinates (Angstroms)
 Number     Number       Type             X           Y           Z
 ---------------------------------------------------------------------
      1          8           0        0.000000    0.000000    0.725000
      2          8           0        0.000000    0.000000   -0.725000
      3          1           0        0.590542   -0.703781    1.023510
      4          1           0        0.000000    0.918721   -1.023510
      5         36           0        0.000000    3.200000    0.000000
 ---------------------------------------------------------------------
                    Distance matrix (angstroms):
                    1          2          3          4          5
     1  O    0.000000
     2  O    1.450000   0.000000
     3  H    0.966000   1.975180   0.000000
     4  H    1.975180   0.966000   2.677974   0.000000
     5  Kr   3.281101   3.281101   4.078703   2.500362   0.000000
 Stoichiometry    H2KrO2
 Framework group  C1[X(H2KrO2)]
 Deg. of freedom     9
 Full point group                 C1      NOp   1
 RotChk:  IX=0 Diff= 1.70D-03
 Largest Abelian subgroup         C1      NOp   1
 Largest concise Abelian subgroup C1      NOp   1
                         Standard orientation:                         
 ---------------------------------------------------------------------
 Center     Atomic      Atomic             Coordinates (Angstroms)
 Number     Number       Type             X           Y           Z
 ---------------------------------------------------------------------
      1          8           0        2.147450   -0.689904   -0.079670
      2          8           0        2.126009    0.757583    0.002921
      3          1           0        2.863597   -1.010476    0.483821
      4          1           0        1.203061    1.041297    0.031726
      5         36           0       -1.062620   -0.015896    0.002735
 ---------------------------------------------------------------------
 Rotational constants (GHZ):     26.2539147      2.0337160      1.8919777
 Leave Link  202 at Thu Apr 16 10:50:19 2020, MaxMem= 1073741824 cpu:       0.0
 (Enter /home/matheus/.gaussian/g09/l301.exe)
 Standard basis: Aug-CC-pVTZ (5D, 7F)
 Ernie: Thresh=  0.10000D-02 Tol=  0.10000D-05 Strict=F.
 Ernie:  38 primitive shells out of 205 were deleted.
 There are   197 symmetry adapted basis functions of A   symmetry.
 Integral buffers will be    131072 words long.
 Raffenetti 2 integral format.
 Two-electron integral symmetry is turned on.
   197 basis functions,   415 primitive gaussians,   229 cartesian basis functions
    27 alpha electrons       27 beta electrons
       nuclear repulsion energy       141.7930818138 Hartrees.
 IExCor= 4639 DFT=T Ex+Corr=wB97XD ExCW=0 ScaHFX=  1.000000
 ScaDFX=  1.000000  1.000000  1.000000  1.000000 ScalE2=  1.000000  1.000000
 IRadAn=      5 IRanWt=     -1 IRanGd=            0 ICorTp=0
  HFx wShort=  0.000000 wLong=  0.250000 cFull=  0.222036 cShort=  0.000000 cLong=  0.777964
  DFx wShort=  0.000000 wLong=  0.250000 cFull=  0.000000 cShort=  0.000000 cLong=  1.000000
 NAtoms=    5 NActive=    5 NUniq=    5 SFac= 1.00D+00 NAtFMM=   60 NAOKFM=F Big=F
 R6Disp: Dispersion energy =        -0.0009046014 Hartrees.
 Nuclear repulsion after empirical dispersion term =      141.7921772124 Hartrees.
 Leave Link  301 at Thu Apr 16 10:50:19 2020, MaxMem= 1073741824 cpu:       0.2
 (Enter /home/matheus/.gaussian/g09/l302.exe)
 NPDir=0 NMtPBC=     1 NCelOv=     1 NCel=       1 NClECP=     1 NCelD=      1
         NCelK=      1 NCelE2=     1 NClLst=     1 CellRange=     0.0.
 One-electron integrals computed using PRISM.
 NBasis=   197 RedAO= T  NBF=   197
 NBsUse=   197 1.00D-06 NBFU=   197
 Precomputing XC quadrature grid using
 IXCGrd= 2 IRadAn=           5 IRanWt=          -1 IRanGd=           0 AccXCQ= 0.00D+00.
 NRdTot=     427 NPtTot=      123814 NUsed=      126881 NTot=      126913
 NSgBfM=   229   229   229   229   229 NAtAll=     5     5.
 Leave Link  302 at Thu Apr 16 10:50:19 2020, MaxMem= 1073741824 cpu:       1.0
 (Enter /home/matheus/.gaussian/g09/l303.exe)
 DipDrv:  MaxL=1.
 Leave Link  303 at Thu Apr 16 10:50:19 2020, MaxMem= 1073741824 cpu:       0.2
 (Enter /home/matheus/.gaussian/g09/l401.exe)
 Initial guess read from the read-write file.
 B after Tr=     0.000000    0.000000    0.000000
         Rot=    1.000000    0.000000    0.000000    0.000000 Ang=   0.00 deg.
 Guess basis will be translated and rotated to current coordinates.
 Initial guess orbital symmetries:
       Occupied  (A) (A) (A) (A) (A) (A) (A) (A) (A) (A) (A) (A)
                 (A) (A) (A) (A) (A) (A) (A) (A) (A) (A) (A) (A)
                 (A) (A) (A)
       Virtual   (A) (A) (A) (A) (A) (A) (A) (A) (A) (A) (A) (A)
                 (A) (A) (A) (A) (A) (A) (A) (A) (A) (A) (A) (A)
                 (A) (A) (A) (A) (A) (A) (A) (A) (A) (A) (A) (A)
                 (A) (A) (A) (A) (A) (A) (A) (A) (A) (A) (A) (A)
                 (A) (A) (A) (A) (A) (A) (A) (A) (A) (A) (A) (A)
                 (A) (A) (A) (A) (A) (A) (A) (A) (A) (A) (A) (A)
                 (A) (A) (A) (A) (A) (A) (A) (A) (A) (A) (A) (A)
                 (A) (A) (A) (A) (A) (A) (A) (A) (A) (A) (A) (A)
                 (A) (A) (A) (A) (A) (A) (A) (A) (A) (A) (A) (A)
                 (A) (A) (A) (A) (A) (A) (A) (A) (A) (A) (A) (A)
                 (A) (A) (A) (A) (A) (A) (A) (A) (A) (A) (A) (A)
                 (A) (A) (A) (A) (A) (A) (A) (A) (A) (A) (A) (A)
                 (A) (A) (A) (A) (A) (A) (A) (A) (A) (A) (A) (A)
                 (A) (A) (A) (A) (A) (A) (A) (A) (A) (A) (A) (A)
                 (A) (A)
 The electronic state of the initial guess is 1-A.
 Generating alternative initial guess.
 Harris functional with IExCor= 4639 diagonalized for initial guess.
 ExpMin= 2.53D-02 ExpMax= 1.17D+07 ExpMxC= 1.33D+04 IAcc=3 IRadAn=         5 AccDes= 0.00D+00
 HarFok:  IExCor= 4639 AccDes= 0.00D+00 IRadAn=         5 IDoV= 1
 ScaDFX=  1.000000  1.000000  1.000000  1.000000
 FoFCou: FMM=F IPFlag=           0 FMFlag=      100000 FMFlg1=           0
         NFxFlg=           0 DoJE=T BraDBF=F KetDBF=T FulRan=T
         Omega=  0.000000  0.000000  1.000000  0.000000  0.000000 ICntrl=     500 IOpCl=  0
         NMat0=    1 NMatS0=    1 NMatT0=    0 NMatD0=    1 NMtDS0=    0 NMtDT0=    0
         I1Cent=           4 NGrid=           0.
 Petite list used in FoFCou.
 Harris En= -2875.40076248426    
 Leave Link  401 at Thu Apr 16 10:50:20 2020, MaxMem= 1073741824 cpu:       4.4
 (Enter /home/matheus/.gaussian/g09/l502.exe)
 Closed shell SCF:
 Requested convergence on RMS density matrix=1.00D-08 within 128 cycles.
 Requested convergence on MAX density matrix=1.00D-06.
 Requested convergence on             energy=1.00D-06.
 No special actions if energy rises.
 Using DIIS extrapolation, IDIIS=  1040.
 Integral symmetry usage will be decided dynamically.
       126823 words used for storage of precomputed grid.
 IEnd=      305770 IEndB=      305770 NGot=  1073741824 MDV=  1073505365
 LenX=  1073505365 LenY=  1073452483
 Fock matrices will be formed incrementally for  20 cycles.

 Cycle   1  Pass 1  IDiag  1:
 FoFJK:  IHMeth= 1 ICntrl=     0 DoSepK=T KAlg= 1 I1Cent= 0 FoldK=F
 FoFCou: FMM=F IPFlag=           0 FMFlag=      100000 FMFlg1=           0
         NFxFlg=           0 DoJE=T BraDBF=F KetDBF=F FulRan=T
         Omega=  0.000000  0.000000  1.000000  0.000000  0.000000 ICntrl=     500 IOpCl=  0
         NMat0=    1 NMatS0=    1 NMatT0=    0 NMatD0=    1 NMtDS0=    0 NMtDT0=    0
         I1Cent=           0 NGrid=           0.
 Symmetry not used in FoFCou.
 E= -2905.42830955372    
 DIIS: error= 9.33D-04 at cycle   1 NSaved=   1.
 NSaved= 1 IEnMin= 1 EnMin= -2905.42830955372     IErMin= 1 ErrMin= 9.33D-04
 ErrMax= 9.33D-04 EMaxC= 1.00D-01 BMatC= 3.90D-04 BMatP= 3.90D-04
 IDIUse=3 WtCom= 9.91D-01 WtEn= 9.33D-03
 Coeff-Com:  0.100D+01
 Coeff-En:   0.100D+01
 Coeff:      0.100D+01
 Gap=     0.416 Goal=   None    Shift=    0.000
 RMSDP=7.18D-05 MaxDP=2.01D-03              OVMax= 3.23D-03

 Cycle   2  Pass 1  IDiag  1:
 RMSU=  5.08D-05    CP:  1.00D+00
 FoFJK:  IHMeth= 1 ICntrl=     0 DoSepK=T KAlg= 1 I1Cent= 0 FoldK=F
 E= -2905.42838556306     Delta-E=       -0.000076009335 Rises=F Damp=F
 DIIS: error= 8.57D-05 at cycle   2 NSaved=   2.
 NSaved= 2 IEnMin= 2 EnMin= -2905.42838556306     IErMin= 2 ErrMin= 8.57D-05
 ErrMax= 8.57D-05 EMaxC= 1.00D-01 BMatC= 3.53D-06 BMatP= 3.90D-04
 IDIUse=1 WtCom= 1.00D+00 WtEn= 0.00D+00
 Coeff-Com: -0.217D-02 0.100D+01
 Coeff:     -0.217D-02 0.100D+01
 Gap=     0.414 Goal=   None    Shift=    0.000
 RMSDP=1.53D-05 MaxDP=5.79D-04 DE=-7.60D-05 OVMax= 7.19D-04

 Cycle   3  Pass 1  IDiag  1:
 RMSU=  8.19D-06    CP:  1.00D+00  1.14D+00
 FoFJK:  IHMeth= 1 ICntrl=     0 DoSepK=T KAlg= 1 I1Cent= 0 FoldK=F
 E= -2905.42838744675     Delta-E=       -0.000001883694 Rises=F Damp=F
 DIIS: error= 8.98D-05 at cycle   3 NSaved=   3.
 NSaved= 3 IEnMin= 3 EnMin= -2905.42838744675     IErMin= 2 ErrMin= 8.57D-05
 ErrMax= 8.98D-05 EMaxC= 1.00D-01 BMatC= 3.26D-06 BMatP= 3.53D-06
 IDIUse=1 WtCom= 1.00D+00 WtEn= 0.00D+00
 Coeff-Com: -0.849D-02 0.493D+00 0.515D+00
 Coeff:     -0.849D-02 0.493D+00 0.515D+00
 Gap=     0.415 Goal=   None    Shift=    0.000
 RMSDP=5.09D-06 MaxDP=2.57D-04 DE=-1.88D-06 OVMax= 4.28D-04

 Cycle   4  Pass 1  IDiag  1:
 RMSU=  2.79D-06    CP:  1.00D+00  1.16D+00  7.48D-01
 FoFJK:  IHMeth= 1 ICntrl=     0 DoSepK=T KAlg= 1 I1Cent= 0 FoldK=F
 E= -2905.42838943339     Delta-E=       -0.000001986640 Rises=F Damp=F
 DIIS: error= 2.15D-05 at cycle   4 NSaved=   4.
 NSaved= 4 IEnMin= 4 EnMin= -2905.42838943339     IErMin= 4 ErrMin= 2.15D-05
 ErrMax= 2.15D-05 EMaxC= 1.00D-01 BMatC= 1.59D-07 BMatP= 3.26D-06
 IDIUse=1 WtCom= 1.00D+00 WtEn= 0.00D+00
 Coeff-Com: -0.243D-02 0.464D-01 0.175D+00 0.781D+00
 Coeff:     -0.243D-02 0.464D-01 0.175D+00 0.781D+00
 Gap=     0.415 Goal=   None    Shift=    0.000
 RMSDP=1.89D-06 MaxDP=6.50D-05 DE=-1.99D-06 OVMax= 1.16D-04

 Cycle   5  Pass 1  IDiag  1:
 RMSU=  9.35D-07    CP:  1.00D+00  1.17D+00  8.38D-01  1.05D+00
 FoFJK:  IHMeth= 1 ICntrl=     0 DoSepK=T KAlg= 1 I1Cent= 0 FoldK=F
 E= -2905.42838955555     Delta-E=       -0.000000122164 Rises=F Damp=F
 DIIS: error= 8.83D-06 at cycle   5 NSaved=   5.
 NSaved= 5 IEnMin= 5 EnMin= -2905.42838955555     IErMin= 5 ErrMin= 8.83D-06
 ErrMax= 8.83D-06 EMaxC= 1.00D-01 BMatC= 2.45D-08 BMatP= 1.59D-07
 IDIUse=1 WtCom= 1.00D+00 WtEn= 0.00D+00
 Coeff-Com:  0.232D-03-0.557D-01-0.565D-02 0.319D+00 0.742D+00
 Coeff:      0.232D-03-0.557D-01-0.565D-02 0.319D+00 0.742D+00
 Gap=     0.415 Goal=   None    Shift=    0.000
 RMSDP=9.02D-07 MaxDP=4.47D-05 DE=-1.22D-07 OVMax= 4.41D-05

 Cycle   6  Pass 1  IDiag  1:
 RMSU=  3.06D-07    CP:  1.00D+00  1.17D+00  8.77D-01  1.18D+00  9.51D-01
 FoFJK:  IHMeth= 1 ICntrl=     0 DoSepK=T KAlg= 1 I1Cent= 0 FoldK=F
 E= -2905.42838957631     Delta-E=       -0.000000020751 Rises=F Damp=F
 DIIS: error= 1.60D-06 at cycle   6 NSaved=   6.
 NSaved= 6 IEnMin= 6 EnMin= -2905.42838957631     IErMin= 6 ErrMin= 1.60D-06
 ErrMax= 1.60D-06 EMaxC= 1.00D-01 BMatC= 9.78D-10 BMatP= 2.45D-08
 IDIUse=1 WtCom= 1.00D+00 WtEn= 0.00D+00
 Coeff-Com:  0.186D-03-0.194D-01-0.105D-01 0.553D-01 0.225D+00 0.750D+00
 Coeff:      0.186D-03-0.194D-01-0.105D-01 0.553D-01 0.225D+00 0.750D+00
 Gap=     0.415 Goal=   None    Shift=    0.000
 RMSDP=1.75D-07 MaxDP=6.30D-06 DE=-2.08D-08 OVMax= 9.60D-06

 Cycle   7  Pass 1  IDiag  1:
 RMSU=  7.61D-08    CP:  1.00D+00  1.18D+00  8.83D-01  1.20D+00  1.01D+00
                    CP:  1.06D+00
 FoFJK:  IHMeth= 1 ICntrl=     0 DoSepK=T KAlg= 1 I1Cent= 0 FoldK=F
 E= -2905.42838957741     Delta-E=       -0.000000001105 Rises=F Damp=F
 DIIS: error= 4.61D-07 at cycle   7 NSaved=   7.
 NSaved= 7 IEnMin= 7 EnMin= -2905.42838957741     IErMin= 7 ErrMin= 4.61D-07
 ErrMax= 4.61D-07 EMaxC= 1.00D-01 BMatC= 5.88D-11 BMatP= 9.78D-10
 IDIUse=1 WtCom= 1.00D+00 WtEn= 0.00D+00
 Coeff-Com: -0.210D-04 0.644D-02 0.831D-03-0.385D-01-0.851D-01 0.239D-01
 Coeff-Com:  0.109D+01
 Coeff:     -0.210D-04 0.644D-02 0.831D-03-0.385D-01-0.851D-01 0.239D-01
 Coeff:      0.109D+01
 Gap=     0.415 Goal=   None    Shift=    0.000
 RMSDP=9.16D-08 MaxDP=4.01D-06 DE=-1.11D-09 OVMax= 5.99D-06

 Cycle   8  Pass 1  IDiag  1:
 RMSU=  2.68D-08    CP:  1.00D+00  1.18D+00  8.85D-01  1.21D+00  1.04D+00
                    CP:  1.19D+00  1.23D+00
 FoFJK:  IHMeth= 1 ICntrl=     0 DoSepK=T KAlg= 1 I1Cent= 0 FoldK=F
 E= -2905.42838957755     Delta-E=       -0.000000000137 Rises=F Damp=F
 DIIS: error= 7.57D-08 at cycle   8 NSaved=   8.
 NSaved= 8 IEnMin= 8 EnMin= -2905.42838957755     IErMin= 8 ErrMin= 7.57D-08
 ErrMax= 7.57D-08 EMaxC= 1.00D-01 BMatC= 2.61D-12 BMatP= 5.88D-11
 IDIUse=1 WtCom= 1.00D+00 WtEn= 0.00D+00
 Coeff-Com: -0.124D-04 0.196D-02 0.572D-03-0.928D-02-0.230D-01-0.249D-01
 Coeff-Com:  0.163D+00 0.892D+00
 Coeff:     -0.124D-04 0.196D-02 0.572D-03-0.928D-02-0.230D-01-0.249D-01
 Coeff:      0.163D+00 0.892D+00
 Gap=     0.415 Goal=   None    Shift=    0.000
 RMSDP=1.41D-08 MaxDP=4.50D-07 DE=-1.37D-10 OVMax= 1.17D-06

 Cycle   9  Pass 1  IDiag  1:
 RMSU=  5.66D-09    CP:  1.00D+00  1.18D+00  8.85D-01  1.21D+00  1.03D+00
                    CP:  1.20D+00  1.29D+00  1.24D+00
 FoFJK:  IHMeth= 1 ICntrl=     0 DoSepK=T KAlg= 1 I1Cent= 0 FoldK=F
 E= -2905.42838957755     Delta-E=       -0.000000000005 Rises=F Damp=F
 DIIS: error= 2.56D-08 at cycle   9 NSaved=   9.
 NSaved= 9 IEnMin= 9 EnMin= -2905.42838957755     IErMin= 9 ErrMin= 2.56D-08
 ErrMax= 2.56D-08 EMaxC= 1.00D-01 BMatC= 2.76D-13 BMatP= 2.61D-12
 IDIUse=1 WtCom= 1.00D+00 WtEn= 0.00D+00
 Coeff-Com:  0.216D-05-0.631D-03-0.901D-04 0.367D-02 0.866D-02-0.259D-02
 Coeff-Com: -0.109D+00 0.261D-01 0.107D+01
 Coeff:      0.216D-05-0.631D-03-0.901D-04 0.367D-02 0.866D-02-0.259D-02
 Coeff:     -0.109D+00 0.261D-01 0.107D+01
 Gap=     0.415 Goal=   None    Shift=    0.000
 RMSDP=7.57D-09 MaxDP=2.69D-07 DE=-5.46D-12 OVMax= 7.07D-07

 SCF Done:  E(RwB97XD) =  -2905.42838958     A.U. after    9 cycles
             Convg  =    0.7575D-08             -V/T =  2.0016
 KE= 2.900909319842D+03 PE=-7.221923449838D+03 EE= 1.273793563205D+03
 Leave Link  502 at Thu Apr 16 10:50:46 2020, MaxMem= 1073741824 cpu:     204.1
 (Enter /home/matheus/.gaussian/g09/l108.exe)
 Variable Step   Value    
 -------- ---- -----------
     1       3    6.236096
 Leave Link  108 at Thu Apr 16 10:50:46 2020, MaxMem= 1073741824 cpu:       0.0
 (Enter /home/matheus/.gaussian/g09/l202.exe)
 ---------------------------------------------------------------------------------------------------
                            Z-MATRIX (ANGSTROMS AND DEGREES)
   CD    Cent   Atom    N1       Length/X        N2       Alpha/Y        N3        Beta/Z          J
 ---------------------------------------------------------------------------------------------------
      1      1  O        0   0.000000          0.000000          0.725000
      2      2  O        0   0.000000          0.000000         -0.725000
      3      3  H        0   0.590542         -0.703781          1.023510
      4      4  H        0   0.000000          0.918721         -1.023510
      5      5  Kr       0   0.000000          3.300000          0.000000
 ---------------------------------------------------------------------------------------------------
                         Z-Matrix orientation:                         
 ---------------------------------------------------------------------
 Center     Atomic      Atomic             Coordinates (Angstroms)
 Number     Number       Type             X           Y           Z
 ---------------------------------------------------------------------
      1          8           0        0.000000    0.000000    0.725000
      2          8           0        0.000000    0.000000   -0.725000
      3          1           0        0.590542   -0.703781    1.023510
      4          1           0        0.000000    0.918721   -1.023510
      5         36           0        0.000000    3.300000    0.000000
 ---------------------------------------------------------------------
                    Distance matrix (angstroms):
                    1          2          3          4          5
     1  O    0.000000
     2  O    1.450000   0.000000
     3  H    0.966000   1.975180   0.000000
     4  H    1.975180   0.966000   2.677974   0.000000
     5  Kr   3.378702   3.378702   4.174515   2.591923   0.000000
 Stoichiometry    H2KrO2
 Framework group  C1[X(H2KrO2)]
 Deg. of freedom     9
 Full point group                 C1      NOp   1
 RotChk:  IX=0 Diff= 1.54D-03
 Largest Abelian subgroup         C1      NOp   1
 Largest concise Abelian subgroup C1      NOp   1
                         Standard orientation:                         
 ---------------------------------------------------------------------
 Center     Atomic      Atomic             Coordinates (Angstroms)
 Number     Number       Type             X           Y           Z
 ---------------------------------------------------------------------
      1          8           0        2.213462   -0.691037   -0.079560
      2          8           0        2.193405    0.756464    0.003142
      3          1           0        2.929033   -1.012360    0.484235
      4          1           0        1.270724    1.041082    0.031544
      5         36           0       -1.095964   -0.015337    0.002655
 ---------------------------------------------------------------------
 Rotational constants (GHZ):     26.2525927      1.9128808      1.7869594
 Leave Link  202 at Thu Apr 16 10:50:46 2020, MaxMem= 1073741824 cpu:       0.0
 (Enter /home/matheus/.gaussian/g09/l301.exe)
 Standard basis: Aug-CC-pVTZ (5D, 7F)
 Ernie: Thresh=  0.10000D-02 Tol=  0.10000D-05 Strict=F.
 Ernie:  38 primitive shells out of 205 were deleted.
 There are   197 symmetry adapted basis functions of A   symmetry.
 Integral buffers will be    131072 words long.
 Raffenetti 2 integral format.
 Two-electron integral symmetry is turned on.
   197 basis functions,   415 primitive gaussians,   229 cartesian basis functions
    27 alpha electrons       27 beta electrons
       nuclear repulsion energy       138.7332063708 Hartrees.
 IExCor= 4639 DFT=T Ex+Corr=wB97XD ExCW=0 ScaHFX=  1.000000
 ScaDFX=  1.000000  1.000000  1.000000  1.000000 ScalE2=  1.000000  1.000000
 IRadAn=      5 IRanWt=     -1 IRanGd=            0 ICorTp=0
  HFx wShort=  0.000000 wLong=  0.250000 cFull=  0.222036 cShort=  0.000000 cLong=  0.777964
  DFx wShort=  0.000000 wLong=  0.250000 cFull=  0.000000 cShort=  0.000000 cLong=  1.000000
 NAtoms=    5 NActive=    5 NUniq=    5 SFac= 1.00D+00 NAtFMM=   60 NAOKFM=F Big=F
 R6Disp: Dispersion energy =        -0.0009488150 Hartrees.
 Nuclear repulsion after empirical dispersion term =      138.7322575557 Hartrees.
 Leave Link  301 at Thu Apr 16 10:50:46 2020, MaxMem= 1073741824 cpu:       0.2
 (Enter /home/matheus/.gaussian/g09/l302.exe)
 NPDir=0 NMtPBC=     1 NCelOv=     1 NCel=       1 NClECP=     1 NCelD=      1
         NCelK=      1 NCelE2=     1 NClLst=     1 CellRange=     0.0.
 One-electron integrals computed using PRISM.
 NBasis=   197 RedAO= T  NBF=   197
 NBsUse=   197 1.00D-06 NBFU=   197
 Precomputing XC quadrature grid using
 IXCGrd= 2 IRadAn=           5 IRanWt=          -1 IRanGd=           0 AccXCQ= 0.00D+00.
 NRdTot=     427 NPtTot=      123814 NUsed=      126881 NTot=      126913
 NSgBfM=   229   229   229   229   229 NAtAll=     5     5.
 Leave Link  302 at Thu Apr 16 10:50:46 2020, MaxMem= 1073741824 cpu:       1.0
 (Enter /home/matheus/.gaussian/g09/l303.exe)
 DipDrv:  MaxL=1.
 Leave Link  303 at Thu Apr 16 10:50:46 2020, MaxMem= 1073741824 cpu:       0.2
 (Enter /home/matheus/.gaussian/g09/l401.exe)
 Initial guess read from the read-write file.
 B after Tr=     0.000000    0.000000    0.000000
         Rot=    1.000000    0.000000    0.000000    0.000000 Ang=   0.00 deg.
 Guess basis will be translated and rotated to current coordinates.
 Initial guess orbital symmetries:
       Occupied  (A) (A) (A) (A) (A) (A) (A) (A) (A) (A) (A) (A)
                 (A) (A) (A) (A) (A) (A) (A) (A) (A) (A) (A) (A)
                 (A) (A) (A)
       Virtual   (A) (A) (A) (A) (A) (A) (A) (A) (A) (A) (A) (A)
                 (A) (A) (A) (A) (A) (A) (A) (A) (A) (A) (A) (A)
                 (A) (A) (A) (A) (A) (A) (A) (A) (A) (A) (A) (A)
                 (A) (A) (A) (A) (A) (A) (A) (A) (A) (A) (A) (A)
                 (A) (A) (A) (A) (A) (A) (A) (A) (A) (A) (A) (A)
                 (A) (A) (A) (A) (A) (A) (A) (A) (A) (A) (A) (A)
                 (A) (A) (A) (A) (A) (A) (A) (A) (A) (A) (A) (A)
                 (A) (A) (A) (A) (A) (A) (A) (A) (A) (A) (A) (A)
                 (A) (A) (A) (A) (A) (A) (A) (A) (A) (A) (A) (A)
                 (A) (A) (A) (A) (A) (A) (A) (A) (A) (A) (A) (A)
                 (A) (A) (A) (A) (A) (A) (A) (A) (A) (A) (A) (A)
                 (A) (A) (A) (A) (A) (A) (A) (A) (A) (A) (A) (A)
                 (A) (A) (A) (A) (A) (A) (A) (A) (A) (A) (A) (A)
                 (A) (A) (A) (A) (A) (A) (A) (A) (A) (A) (A) (A)
                 (A) (A)
 The electronic state of the initial guess is 1-A.
 Generating alternative initial guess.
 Harris functional with IExCor= 4639 diagonalized for initial guess.
 ExpMin= 2.53D-02 ExpMax= 1.17D+07 ExpMxC= 1.33D+04 IAcc=3 IRadAn=         5 AccDes= 0.00D+00
 HarFok:  IExCor= 4639 AccDes= 0.00D+00 IRadAn=         5 IDoV= 1
 ScaDFX=  1.000000  1.000000  1.000000  1.000000
 FoFCou: FMM=F IPFlag=           0 FMFlag=      100000 FMFlg1=           0
         NFxFlg=           0 DoJE=T BraDBF=F KetDBF=T FulRan=T
         Omega=  0.000000  0.000000  1.000000  0.000000  0.000000 ICntrl=     500 IOpCl=  0
         NMat0=    1 NMatS0=    1 NMatT0=    0 NMatD0=    1 NMtDS0=    0 NMtDT0=    0
         I1Cent=           4 NGrid=           0.
 Petite list used in FoFCou.
 Harris En= -2875.40238090098    
 Leave Link  401 at Thu Apr 16 10:50:46 2020, MaxMem= 1073741824 cpu:       4.2
 (Enter /home/matheus/.gaussian/g09/l502.exe)
 Closed shell SCF:
 Requested convergence on RMS density matrix=1.00D-08 within 128 cycles.
 Requested convergence on MAX density matrix=1.00D-06.
 Requested convergence on             energy=1.00D-06.
 No special actions if energy rises.
 Using DIIS extrapolation, IDIIS=  1040.
 Integral symmetry usage will be decided dynamically.
       126823 words used for storage of precomputed grid.
 IEnd=      305770 IEndB=      305770 NGot=  1073741824 MDV=  1073505365
 LenX=  1073505365 LenY=  1073452483
 Fock matrices will be formed incrementally for  20 cycles.

 Cycle   1  Pass 1  IDiag  1:
 FoFJK:  IHMeth= 1 ICntrl=     0 DoSepK=T KAlg= 1 I1Cent= 0 FoldK=F
 FoFCou: FMM=F IPFlag=           0 FMFlag=      100000 FMFlg1=           0
         NFxFlg=           0 DoJE=T BraDBF=F KetDBF=F FulRan=T
         Omega=  0.000000  0.000000  1.000000  0.000000  0.000000 ICntrl=     500 IOpCl=  0
         NMat0=    1 NMatS0=    1 NMatT0=    0 NMatD0=    1 NMtDS0=    0 NMtDT0=    0
         I1Cent=           0 NGrid=           0.
 Symmetry not used in FoFCou.
 E= -2905.42903909450    
 DIIS: error= 8.90D-04 at cycle   1 NSaved=   1.
 NSaved= 1 IEnMin= 1 EnMin= -2905.42903909450     IErMin= 1 ErrMin= 8.90D-04
 ErrMax= 8.90D-04 EMaxC= 1.00D-01 BMatC= 2.92D-04 BMatP= 2.92D-04
 IDIUse=3 WtCom= 9.91D-01 WtEn= 8.90D-03
 Coeff-Com:  0.100D+01
 Coeff-En:   0.100D+01
 Coeff:      0.100D+01
 Gap=     0.416 Goal=   None    Shift=    0.000
 RMSDP=6.65D-05 MaxDP=1.93D-03              OVMax= 2.96D-03

 Cycle   2  Pass 1  IDiag  1:
 RMSU=  4.70D-05    CP:  1.00D+00
 FoFJK:  IHMeth= 1 ICntrl=     0 DoSepK=T KAlg= 1 I1Cent= 0 FoldK=F
 E= -2905.42909708277     Delta-E=       -0.000057988274 Rises=F Damp=F
 DIIS: error= 8.09D-05 at cycle   2 NSaved=   2.
 NSaved= 2 IEnMin= 2 EnMin= -2905.42909708277     IErMin= 2 ErrMin= 8.09D-05
 ErrMax= 8.09D-05 EMaxC= 1.00D-01 BMatC= 2.37D-06 BMatP= 2.92D-04
 IDIUse=1 WtCom= 1.00D+00 WtEn= 0.00D+00
 Coeff-Com: -0.414D-02 0.100D+01
 Coeff:     -0.414D-02 0.100D+01
 Gap=     0.415 Goal=   None    Shift=    0.000
 RMSDP=1.32D-05 MaxDP=4.65D-04 DE=-5.80D-05 OVMax= 6.60D-04

 Cycle   3  Pass 1  IDiag  1:
 RMSU=  6.69D-06    CP:  1.00D+00  1.14D+00
 FoFJK:  IHMeth= 1 ICntrl=     0 DoSepK=T KAlg= 1 I1Cent= 0 FoldK=F
 E= -2905.42909855943     Delta-E=       -0.000001476655 Rises=F Damp=F
 DIIS: error= 7.95D-05 at cycle   3 NSaved=   3.
 NSaved= 3 IEnMin= 3 EnMin= -2905.42909855943     IErMin= 3 ErrMin= 7.95D-05
 ErrMax= 7.95D-05 EMaxC= 1.00D-01 BMatC= 2.11D-06 BMatP= 2.37D-06
 IDIUse=1 WtCom= 1.00D+00 WtEn= 0.00D+00
 Coeff-Com: -0.854D-02 0.488D+00 0.520D+00
 Coeff:     -0.854D-02 0.488D+00 0.520D+00
 Gap=     0.415 Goal=   None    Shift=    0.000
 RMSDP=4.20D-06 MaxDP=2.09D-04 DE=-1.48D-06 OVMax= 3.51D-04

 Cycle   4  Pass 1  IDiag  1:
 RMSU=  2.41D-06    CP:  1.00D+00  1.16D+00  7.69D-01
 FoFJK:  IHMeth= 1 ICntrl=     0 DoSepK=T KAlg= 1 I1Cent= 0 FoldK=F
 E= -2905.42909984856     Delta-E=       -0.000001289139 Rises=F Damp=F
 DIIS: error= 1.82D-05 at cycle   4 NSaved=   4.
 NSaved= 4 IEnMin= 4 EnMin= -2905.42909984856     IErMin= 4 ErrMin= 1.82D-05
 ErrMax= 1.82D-05 EMaxC= 1.00D-01 BMatC= 1.16D-07 BMatP= 2.11D-06
 IDIUse=1 WtCom= 1.00D+00 WtEn= 0.00D+00
 Coeff-Com: -0.218D-02 0.315D-01 0.177D+00 0.793D+00
 Coeff:     -0.218D-02 0.315D-01 0.177D+00 0.793D+00
 Gap=     0.415 Goal=   None    Shift=    0.000
 RMSDP=1.71D-06 MaxDP=6.01D-05 DE=-1.29D-06 OVMax= 1.07D-04

 Cycle   5  Pass 1  IDiag  1:
 RMSU=  7.94D-07    CP:  1.00D+00  1.17D+00  8.74D-01  1.07D+00
 FoFJK:  IHMeth= 1 ICntrl=     0 DoSepK=T KAlg= 1 I1Cent= 0 FoldK=F
 E= -2905.42909993987     Delta-E=       -0.000000091308 Rises=F Damp=F
 DIIS: error= 6.84D-06 at cycle   5 NSaved=   5.
 NSaved= 5 IEnMin= 5 EnMin= -2905.42909993987     IErMin= 5 ErrMin= 6.84D-06
 ErrMax= 6.84D-06 EMaxC= 1.00D-01 BMatC= 1.68D-08 BMatP= 1.16D-07
 IDIUse=1 WtCom= 1.00D+00 WtEn= 0.00D+00
 Coeff-Com:  0.258D-03-0.562D-01-0.296D-03 0.321D+00 0.735D+00
 Coeff:      0.258D-03-0.562D-01-0.296D-03 0.321D+00 0.735D+00
 Gap=     0.415 Goal=   None    Shift=    0.000
 RMSDP=7.63D-07 MaxDP=3.75D-05 DE=-9.13D-08 OVMax= 3.84D-05

 Cycle   6  Pass 1  IDiag  1:
 RMSU=  2.53D-07    CP:  1.00D+00  1.17D+00  9.15D-01  1.20D+00  9.45D-01
 FoFJK:  IHMeth= 1 ICntrl=     0 DoSepK=T KAlg= 1 I1Cent= 0 FoldK=F
 E= -2905.42909995431     Delta-E=       -0.000000014441 Rises=F Damp=F
 DIIS: error= 1.36D-06 at cycle   6 NSaved=   6.
 NSaved= 6 IEnMin= 6 EnMin= -2905.42909995431     IErMin= 6 ErrMin= 1.36D-06
 ErrMax= 1.36D-06 EMaxC= 1.00D-01 BMatC= 7.03D-10 BMatP= 1.68D-08
 IDIUse=1 WtCom= 1.00D+00 WtEn= 0.00D+00
 Coeff-Com:  0.187D-03-0.186D-01-0.929D-02 0.531D-01 0.221D+00 0.753D+00
 Coeff:      0.187D-03-0.186D-01-0.929D-02 0.531D-01 0.221D+00 0.753D+00
 Gap=     0.415 Goal=   None    Shift=    0.000
 RMSDP=1.52D-07 MaxDP=5.90D-06 DE=-1.44D-08 OVMax= 8.76D-06

 Cycle   7  Pass 1  IDiag  1:
 RMSU=  6.48D-08    CP:  1.00D+00  1.17D+00  9.22D-01  1.22D+00  1.01D+00
                    CP:  1.05D+00
 FoFJK:  IHMeth= 1 ICntrl=     0 DoSepK=T KAlg= 1 I1Cent= 0 FoldK=F
 E= -2905.42909995510     Delta-E=       -0.000000000784 Rises=F Damp=F
 DIIS: error= 3.65D-07 at cycle   7 NSaved=   7.
 NSaved= 7 IEnMin= 7 EnMin= -2905.42909995510     IErMin= 7 ErrMin= 3.65D-07
 ErrMax= 3.65D-07 EMaxC= 1.00D-01 BMatC= 4.47D-11 BMatP= 7.03D-10
 IDIUse=1 WtCom= 1.00D+00 WtEn= 0.00D+00
 Coeff-Com: -0.256D-04 0.681D-02 0.199D-03-0.408D-01-0.877D-01 0.278D-01
 Coeff-Com:  0.109D+01
 Coeff:     -0.256D-04 0.681D-02 0.199D-03-0.408D-01-0.877D-01 0.278D-01
 Coeff:      0.109D+01
 Gap=     0.415 Goal=   None    Shift=    0.000
 RMSDP=7.88D-08 MaxDP=3.55D-06 DE=-7.84D-10 OVMax= 5.44D-06

 Cycle   8  Pass 1  IDiag  1:
 RMSU=  2.39D-08    CP:  1.00D+00  1.17D+00  9.24D-01  1.23D+00  1.03D+00
                    CP:  1.19D+00  1.26D+00
 FoFJK:  IHMeth= 1 ICntrl=     0 DoSepK=T KAlg= 1 I1Cent= 0 FoldK=F
 E= -2905.42909995520     Delta-E=       -0.000000000105 Rises=F Damp=F
 DIIS: error= 7.36D-08 at cycle   8 NSaved=   8.
 NSaved= 8 IEnMin= 8 EnMin= -2905.42909995520     IErMin= 8 ErrMin= 7.36D-08
 ErrMax= 7.36D-08 EMaxC= 1.00D-01 BMatC= 1.83D-12 BMatP= 4.47D-11
 IDIUse=1 WtCom= 1.00D+00 WtEn= 0.00D+00
 Coeff-Com: -0.116D-04 0.172D-02 0.366D-03-0.814D-02-0.199D-01-0.235D-01
 Coeff-Com:  0.134D+00 0.916D+00
 Coeff:     -0.116D-04 0.172D-02 0.366D-03-0.814D-02-0.199D-01-0.235D-01
 Coeff:      0.134D+00 0.916D+00
 Gap=     0.415 Goal=   None    Shift=    0.000
 RMSDP=1.33D-08 MaxDP=3.59D-07 DE=-1.05D-10 OVMax= 1.23D-06

 Cycle   9  Pass 1  IDiag  1:
 RMSU=  4.95D-09    CP:  1.00D+00  1.17D+00  9.24D-01  1.23D+00  1.03D+00
                    CP:  1.20D+00  1.33D+00  1.26D+00
 FoFJK:  IHMeth= 1 ICntrl=     0 DoSepK=T KAlg= 1 I1Cent= 0 FoldK=F
 E= -2905.42909995522     Delta-E=       -0.000000000015 Rises=F Damp=F
 DIIS: error= 2.68D-08 at cycle   9 NSaved=   9.
 NSaved= 9 IEnMin= 9 EnMin= -2905.42909995522     IErMin= 9 ErrMin= 2.68D-08
 ErrMax= 2.68D-08 EMaxC= 1.00D-01 BMatC= 2.48D-13 BMatP= 1.83D-12
 IDIUse=1 WtCom= 1.00D+00 WtEn= 0.00D+00
 Coeff-Com:  0.298D-05-0.779D-03-0.249D-04 0.458D-02 0.104D-01-0.395D-02
 Coeff-Com: -0.126D+00 0.353D-01 0.108D+01
 Coeff:      0.298D-05-0.779D-03-0.249D-04 0.458D-02 0.104D-01-0.395D-02
 Coeff:     -0.126D+00 0.353D-01 0.108D+01
 Gap=     0.415 Goal=   None    Shift=    0.000
 RMSDP=7.41D-09 MaxDP=2.70D-07 DE=-1.46D-11 OVMax= 7.58D-07

 SCF Done:  E(RwB97XD) =  -2905.42909996     A.U. after    9 cycles
             Convg  =    0.7412D-08             -V/T =  2.0016
 KE= 2.900904660394D+03 PE=-7.215810866495D+03 EE= 1.270744848590D+03
 Leave Link  502 at Thu Apr 16 10:51:11 2020, MaxMem= 1073741824 cpu:     200.6
 (Enter /home/matheus/.gaussian/g09/l108.exe)
 Variable Step   Value    
 -------- ---- -----------
     1       4    6.425069
 Leave Link  108 at Thu Apr 16 10:51:11 2020, MaxMem= 1073741824 cpu:       0.0
 (Enter /home/matheus/.gaussian/g09/l202.exe)
 ---------------------------------------------------------------------------------------------------
                            Z-MATRIX (ANGSTROMS AND DEGREES)
   CD    Cent   Atom    N1       Length/X        N2       Alpha/Y        N3        Beta/Z          J
 ---------------------------------------------------------------------------------------------------
      1      1  O        0   0.000000          0.000000          0.725000
      2      2  O        0   0.000000          0.000000         -0.725000
      3      3  H        0   0.590542         -0.703781          1.023510
      4      4  H        0   0.000000          0.918721         -1.023510
      5      5  Kr       0   0.000000          3.400000          0.000000
[...]
 FoFJK:  IHMeth= 1 ICntrl=     0 DoSepK=T KAlg= 1 I1Cent= 0 FoldK=F
 E= -2905.42908788257     Delta-E=       -0.000000001021 Rises=F Damp=F
 DIIS: error= 9.12D-07 at cycle   5 NSaved=   5.
 NSaved= 5 IEnMin= 5 EnMin= -2905.42908788257     IErMin= 5 ErrMin= 9.12D-07
 ErrMax= 9.12D-07 EMaxC= 1.00D-01 BMatC= 2.21D-10 BMatP= 1.40D-09
 IDIUse=1 WtCom= 1.00D+00 WtEn= 0.00D+00
 Coeff-Com:  0.449D-03-0.553D-01-0.357D-01 0.287D+00 0.803D+00
 Coeff:      0.449D-03-0.553D-01-0.357D-01 0.287D+00 0.803D+00
 Gap=     0.416 Goal=   None    Shift=    0.000
 RMSDP=9.39D-08 MaxDP=3.10D-06 DE=-1.02D-09 OVMax= 5.66D-06

 Cycle   6  Pass 1  IDiag  1:
 RMSU=  3.23D-08    CP:  1.00D+00  1.13D+00  1.17D+00  1.09D+00  1.02D+00
 FoFJK:  IHMeth= 1 ICntrl=     0 DoSepK=T KAlg= 1 I1Cent= 0 FoldK=F
 E= -2905.42908788279     Delta-E=       -0.000000000217 Rises=F Damp=F
 DIIS: error= 1.63D-07 at cycle   6 NSaved=   6.
 NSaved= 6 IEnMin= 6 EnMin= -2905.42908788279     IErMin= 6 ErrMin= 1.63D-07
 ErrMax= 1.63D-07 EMaxC= 1.00D-01 BMatC= 7.95D-12 BMatP= 2.21D-10
 IDIUse=1 WtCom= 1.00D+00 WtEn= 0.00D+00
 Coeff-Com:  0.206D-03-0.158D-01-0.230D-01 0.459D-01 0.219D+00 0.774D+00
 Coeff:      0.206D-03-0.158D-01-0.230D-01 0.459D-01 0.219D+00 0.774D+00
 Gap=     0.416 Goal=   None    Shift=    0.000
 RMSDP=1.63D-08 MaxDP=5.91D-07 DE=-2.17D-10 OVMax= 1.27D-06

 Cycle   7  Pass 1  IDiag  1:
 RMSU=  9.04D-09    CP:  1.00D+00  1.13D+00  1.17D+00  1.10D+00  1.08D+00
                    CP:  1.13D+00
 FoFJK:  IHMeth= 1 ICntrl=     0 DoSepK=T KAlg= 1 I1Cent= 0 FoldK=F
 E= -2905.42908788280     Delta-E=       -0.000000000005 Rises=F Damp=F
 DIIS: error= 9.32D-08 at cycle   7 NSaved=   7.
 NSaved= 7 IEnMin= 7 EnMin= -2905.42908788280     IErMin= 7 ErrMin= 9.32D-08
 ErrMax= 9.32D-08 EMaxC= 1.00D-01 BMatC= 1.34D-12 BMatP= 7.95D-12
 IDIUse=1 WtCom= 1.00D+00 WtEn= 0.00D+00
 Coeff-Com: -0.315D-04 0.696D-02 0.534D-05-0.478D-01-0.103D+00 0.219D+00
 Coeff-Com:  0.925D+00
 Coeff:     -0.315D-04 0.696D-02 0.534D-05-0.478D-01-0.103D+00 0.219D+00
 Coeff:      0.925D+00
 Gap=     0.416 Goal=   None    Shift=    0.000
 RMSDP=1.11D-08 MaxDP=3.17D-07 DE=-5.46D-12 OVMax= 1.00D-06

 Cycle   8  Pass 1  IDiag  1:
 RMSU=  3.63D-09    CP:  1.00D+00  1.13D+00  1.17D+00  1.11D+00  1.11D+00
                    CP:  1.31D+00  1.21D+00
 FoFJK:  IHMeth= 1 ICntrl=     0 DoSepK=T KAlg= 1 I1Cent= 0 FoldK=F
 E= -2905.42908788280     Delta-E=       -0.000000000005 Rises=F Damp=F
 DIIS: error= 1.45D-08 at cycle   8 NSaved=   8.
 NSaved= 8 IEnMin= 8 EnMin= -2905.42908788280     IErMin= 8 ErrMin= 1.45D-08
 ErrMax= 1.45D-08 EMaxC= 1.00D-01 BMatC= 4.67D-14 BMatP= 1.34D-12
 IDIUse=1 WtCom= 1.00D+00 WtEn= 0.00D+00
 Coeff-Com: -0.503D-05-0.290D-03 0.965D-03 0.477D-02 0.476D-02-0.684D-01
 Coeff-Com: -0.121D+00 0.118D+01
 Coeff:     -0.503D-05-0.290D-03 0.965D-03 0.477D-02 0.476D-02-0.684D-01
 Coeff:     -0.121D+00 0.118D+01
 Gap=     0.416 Goal=   None    Shift=    0.000
 RMSDP=3.48D-09 MaxDP=1.01D-07 DE=-4.55D-12 OVMax= 4.34D-07

 SCF Done:  E(RwB97XD) =  -2905.42908788     A.U. after    8 cycles
             Convg  =    0.3480D-08             -V/T =  2.0016
 KE= 2.900917014363D+03 PE=-7.150734249280D+03 EE= 1.238286662576D+03
 Leave Link  502 at Thu Apr 16 10:58:30 2020, MaxMem= 1073741824 cpu:     224.5
 (Enter /home/matheus/.gaussian/g09/l108.exe)
 Variable Step   Value    
 -------- ---- -----------
     1      20    9.448631
 Leave Link  108 at Thu Apr 16 10:58:30 2020, MaxMem= 1073741824 cpu:       0.0
 (Enter /home/matheus/.gaussian/g09/l202.exe)
 ---------------------------------------------------------------------------------------------------
                            Z-MATRIX (ANGSTROMS AND DEGREES)
   CD    Cent   Atom    N1       Length/X        N2       Alpha/Y        N3        Beta/Z          J
 ---------------------------------------------------------------------------------------------------
      1      1  O        0   0.000000          0.000000          0.725000
      2      2  O        0   0.000000          0.000000         -0.725000
      3      3  H        0   0.590542         -0.703781          1.023510
      4      4  H        0   0.000000          0.918721         -1.023510
      5      5  Kr       0   0.000000          5.000000          0.000000
 ---------------------------------------------------------------------------------------------------
                         Z-Matrix orientation:                         
 ---------------------------------------------------------------------
 Center     Atomic      Atomic             Coordinates (Angstroms)
 Number     Number       Type             X           Y           Z
 ---------------------------------------------------------------------
      1          8           0        0.000000    0.000000    0.725000
      2          8           0        0.000000    0.000000   -0.725000
      3          1           0        0.590542   -0.703781    1.023510
      4          1           0        0.000000    0.918721   -1.023510
      5         36           0        0.000000    5.000000    0.000000
 ---------------------------------------------------------------------
                    Distance matrix (angstroms):
                    1          2          3          4          5
     1  O    0.000000
     2  O    1.450000   0.000000
     3  H    0.966000   1.975180   0.000000
     4  H    1.975180   0.966000   2.677974   0.000000
     5  Kr   5.052289   5.052289   5.824897   4.207661   0.000000
 Stoichiometry    H2KrO2
 Framework group  C1[X(H2KrO2)]
 Deg. of freedom     9
 Full point group                 C1      NOp   1
 RotChk:  IX=0 Diff= 4.44D-04
 Largest Abelian subgroup         C1      NOp   1
 Largest concise Abelian subgroup C1      NOp   1
                         Standard orientation:                         
 ---------------------------------------------------------------------
 Center     Atomic      Atomic             Coordinates (Angstroms)
 Number     Number       Type             X           Y           Z
 ---------------------------------------------------------------------
      1          8           0        3.341237   -0.702433   -0.078306
      2          8           0        3.332893    0.745116    0.005537
      3          1           0        4.051412   -1.030191    0.488600
      4          1           0        2.412500    1.037421    0.029809
      5         36           0       -1.662693   -0.009686    0.001770
 ---------------------------------------------------------------------
 Rotational constants (GHZ):     26.2408977      0.8351826      0.8102469
 Leave Link  202 at Thu Apr 16 10:58:30 2020, MaxMem= 1073741824 cpu:       0.0
 (Enter /home/matheus/.gaussian/g09/l301.exe)
 Standard basis: Aug-CC-pVTZ (5D, 7F)
 Ernie: Thresh=  0.10000D-02 Tol=  0.10000D-05 Strict=F.
 Ernie:  38 primitive shells out of 205 were deleted.
 There are   197 symmetry adapted basis functions of A   symmetry.
 Integral buffers will be    131072 words long.
 Raffenetti 2 integral format.
 Two-electron integral symmetry is turned on.
   197 basis functions,   415 primitive gaussians,   229 cartesian basis functions
    27 alpha electrons       27 beta electrons
       nuclear repulsion energy       104.7341910466 Hartrees.
 IExCor= 4639 DFT=T Ex+Corr=wB97XD ExCW=0 ScaHFX=  1.000000
 ScaDFX=  1.000000  1.000000  1.000000  1.000000 ScalE2=  1.000000  1.000000
 IRadAn=      5 IRanWt=     -1 IRanGd=            0 ICorTp=0
  HFx wShort=  0.000000 wLong=  0.250000 cFull=  0.222036 cShort=  0.000000 cLong=  0.777964
  DFx wShort=  0.000000 wLong=  0.250000 cFull=  0.000000 cShort=  0.000000 cLong=  1.000000
 NAtoms=    5 NActive=    5 NUniq=    5 SFac= 1.00D+00 NAtFMM=   60 NAOKFM=F Big=F
 R6Disp: Dispersion energy =        -0.0004403794 Hartrees.
 Nuclear repulsion after empirical dispersion term =      104.7337506672 Hartrees.
 Leave Link  301 at Thu Apr 16 10:58:30 2020, MaxMem= 1073741824 cpu:       0.3
 (Enter /home/matheus/.gaussian/g09/l302.exe)
 NPDir=0 NMtPBC=     1 NCelOv=     1 NCel=       1 NClECP=     1 NCelD=      1
         NCelK=      1 NCelE2=     1 NClLst=     1 CellRange=     0.0.
 One-electron integrals computed using PRISM.
 NBasis=   197 RedAO= T  NBF=   197
 NBsUse=   197 1.00D-06 NBFU=   197
 Precomputing XC quadrature grid using
 IXCGrd= 2 IRadAn=           5 IRanWt=          -1 IRanGd=           0 AccXCQ= 0.00D+00.
 NRdTot=     428 NPtTot=      124116 NUsed=      127190 NTot=      127222
 NSgBfM=   228   228   229   229   229 NAtAll=     5     5.
 Leave Link  302 at Thu Apr 16 10:58:30 2020, MaxMem= 1073741824 cpu:       1.2
 (Enter /home/matheus/.gaussian/g09/l303.exe)
 DipDrv:  MaxL=1.
 Leave Link  303 at Thu Apr 16 10:58:30 2020, MaxMem= 1073741824 cpu:       0.3
 (Enter /home/matheus/.gaussian/g09/l401.exe)
 Initial guess read from the read-write file.
 B after Tr=     0.000000    0.000000    0.000000
         Rot=    1.000000    0.000000    0.000000    0.000000 Ang=   0.00 deg.
 Guess basis will be translated and rotated to current coordinates.
 Initial guess orbital symmetries:
       Occupied  (A) (A) (A) (A) (A) (A) (A) (A) (A) (A) (A) (A)
                 (A) (A) (A) (A) (A) (A) (A) (A) (A) (A) (A) (A)
                 (A) (A) (A)
       Virtual   (A) (A) (A) (A) (A) (A) (A) (A) (A) (A) (A) (A)
                 (A) (A) (A) (A) (A) (A) (A) (A) (A) (A) (A) (A)
                 (A) (A) (A) (A) (A) (A) (A) (A) (A) (A) (A) (A)
                 (A) (A) (A) (A) (A) (A) (A) (A) (A) (A) (A) (A)
                 (A) (A) (A) (A) (A) (A) (A) (A) (A) (A) (A) (A)
                 (A) (A) (A) (A) (A) (A) (A) (A) (A) (A) (A) (A)
                 (A) (A) (A) (A) (A) (A) (A) (A) (A) (A) (A) (A)
                 (A) (A) (A) (A) (A) (A) (A) (A) (A) (A) (A) (A)
                 (A) (A) (A) (A) (A) (A) (A) (A) (A) (A) (A) (A)
                 (A) (A) (A) (A) (A) (A) (A) (A) (A) (A) (A) (A)
                 (A) (A) (A) (A) (A) (A) (A) (A) (A) (A) (A) (A)
                 (A) (A) (A) (A) (A) (A) (A) (A) (A) (A) (A) (A)
                 (A) (A) (A) (A) (A) (A) (A) (A) (A) (A) (A) (A)
                 (A) (A) (A) (A) (A) (A) (A) (A) (A) (A) (A) (A)
                 (A) (A)
 The electronic state of the initial guess is 1-A.
 Generating alternative initial guess.
 Harris functional with IExCor= 4639 diagonalized for initial guess.
 ExpMin= 2.53D-02 ExpMax= 1.17D+07 ExpMxC= 1.33D+04 IAcc=3 IRadAn=         5 AccDes= 0.00D+00
 HarFok:  IExCor= 4639 AccDes= 0.00D+00 IRadAn=         5 IDoV= 1
 ScaDFX=  1.000000  1.000000  1.000000  1.000000
 FoFCou: FMM=F IPFlag=           0 FMFlag=      100000 FMFlg1=           0
         NFxFlg=           0 DoJE=T BraDBF=F KetDBF=T FulRan=T
         Omega=  0.000000  0.000000  1.000000  0.000000  0.000000 ICntrl=     500 IOpCl=  0
         NMat0=    1 NMatS0=    1 NMatT0=    0 NMatD0=    1 NMtDS0=    0 NMtDT0=    0
         I1Cent=           4 NGrid=           0.
 Petite list used in FoFCou.
 Harris En= -2875.40341452646    
 Leave Link  401 at Thu Apr 16 10:58:31 2020, MaxMem= 1073741824 cpu:       5.5
 (Enter /home/matheus/.gaussian/g09/l502.exe)
 Closed shell SCF:
 Requested convergence on RMS density matrix=1.00D-08 within 128 cycles.
 Requested convergence on MAX density matrix=1.00D-06.
 Requested convergence on             energy=1.00D-06.
 No special actions if energy rises.
 Using DIIS extrapolation, IDIIS=  1040.
 Integral symmetry usage will be decided dynamically.
       127132 words used for storage of precomputed grid.
 IEnd=      306079 IEndB=      306079 NGot=  1073741824 MDV=  1073505056
 LenX=  1073505056 LenY=  1073452174
 Fock matrices will be formed incrementally for  20 cycles.

 Cycle   1  Pass 1  IDiag  1:
 FoFJK:  IHMeth= 1 ICntrl=     0 DoSepK=T KAlg= 1 I1Cent= 0 FoldK=F
 FoFCou: FMM=F IPFlag=           0 FMFlag=      100000 FMFlg1=           0
         NFxFlg=           0 DoJE=T BraDBF=F KetDBF=F FulRan=T
         Omega=  0.000000  0.000000  1.000000  0.000000  0.000000 ICntrl=     500 IOpCl=  0
         NMat0=    1 NMatS0=    1 NMatT0=    0 NMatD0=    1 NMtDS0=    0 NMtDT0=    0
         I1Cent=           0 NGrid=           0.
 Symmetry not used in FoFCou.
 E= -2905.42904139777    
 DIIS: error= 1.37D-04 at cycle   1 NSaved=   1.
 NSaved= 1 IEnMin= 1 EnMin= -2905.42904139777     IErMin= 1 ErrMin= 1.37D-04
 ErrMax= 1.37D-04 EMaxC= 1.00D-01 BMatC= 3.75D-06 BMatP= 3.75D-06
 IDIUse=3 WtCom= 9.99D-01 WtEn= 1.37D-03
 Coeff-Com:  0.100D+01
 Coeff-En:   0.100D+01
 Coeff:      0.100D+01
 Gap=     0.416 Goal=   None    Shift=    0.000
 RMSDP=1.83D-05 MaxDP=7.07D-04              OVMax= 3.91D-04

 Cycle   2  Pass 1  IDiag  1:
 RMSU=  1.30D-05    CP:  1.00D+00
 FoFJK:  IHMeth= 1 ICntrl=     0 DoSepK=T KAlg= 1 I1Cent= 0 FoldK=F
 E= -2905.42904221072     Delta-E=       -0.000000812957 Rises=F Damp=F
 DIIS: error= 1.10D-05 at cycle   2 NSaved=   2.
 NSaved= 2 IEnMin= 2 EnMin= -2905.42904221072     IErMin= 2 ErrMin= 1.10D-05
 ErrMax= 1.10D-05 EMaxC= 1.00D-01 BMatC= 2.02D-08 BMatP= 3.75D-06
 IDIUse=1 WtCom= 1.00D+00 WtEn= 0.00D+00
 Coeff-Com: -0.522D-02 0.101D+01
 Coeff:     -0.522D-02 0.101D+01
 Gap=     0.416 Goal=   None    Shift=    0.000
 RMSDP=2.15D-06 MaxDP=6.52D-05 DE=-8.13D-07 OVMax= 7.54D-05

 Cycle   3  Pass 1  IDiag  1:
 RMSU=  8.08D-07    CP:  1.00D+00  1.10D+00
 FoFJK:  IHMeth= 1 ICntrl=     0 DoSepK=T KAlg= 1 I1Cent= 0 FoldK=F
 E= -2905.42904223619     Delta-E=       -0.000000025470 Rises=F Damp=F
 DIIS: error= 5.72D-06 at cycle   3 NSaved=   3.
 NSaved= 3 IEnMin= 3 EnMin= -2905.42904223619     IErMin= 3 ErrMin= 5.72D-06
 ErrMax= 5.72D-06 EMaxC= 1.00D-01 BMatC= 4.93D-09 BMatP= 2.02D-08
 IDIUse=1 WtCom= 1.00D+00 WtEn= 0.00D+00
 Coeff-Com: -0.536D-02 0.291D+00 0.714D+00
 Coeff:     -0.536D-02 0.291D+00 0.714D+00
 Gap=     0.416 Goal=   None    Shift=    0.000
 RMSDP=3.16D-07 MaxDP=9.62D-06 DE=-2.55D-08 OVMax= 2.25D-05

 Cycle   4  Pass 1  IDiag  1:
 RMSU=  1.79D-07    CP:  1.00D+00  1.11D+00  1.03D+00
 FoFJK:  IHMeth= 1 ICntrl=     0 DoSepK=T KAlg= 1 I1Cent= 0 FoldK=F
 E= -2905.42904224004     Delta-E=       -0.000000003848 Rises=F Damp=F
 DIIS: error= 1.99D-06 at cycle   4 NSaved=   4.
 NSaved= 4 IEnMin= 4 EnMin= -2905.42904224004     IErMin= 4 ErrMin= 1.99D-06
 ErrMax= 1.99D-06 EMaxC= 1.00D-01 BMatC= 1.09D-09 BMatP= 4.93D-09
 IDIUse=1 WtCom= 1.00D+00 WtEn= 0.00D+00
 Coeff-Com: -0.183D-02 0.348D-01 0.302D+00 0.665D+00
 Coeff:     -0.183D-02 0.348D-01 0.302D+00 0.665D+00
 Gap=     0.416 Goal=   None    Shift=    0.000
 RMSDP=1.65D-07 MaxDP=5.58D-06 DE=-3.85D-09 OVMax= 8.46D-06

 Cycle   5  Pass 1  IDiag  1:
 RMSU=  7.68D-08    CP:  1.00D+00  1.11D+00  1.12D+00  9.58D-01
 FoFJK:  IHMeth= 1 ICntrl=     0 DoSepK=T KAlg= 1 I1Cent= 0 FoldK=F
 E= -2905.42904224082     Delta-E=       -0.000000000780 Rises=F Damp=F
 DIIS: error= 8.44D-07 at cycle   5 NSaved=   5.
 NSaved= 5 IEnMin= 5 EnMin= -2905.42904224082     IErMin= 5 ErrMin= 8.44D-07
 ErrMax= 8.44D-07 EMaxC= 1.00D-01 BMatC= 1.85D-10 BMatP= 1.09D-09
 IDIUse=1 WtCom= 1.00D+00 WtEn= 0.00D+00
 Coeff-Com:  0.424D-03-0.550D-01-0.348D-01 0.297D+00 0.792D+00
 Coeff:      0.424D-03-0.550D-01-0.348D-01 0.297D+00 0.792D+00
 Gap=     0.416 Goal=   None    Shift=    0.000
 RMSDP=8.04D-08 MaxDP=2.70D-06 DE=-7.80D-10 OVMax= 4.87D-06

 Cycle   6  Pass 1  IDiag  1:
 RMSU=  2.95D-08    CP:  1.00D+00  1.11D+00  1.16D+00  1.10D+00  1.01D+00
 FoFJK:  IHMeth= 1 ICntrl=     0 DoSepK=T KAlg= 1 I1Cent= 0 FoldK=F
 E= -2905.42904224100     Delta-E=       -0.000000000183 Rises=F Damp=F
 DIIS: error= 1.50D-07 at cycle   6 NSaved=   6.
 NSaved= 6 IEnMin= 6 EnMin= -2905.42904224100     IErMin= 6 ErrMin= 1.50D-07
 ErrMax= 1.50D-07 EMaxC= 1.00D-01 BMatC= 6.93D-12 BMatP= 1.85D-10
 IDIUse=1 WtCom= 1.00D+00 WtEn= 0.00D+00
 Coeff-Com:  0.200D-03-0.162D-01-0.235D-01 0.491D-01 0.222D+00 0.768D+00
 Coeff:      0.200D-03-0.162D-01-0.235D-01 0.491D-01 0.222D+00 0.768D+00
 Gap=     0.416 Goal=   None    Shift=    0.000
 RMSDP=1.51D-08 MaxDP=5.30D-07 DE=-1.83D-10 OVMax= 1.18D-06

 Cycle   7  Pass 1  IDiag  1:
 RMSU=  8.39D-09    CP:  1.00D+00  1.11D+00  1.16D+00  1.11D+00  1.07D+00
                    CP:  1.14D+00
 FoFJK:  IHMeth= 1 ICntrl=     0 DoSepK=T KAlg= 1 I1Cent= 0 FoldK=F
 E= -2905.42904224102     Delta-E=       -0.000000000015 Rises=F Damp=F
 DIIS: error= 8.52D-08 at cycle   7 NSaved=   7.
 NSaved= 7 IEnMin= 7 EnMin= -2905.42904224102     IErMin= 7 ErrMin= 8.52D-08
 ErrMax= 8.52D-08 EMaxC= 1.00D-01 BMatC= 1.12D-12 BMatP= 6.93D-12
 IDIUse=1 WtCom= 1.00D+00 WtEn= 0.00D+00
 Coeff-Com: -0.298D-04 0.693D-02-0.118D-03-0.493D-01-0.102D+00 0.210D+00
 Coeff-Com:  0.934D+00
 Coeff:     -0.298D-04 0.693D-02-0.118D-03-0.493D-01-0.102D+00 0.210D+00
 Coeff:      0.934D+00
 Gap=     0.416 Goal=   None    Shift=    0.000
 RMSDP=1.02D-08 MaxDP=2.87D-07 DE=-1.46D-11 OVMax= 9.45D-07

 Cycle   8  Pass 1  IDiag  1:
 RMSU=  3.27D-09    CP:  1.00D+00  1.11D+00  1.16D+00  1.12D+00  1.10D+00
                    CP:  1.32D+00  1.21D+00
 FoFJK:  IHMeth= 1 ICntrl=     0 DoSepK=T KAlg= 1 I1Cent= 0 FoldK=F
 E= -2905.42904224102     Delta-E=       -0.000000000004 Rises=F Damp=F
 DIIS: error= 1.56D-08 at cycle   8 NSaved=   8.
 NSaved= 8 IEnMin= 8 EnMin= -2905.42904224102     IErMin= 8 ErrMin= 1.56D-08
 ErrMax= 1.56D-08 EMaxC= 1.00D-01 BMatC= 4.16D-14 BMatP= 1.12D-12
 IDIUse=1 WtCom= 1.00D+00 WtEn= 0.00D+00
 Coeff-Com: -0.614D-05-0.714D-04 0.103D-02 0.362D-02 0.162D-02-0.631D-01
 Coeff-Com: -0.992D-01 0.116D+01
 Coeff:     -0.614D-05-0.714D-04 0.103D-02 0.362D-02 0.162D-02-0.631D-01
 Coeff:     -0.992D-01 0.116D+01
 Gap=     0.416 Goal=   None    Shift=    0.000
 RMSDP=3.20D-09 MaxDP=9.13D-08 DE=-4.09D-12 OVMax= 4.00D-07

 SCF Done:  E(RwB97XD) =  -2905.42904224     A.U. after    8 cycles
             Convg  =    0.3198D-08             -V/T =  2.0016
 KE= 2.900917519681D+03 PE=-7.148005282592D+03 EE= 1.236924970003D+03
 Leave Link  502 at Thu Apr 16 10:58:59 2020, MaxMem= 1073741824 cpu:     218.7
 (Enter /home/matheus/.gaussian/g09/l108.exe)
 Scan completed.

 Summary of the potential surface scan:
   N      R1          SCF    
 ----  ---------  -----------
    1     3.0000  -2905.42557
    2     3.1000  -2905.42728
    3     3.2000  -2905.42839
    4     3.3000  -2905.42910
    5     3.4000  -2905.42953
    6     3.5000  -2905.42976
    7     3.6000  -2905.42986
    8     3.7000  -2905.42989
    9     3.8000  -2905.42987
   10     3.9000  -2905.42981
   11     4.0000  -2905.42973
   12     4.1000  -2905.42965
   13     4.2000  -2905.42957
   14     4.3000  -2905.42948
   15     4.4000  -2905.42940
   16     4.5000  -2905.42933
   17     4.6000  -2905.42926
   18     4.7000  -2905.42920
   19     4.8000  -2905.42914
   20     4.9000  -2905.42909
   21     5.0000  -2905.42904
 ----  ---------  -----------
  
 Leave Link  108 at Thu Apr 16 10:58:59 2020, MaxMem= 1073741824 cpu:       0.0
 (Enter /home/matheus/.gaussian/g09/l9999.exe)

 Test job not archived.
 1\1\GINC-REDGIANT\Scan\RwB97XD\Aug-CC-pVTZ\H2Kr1O2\ROOT\16-Apr-2020\1\
 \#p wb97xd/aug-cc-PVTz iop(3/107=0250000000) iop(3/108=0250000000) int
 =ultrafine Scan\\TCC\\0,1\O,0,0.,0.,0.725\O,0,0.,0.,-0.725\H,0,0.59054
 22151,-0.7037808064,1.0235104166\H,0,0.,0.9187205947,-1.0235104166\Kr,
 0,0.,R1,0.\\R1=3.,s,20,0.1\\Version=EM64L-G09RevC.01\State=1-A\HF=-290
 5.4255701,-2905.4272778,-2905.4283896,-2905.4291,-2905.4295254,-2905.4
 297613,-2905.4298637,-2905.4298905,-2905.4298661,-2905.4298072,-2905.4
 297328,-2905.4296514,-2905.429567,-2905.4294817,-2905.4294032,-2905.42
 93287,-2905.4292584,-2905.4291954,-2905.4291394,-2905.4290879,-2905.42
 90422\RMSD=2.710e-09,7.394e-09,7.575e-09,7.412e-09,6.922e-09,5.823e-09
 ,5.116e-09,4.280e-09,3.550e-09,3.472e-09,9.791e-09,8.303e-09,7.316e-09
 ,6.470e-09,5.604e-09,5.123e-09,4.752e-09,4.338e-09,3.879e-09,3.480e-09
 ,3.198e-09\PG=C01 [X(H2Kr1O2)]\\@


 QUANTUM MECHANICS IS BOHRING -- M.S. GORDON
 Job cpu time:  0 days  1 hours 17 minutes 37.7 seconds.
 File lengths (MBytes):  RWF=     33 Int=      0 D2E=      0 Chk=      4 Scr=      1
 Normal termination of Gaussian 09 at Thu Apr 16 10:58:59 2020.
