 Entering Gaussian System, Link 0=g09
 Input=/home/matheus/.tcc/Inputs-wb97xd/H2O2-Kr_2.com
 Output=/home/matheus/.tcc/Logs-wb97xd/H2O2-Kr_2.log
 Initial command:
 /home/matheus/.gaussian/g09/l1.exe /home/matheus/.gaussian/g09/scratch/Gau-18879.inp -scrdir=/home/matheus/.gaussian/g09/scratch/
 Entering Link 1 = /home/matheus/.gaussian/g09/l1.exe PID=     18882.
  
 Copyright (c) 1988,1990,1992,1993,1995,1998,2003,2009,2011,
            Gaussian, Inc.  All Rights Reserved.
  
 This is part of the Gaussian(R) 09 program.  It is based on
 the Gaussian(R) 03 system (copyright 2003, Gaussian, Inc.),
 the Gaussian(R) 98 system (copyright 1998, Gaussian, Inc.),
 the Gaussian(R) 94 system (copyright 1995, Gaussian, Inc.),
 the Gaussian 92(TM) system (copyright 1992, Gaussian, Inc.),
 the Gaussian 90(TM) system (copyright 1990, Gaussian, Inc.),
 the Gaussian 88(TM) system (copyright 1988, Gaussian, Inc.),
 the Gaussian 86(TM) system (copyright 1986, Carnegie Mellon
 University), and the Gaussian 82(TM) system (copyright 1983,
 Carnegie Mellon University). Gaussian is a federally registered
 trademark of Gaussian, Inc.
  
 This software contains proprietary and confidential information,
 including trade secrets, belonging to Gaussian, Inc.
  
 This software is provided under written license and may be
 used, copied, transmitted, or stored only in accord with that
 written license.
  
 The following legend is applicable only to US Government
 contracts under FAR:
  
                    RESTRICTED RIGHTS LEGEND
  
 Use, reproduction and disclosure by the US Government is
 subject to restrictions as set forth in subparagraphs (a)
 and (c) of the Commercial Computer Software - Restricted
 Rights clause in FAR 52.227-19.
  
 Gaussian, Inc.
 340 Quinnipiac St., Bldg. 40, Wallingford CT 06492
  
  
 ---------------------------------------------------------------
 Warning -- This program may not be used in any manner that
 competes with the business of Gaussian, Inc. or will provide
 assistance to any competitor of Gaussian, Inc.  The licensee
 of this program is prohibited from giving any competitor of
 Gaussian, Inc. access to this program.  By using this program,
 the user acknowledges that Gaussian, Inc. is engaged in the
 business of creating and licensing software in the field of
 computational chemistry and represents and warrants to the
 licensee that it is not a competitor of Gaussian, Inc. and that
 it will not use this program in any manner prohibited above.
 ---------------------------------------------------------------
  

 Cite this work as:
 Gaussian 09, Revision C.01,
 M. J. Frisch, G. W. Trucks, H. B. Schlegel, G. E. Scuseria, 
 M. A. Robb, J. R. Cheeseman, G. Scalmani, V. Barone, B. Mennucci, 
 G. A. Petersson, H. Nakatsuji, M. Caricato, X. Li, H. P. Hratchian, 
 A. F. Izmaylov, J. Bloino, G. Zheng, J. L. Sonnenberg, M. Hada, 
 M. Ehara, K. Toyota, R. Fukuda, J. Hasegawa, M. Ishida, T. Nakajima, 
 Y. Honda, O. Kitao, H. Nakai, T. Vreven, J. A. Montgomery, Jr., 
 J. E. Peralta, F. Ogliaro, M. Bearpark, J. J. Heyd, E. Brothers, 
 K. N. Kudin, V. N. Staroverov, T. Keith, R. Kobayashi, J. Normand, 
 K. Raghavachari, A. Rendell, J. C. Burant, S. S. Iyengar, J. Tomasi, 
 M. Cossi, N. Rega, J. M. Millam, M. Klene, J. E. Knox, J. B. Cross, 
 V. Bakken, C. Adamo, J. Jaramillo, R. Gomperts, R. E. Stratmann, 
 O. Yazyev, A. J. Austin, R. Cammi, C. Pomelli, J. W. Ochterski, 
 R. L. Martin, K. Morokuma, V. G. Zakrzewski, G. A. Voth, 
 P. Salvador, J. J. Dannenberg, S. Dapprich, A. D. Daniels, 
 O. Farkas, J. B. Foresman, J. V. Ortiz, J. Cioslowski, 
 and D. J. Fox, Gaussian, Inc., Wallingford CT, 2010.
 
 ******************************************
 Gaussian 09:  EM64L-G09RevC.01 23-Sep-2011
                16-Apr-2020 
 ******************************************
 %mem=8GB
 %nproc=8
 Will use up to    8 processors via shared memory.
 ----------------------------------------------------------------------
 #p wb97xd/aug-cc-PVTz iop(3/107=0250000000) iop(3/108=0250000000) int=
 ultrafine Scan
 ----------------------------------------------------------------------
 1/38=1,60=1/1,8;
 2/12=2,17=6,18=5,29=3,40=1/2;
 3/5=16,6=1,7=10,11=2,16=1,25=1,30=1,74=-58,75=-5,107=250000000,108=250000000/1,2,3;
 4//1;
 5/5=2,38=5/2;
 6/7=2,8=2,9=2,10=2,18=1,28=1/1;
 1/60=1/8(1);
 99/9=1/99;
 2/29=3/2;
 3/5=16,6=1,7=10,11=2,16=1,25=1,30=1,74=-58,75=-5,107=250000000,108=250000000/1,2,3;
 4/5=5,16=3/1;
 5/5=2,38=5/2;
 1/60=1/8(-4);
 99/9=1/99;
 Leave Link    1 at Thu Apr 16 09:09:53 2020, MaxMem= 1073741824 cpu:       0.1
 (Enter /home/matheus/.gaussian/g09/l101.exe)
 ---
 TCC
 ---
 Charge =  0 Multiplicity = 1
 Symbolic Z-Matrix:
 O                     0.        0.        0.725 
 O                     0.        0.       -0.725 
 H                     0.31422   0.86331   1.02351 
 H                     0.        0.91872  -1.02351 
 Kr                    0.       R1        0. 
       Variables:
  R1                    3.     Scan 20    0.1    
 
 NAtoms=      5 NQM=        0 NQMF=       0 NMMI=      5 NMMIF=      0
                NMic=       0 NMicF=      0.
                    Isotopes and Nuclear Properties:
 (Nuclear quadrupole moments (NQMom) in fm**2, nuclear magnetic moments (NMagM)
  in nuclear magnetons)

  Atom         1           2           3           4           5
 IAtWgt=          16          16           1           1          84
 AtmWgt=  15.9949146  15.9949146   1.0078250   1.0078250  83.9115064
 NucSpn=           0           0           1           1           0
 AtZEff=   0.0000000   0.0000000   0.0000000   0.0000000   0.0000000
 NQMom=    0.0000000   0.0000000   0.0000000   0.0000000   0.0000000
 NMagM=    0.0000000   0.0000000   2.7928460   2.7928460   0.0000000
 Leave Link  101 at Thu Apr 16 09:09:53 2020, MaxMem= 1073741824 cpu:       0.3
 (Enter /home/matheus/.gaussian/g09/l108.exe)
 Scan the potential surface.
 Variable   Value     No. Steps Step-Size
 -------- ----------- --------- ---------
     1       3.000000      20      0.1000
 A total of     21 points will be computed.
 Leave Link  108 at Thu Apr 16 09:09:53 2020, MaxMem= 1073741824 cpu:       0.0
 (Enter /home/matheus/.gaussian/g09/l202.exe)
 ---------------------------------------------------------------------------------------------------
                            Z-MATRIX (ANGSTROMS AND DEGREES)
   CD    Cent   Atom    N1       Length/X        N2       Alpha/Y        N3        Beta/Z          J
 ---------------------------------------------------------------------------------------------------
      1      1  O        0   0.000000          0.000000          0.725000
      2      2  O        0   0.000000          0.000000         -0.725000
      3      3  H        0   0.314221          0.863315          1.023510
      4      4  H        0   0.000000          0.918721         -1.023510
      5      5  Kr       0   0.000000          3.000000          0.000000
 ---------------------------------------------------------------------------------------------------
                         Z-Matrix orientation:                         
 ---------------------------------------------------------------------
 Center     Atomic      Atomic             Coordinates (Angstroms)
 Number     Number       Type             X           Y           Z
 ---------------------------------------------------------------------
      1          8           0        0.000000    0.000000    0.725000
      2          8           0        0.000000    0.000000   -0.725000
      3          1           0        0.314221    0.863315    1.023510
      4          1           0        0.000000    0.918721   -1.023510
      5         36           0        0.000000    3.000000    0.000000
 ---------------------------------------------------------------------
                    Distance matrix (angstroms):
                    1          2          3          4          5
     1  O    0.000000
     2  O    1.450000   0.000000
     3  H    0.966000   1.975180   0.000000
     4  H    1.975180   0.966000   2.071738   0.000000
     5  Kr   3.086361   3.086361   2.389923   2.319331   0.000000
 Stoichiometry    H2KrO2
 Framework group  C1[X(H2KrO2)]
 Deg. of freedom     9
 Full point group                 C1      NOp   1
 Largest Abelian subgroup         C1      NOp   1
 Largest concise Abelian subgroup C1      NOp   1
                         Standard orientation:                         
 ---------------------------------------------------------------------
 Center     Atomic      Atomic             Coordinates (Angstroms)
 Number     Number       Type             X           Y           Z
 ---------------------------------------------------------------------
      1          8           0        2.033423   -0.722971   -0.035434
      2          8           0        2.032510    0.726339    0.009272
      3          1           0        1.171431   -1.031666    0.272517
      4          1           0        1.113607    1.024028    0.021759
      5         36           0       -0.967014   -0.000536   -0.002361
 ---------------------------------------------------------------------
 Rotational constants (GHZ):     26.5652681      2.3862430      2.1913165
 Leave Link  202 at Thu Apr 16 09:09:53 2020, MaxMem= 1073741824 cpu:       0.0
 (Enter /home/matheus/.gaussian/g09/l301.exe)
 Standard basis: Aug-CC-pVTZ (5D, 7F)
 Ernie: Thresh=  0.10000D-02 Tol=  0.10000D-05 Strict=F.
 Ernie:  38 primitive shells out of 205 were deleted.
 There are   197 symmetry adapted basis functions of A   symmetry.
 Integral buffers will be    131072 words long.
 Raffenetti 2 integral format.
 Two-electron integral symmetry is turned on.
   197 basis functions,   415 primitive gaussians,   229 cartesian basis functions
    27 alpha electrons       27 beta electrons
       nuclear repulsion energy       151.6075768884 Hartrees.
 IExCor= 4639 DFT=T Ex+Corr=wB97XD ExCW=0 ScaHFX=  1.000000
 ScaDFX=  1.000000  1.000000  1.000000  1.000000 ScalE2=  1.000000  1.000000
 IRadAn=      5 IRanWt=     -1 IRanGd=            0 ICorTp=0
  HFx wShort=  0.000000 wLong=  0.250000 cFull=  0.222036 cShort=  0.000000 cLong=  0.777964
  DFx wShort=  0.000000 wLong=  0.250000 cFull=  0.000000 cShort=  0.000000 cLong=  1.000000
 NAtoms=    5 NActive=    5 NUniq=    5 SFac= 1.00D+00 NAtFMM=   60 NAOKFM=F Big=F
 R6Disp: Dispersion energy =        -0.0007717585 Hartrees.
 Nuclear repulsion after empirical dispersion term =      151.6068051300 Hartrees.
 Leave Link  301 at Thu Apr 16 09:09:53 2020, MaxMem= 1073741824 cpu:       0.2
 (Enter /home/matheus/.gaussian/g09/l302.exe)
 NPDir=0 NMtPBC=     1 NCelOv=     1 NCel=       1 NClECP=     1 NCelD=      1
         NCelK=      1 NCelE2=     1 NClLst=     1 CellRange=     0.0.
 One-electron integrals computed using PRISM.
 NBasis=   197 RedAO= T  NBF=   197
 NBsUse=   197 1.00D-06 NBFU=   197
 Precomputing XC quadrature grid using
 IXCGrd= 2 IRadAn=           5 IRanWt=          -1 IRanGd=           0 AccXCQ= 0.00D+00.
 NRdTot=     427 NPtTot=      123512 NUsed=      126579 NTot=      126611
 NSgBfM=   229   229   229   229   229 NAtAll=     5     5.
 Leave Link  302 at Thu Apr 16 09:09:53 2020, MaxMem= 1073741824 cpu:       1.1
 (Enter /home/matheus/.gaussian/g09/l303.exe)
 DipDrv:  MaxL=1.
 Leave Link  303 at Thu Apr 16 09:09:53 2020, MaxMem= 1073741824 cpu:       0.2
 (Enter /home/matheus/.gaussian/g09/l401.exe)
 Harris functional with IExCor= 4639 diagonalized for initial guess.
 ExpMin= 2.53D-02 ExpMax= 1.17D+07 ExpMxC= 1.33D+04 IAcc=3 IRadAn=         5 AccDes= 0.00D+00
 HarFok:  IExCor= 4639 AccDes= 0.00D+00 IRadAn=         5 IDoV= 1
 ScaDFX=  1.000000  1.000000  1.000000  1.000000
 FoFCou: FMM=F IPFlag=           0 FMFlag=      100000 FMFlg1=           0
         NFxFlg=           0 DoJE=T BraDBF=F KetDBF=T FulRan=T
         Omega=  0.000000  0.000000  1.000000  0.000000  0.000000 ICntrl=     500 IOpCl=  0
         NMat0=    1 NMatS0=    1 NMatT0=    0 NMatD0=    1 NMtDS0=    0 NMtDT0=    0
         I1Cent=           4 NGrid=           0.
 Petite list used in FoFCou.
 Harris En= -2875.38753328395    
 Initial guess orbital symmetries:
       Occupied  (A) (A) (A) (A) (A) (A) (A) (A) (A) (A) (A) (A)
                 (A) (A) (A) (A) (A) (A) (A) (A) (A) (A) (A) (A)
                 (A) (A) (A)
       Virtual   (A) (A) (A) (A) (A) (A) (A) (A) (A) (A) (A) (A)
                 (A) (A) (A) (A) (A) (A) (A) (A) (A) (A) (A) (A)
                 (A) (A) (A) (A) (A) (A) (A) (A) (A) (A) (A) (A)
                 (A) (A) (A) (A) (A) (A) (A) (A) (A) (A) (A) (A)
                 (A) (A) (A) (A) (A) (A) (A) (A) (A) (A) (A) (A)
                 (A) (A) (A) (A) (A) (A) (A) (A) (A) (A) (A) (A)
                 (A) (A) (A) (A) (A) (A) (A) (A) (A) (A) (A) (A)
                 (A) (A) (A) (A) (A) (A) (A) (A) (A) (A) (A) (A)
                 (A) (A) (A) (A) (A) (A) (A) (A) (A) (A) (A) (A)
                 (A) (A) (A) (A) (A) (A) (A) (A) (A) (A) (A) (A)
                 (A) (A) (A) (A) (A) (A) (A) (A) (A) (A) (A) (A)
                 (A) (A) (A) (A) (A) (A) (A) (A) (A) (A) (A) (A)
                 (A) (A) (A) (A) (A) (A) (A) (A) (A) (A) (A) (A)
                 (A) (A) (A) (A) (A) (A) (A) (A) (A) (A) (A) (A)
                 (A) (A)
 The electronic state of the initial guess is 1-A.
 Leave Link  401 at Thu Apr 16 09:09:54 2020, MaxMem= 1073741824 cpu:       5.0
 (Enter /home/matheus/.gaussian/g09/l502.exe)
 Closed shell SCF:
 Requested convergence on RMS density matrix=1.00D-08 within 128 cycles.
 Requested convergence on MAX density matrix=1.00D-06.
 Requested convergence on             energy=1.00D-06.
 No special actions if energy rises.
 Using DIIS extrapolation, IDIIS=  1040.
 Integral symmetry usage will be decided dynamically.
       126521 words used for storage of precomputed grid.
 IEnd=      305468 IEndB=      305468 NGot=  1073741824 MDV=  1073505667
 LenX=  1073505667 LenY=  1073452785
 Fock matrices will be formed incrementally for  20 cycles.

 Cycle   1  Pass 1  IDiag  1:
 FoFJK:  IHMeth= 1 ICntrl=     0 DoSepK=T KAlg= 1 I1Cent= 0 FoldK=F
 FoFCou: FMM=F IPFlag=           0 FMFlag=      100000 FMFlg1=           0
         NFxFlg=           0 DoJE=T BraDBF=F KetDBF=F FulRan=T
         Omega=  0.000000  0.000000  1.000000  0.000000  0.000000 ICntrl=     500 IOpCl=  0
         NMat0=    1 NMatS0=    1 NMatT0=    0 NMatD0=    1 NMtDS0=    0 NMtDT0=    0
         I1Cent=           0 NGrid=           0.
 Symmetry not used in FoFCou.
 E= -2904.88856237593    
 DIIS: error= 8.83D-02 at cycle   1 NSaved=   1.
 NSaved= 1 IEnMin= 1 EnMin= -2904.88856237593     IErMin= 1 ErrMin= 8.83D-02
 ErrMax= 8.83D-02 EMaxC= 1.00D-01 BMatC= 2.24D+00 BMatP= 2.24D+00
 IDIUse=3 WtCom= 1.17D-01 WtEn= 8.83D-01
 Coeff-Com:  0.100D+01
 Coeff-En:   0.100D+01
 Coeff:      0.100D+01
 Gap=     0.519 Goal=   None    Shift=    0.000
 GapD=    0.519 DampG=2.000 DampE=0.500 DampFc=1.0000 IDamp=-1.
 RMSDP=6.38D-03 MaxDP=3.78D-01              OVMax= 1.89D-01

 Cycle   2  Pass 1  IDiag  1:
 RMSU=  4.49D-03    CP:  1.02D+00
 FoFJK:  IHMeth= 1 ICntrl=     0 DoSepK=T KAlg= 1 I1Cent= 0 FoldK=F
 E= -2905.21809458198     Delta-E=       -0.329532206055 Rises=F Damp=F
 DIIS: error= 3.51D-02 at cycle   2 NSaved=   2.
 NSaved= 2 IEnMin= 2 EnMin= -2905.21809458198     IErMin= 2 ErrMin= 3.51D-02
 ErrMax= 3.51D-02 EMaxC= 1.00D-01 BMatC= 5.66D-01 BMatP= 2.24D+00
 IDIUse=3 WtCom= 6.49D-01 WtEn= 3.51D-01
 Coeff-Com:  0.327D+00 0.673D+00
 Coeff-En:   0.187D+00 0.813D+00
 Coeff:      0.278D+00 0.722D+00
 Gap=     0.469 Goal=   None    Shift=    0.000
 RMSDP=2.80D-03 MaxDP=1.64D-01 DE=-3.30D-01 OVMax= 7.52D-02

 Cycle   3  Pass 1  IDiag  1:
 RMSU=  5.85D-04    CP:  1.02D+00  5.81D-01
 FoFJK:  IHMeth= 1 ICntrl=     0 DoSepK=T KAlg= 1 I1Cent= 0 FoldK=F
 E= -2905.40865799853     Delta-E=       -0.190563416545 Rises=F Damp=F
 DIIS: error= 5.82D-03 at cycle   3 NSaved=   3.
 NSaved= 3 IEnMin= 3 EnMin= -2905.40865799853     IErMin= 3 ErrMin= 5.82D-03
 ErrMax= 5.82D-03 EMaxC= 1.00D-01 BMatC= 2.02D-02 BMatP= 5.66D-01
 IDIUse=3 WtCom= 9.42D-01 WtEn= 5.82D-02
 Coeff-Com:  0.297D-01 0.190D+00 0.780D+00
 Coeff-En:   0.000D+00 0.000D+00 0.100D+01
 Coeff:      0.280D-01 0.179D+00 0.793D+00
 Gap=     0.420 Goal=   None    Shift=    0.000
 RMSDP=5.23D-04 MaxDP=1.64D-02 DE=-1.91D-01 OVMax= 2.62D-02

 Cycle   4  Pass 1  IDiag  1:
 RMSU=  2.38D-04    CP:  1.02D+00  6.43D-01  9.31D-01
 FoFJK:  IHMeth= 1 ICntrl=     0 DoSepK=T KAlg= 1 I1Cent= 0 FoldK=F
 E= -2905.41748497954     Delta-E=       -0.008826981018 Rises=F Damp=F
 DIIS: error= 2.16D-03 at cycle   4 NSaved=   4.
 NSaved= 4 IEnMin= 4 EnMin= -2905.41748497954     IErMin= 4 ErrMin= 2.16D-03
 ErrMax= 2.16D-03 EMaxC= 1.00D-01 BMatC= 1.73D-03 BMatP= 2.02D-02
 IDIUse=3 WtCom= 9.78D-01 WtEn= 2.16D-02
 Coeff-Com: -0.301D-02 0.521D-01 0.373D+00 0.578D+00
 Coeff-En:   0.000D+00 0.000D+00 0.000D+00 0.100D+01
 Coeff:     -0.295D-02 0.510D-01 0.365D+00 0.587D+00
 Gap=     0.404 Goal=   None    Shift=    0.000
 RMSDP=1.28D-04 MaxDP=5.83D-03 DE=-8.83D-03 OVMax= 7.12D-03

 Cycle   5  Pass 1  IDiag  1:
 RMSU=  4.16D-05    CP:  1.02D+00  6.40D-01  9.64D-01  6.81D-01
 FoFJK:  IHMeth= 1 ICntrl=     0 DoSepK=T KAlg= 1 I1Cent= 0 FoldK=F
 E= -2905.41855889046     Delta-E=       -0.001073910912 Rises=F Damp=F
 DIIS: error= 1.08D-04 at cycle   5 NSaved=   5.
 NSaved= 5 IEnMin= 5 EnMin= -2905.41855889046     IErMin= 5 ErrMin= 1.08D-04
 ErrMax= 1.08D-04 EMaxC= 1.00D-01 BMatC= 4.67D-06 BMatP= 1.73D-03
 IDIUse=3 WtCom= 9.99D-01 WtEn= 1.08D-03
 Coeff-Com: -0.656D-03-0.546D-02-0.193D-01-0.128D-01 0.104D+01
 Coeff-En:   0.000D+00 0.000D+00 0.000D+00 0.000D+00 0.100D+01
 Coeff:     -0.656D-03-0.546D-02-0.193D-01-0.128D-01 0.104D+01
 Gap=     0.404 Goal=   None    Shift=    0.000
 RMSDP=2.31D-05 MaxDP=7.22D-04 DE=-1.07D-03 OVMax= 1.31D-03

 Cycle   6  Pass 1  IDiag  1:
 RMSU=  6.97D-06    CP:  1.02D+00  6.40D-01  9.78D-01  7.00D-01  1.27D+00
 FoFJK:  IHMeth= 1 ICntrl=     0 DoSepK=T KAlg= 1 I1Cent= 0 FoldK=F
 E= -2905.41856590826     Delta-E=       -0.000007017803 Rises=F Damp=F
 DIIS: error= 6.79D-05 at cycle   6 NSaved=   6.
 NSaved= 6 IEnMin= 6 EnMin= -2905.41856590826     IErMin= 6 ErrMin= 6.79D-05
 ErrMax= 6.79D-05 EMaxC= 1.00D-01 BMatC= 1.51D-06 BMatP= 4.67D-06
 IDIUse=1 WtCom= 1.00D+00 WtEn= 0.00D+00
 Coeff-Com: -0.150D-03-0.454D-02-0.238D-01-0.302D-01 0.389D+00 0.670D+00
 Coeff:     -0.150D-03-0.454D-02-0.238D-01-0.302D-01 0.389D+00 0.670D+00
 Gap=     0.404 Goal=   None    Shift=    0.000
 RMSDP=5.88D-06 MaxDP=2.13D-04 DE=-7.02D-06 OVMax= 3.58D-04

 Cycle   7  Pass 1  IDiag  1:
 RMSU=  3.11D-06    CP:  1.02D+00  6.40D-01  9.80D-01  7.03D-01  1.33D+00
                    CP:  9.52D-01
 FoFJK:  IHMeth= 1 ICntrl=     0 DoSepK=T KAlg= 1 I1Cent= 0 FoldK=F
 E= -2905.41856695703     Delta-E=       -0.000001048769 Rises=F Damp=F
 DIIS: error= 4.08D-05 at cycle   7 NSaved=   7.
 NSaved= 7 IEnMin= 7 EnMin= -2905.41856695703     IErMin= 7 ErrMin= 4.08D-05
 ErrMax= 4.08D-05 EMaxC= 1.00D-01 BMatC= 3.99D-07 BMatP= 1.51D-06
 IDIUse=1 WtCom= 1.00D+00 WtEn= 0.00D+00
 Coeff-Com:  0.221D-04-0.150D-02-0.927D-02-0.135D-01 0.232D-01 0.352D+00
 Coeff-Com:  0.649D+00
 Coeff:      0.221D-04-0.150D-02-0.927D-02-0.135D-01 0.232D-01 0.352D+00
 Coeff:      0.649D+00
 Gap=     0.404 Goal=   None    Shift=    0.000
 RMSDP=2.47D-06 MaxDP=8.84D-05 DE=-1.05D-06 OVMax= 1.66D-04

 Cycle   8  Pass 1  IDiag  1:
 RMSU=  9.00D-07    CP:  1.02D+00  6.40D-01  9.81D-01  7.04D-01  1.35D+00
                    CP:  1.10D+00  9.05D-01
 FoFJK:  IHMeth= 1 ICntrl=     0 DoSepK=T KAlg= 1 I1Cent= 0 FoldK=F
 E= -2905.41856727248     Delta-E=       -0.000000315452 Rises=F Damp=F
 DIIS: error= 6.13D-06 at cycle   8 NSaved=   8.
 NSaved= 8 IEnMin= 8 EnMin= -2905.41856727248     IErMin= 8 ErrMin= 6.13D-06
 ErrMax= 6.13D-06 EMaxC= 1.00D-01 BMatC= 8.17D-09 BMatP= 3.99D-07
 IDIUse=1 WtCom= 1.00D+00 WtEn= 0.00D+00
 Coeff-Com:  0.189D-04 0.215D-03 0.928D-03 0.595D-03-0.363D-01-0.183D-01
 Coeff-Com:  0.783D-01 0.975D+00
 Coeff:      0.189D-04 0.215D-03 0.928D-03 0.595D-03-0.363D-01-0.183D-01
 Coeff:      0.783D-01 0.975D+00
 Gap=     0.404 Goal=   None    Shift=    0.000
 RMSDP=9.74D-07 MaxDP=2.56D-05 DE=-3.15D-07 OVMax= 7.16D-05

 Cycle   9  Pass 1  IDiag  1:
 RMSU=  2.92D-07    CP:  1.02D+00  6.40D-01  9.81D-01  7.03D-01  1.36D+00
                    CP:  1.14D+00  1.01D+00  1.25D+00
 FoFJK:  IHMeth= 1 ICntrl=     0 DoSepK=T KAlg= 1 I1Cent= 0 FoldK=F
 E= -2905.41856728986     Delta-E=       -0.000000017379 Rises=F Damp=F
 DIIS: error= 2.42D-06 at cycle   9 NSaved=   9.
 NSaved= 9 IEnMin= 9 EnMin= -2905.41856728986     IErMin= 9 ErrMin= 2.42D-06
 ErrMax= 2.42D-06 EMaxC= 1.00D-01 BMatC= 5.62D-10 BMatP= 8.17D-09
 IDIUse=1 WtCom= 1.00D+00 WtEn= 0.00D+00
 Coeff-Com: -0.729D-06 0.108D-03 0.642D-03 0.647D-03-0.179D-02-0.201D-01
 Coeff-Com: -0.387D-01-0.140D-01 0.107D+01
 Coeff:     -0.729D-06 0.108D-03 0.642D-03 0.647D-03-0.179D-02-0.201D-01
 Coeff:     -0.387D-01-0.140D-01 0.107D+01
 Gap=     0.404 Goal=   None    Shift=    0.000
 RMSDP=2.87D-07 MaxDP=7.74D-06 DE=-1.74D-08 OVMax= 2.70D-05

 Cycle  10  Pass 1  IDiag  1:
 RMSU=  8.09D-08    CP:  1.02D+00  6.40D-01  9.81D-01  7.03D-01  1.36D+00
                    CP:  1.15D+00  1.03D+00  1.35D+00  1.31D+00
 FoFJK:  IHMeth= 1 ICntrl=     0 DoSepK=T KAlg= 1 I1Cent= 0 FoldK=F
 E= -2905.41856729132     Delta-E=       -0.000000001457 Rises=F Damp=F
 DIIS: error= 6.02D-07 at cycle  10 NSaved=  10.
 NSaved=10 IEnMin=10 EnMin= -2905.41856729132     IErMin=10 ErrMin= 6.02D-07
 ErrMax= 6.02D-07 EMaxC= 1.00D-01 BMatC= 4.41D-11 BMatP= 5.62D-10
 IDIUse=1 WtCom= 1.00D+00 WtEn= 0.00D+00
 Coeff-Com: -0.113D-05-0.741D-05-0.238D-04-0.104D-04 0.295D-02 0.155D-02
 Coeff-Com: -0.794D-02-0.989D-01 0.124D+00 0.978D+00
 Coeff:     -0.113D-05-0.741D-05-0.238D-04-0.104D-04 0.295D-02 0.155D-02
 Coeff:     -0.794D-02-0.989D-01 0.124D+00 0.978D+00
 Gap=     0.404 Goal=   None    Shift=    0.000
 RMSDP=7.36D-08 MaxDP=1.94D-06 DE=-1.46D-09 OVMax= 7.86D-06

 Cycle  11  Pass 1  IDiag  1:
 RMSU=  2.02D-08    CP:  1.02D+00  6.40D-01  9.81D-01  7.03D-01  1.36D+00
                    CP:  1.15D+00  1.03D+00  1.37D+00  1.43D+00  1.22D+00
 FoFJK:  IHMeth= 1 ICntrl=     0 DoSepK=T KAlg= 1 I1Cent= 0 FoldK=F
 E= -2905.41856729142     Delta-E=       -0.000000000108 Rises=F Damp=F
 DIIS: error= 1.55D-07 at cycle  11 NSaved=  11.
 NSaved=11 IEnMin=11 EnMin= -2905.41856729142     IErMin=11 ErrMin= 1.55D-07
 ErrMax= 1.55D-07 EMaxC= 1.00D-01 BMatC= 2.84D-12 BMatP= 4.41D-11
 IDIUse=1 WtCom= 1.00D+00 WtEn= 0.00D+00
 Coeff-Com:  0.369D-06-0.516D-05-0.370D-04-0.168D-04-0.388D-03 0.131D-02
 Coeff-Com:  0.386D-02 0.966D-02-0.768D-01-0.123D+00 0.119D+01
 Coeff:      0.369D-06-0.516D-05-0.370D-04-0.168D-04-0.388D-03 0.131D-02
 Coeff:      0.386D-02 0.966D-02-0.768D-01-0.123D+00 0.119D+01
 Gap=     0.404 Goal=   None    Shift=    0.000
 RMSDP=2.12D-08 MaxDP=4.97D-07 DE=-1.08D-10 OVMax= 2.27D-06

 Cycle  12  Pass 1  IDiag  1:
 RMSU=  5.00D-09    CP:  1.02D+00  6.40D-01  9.81D-01  7.03D-01  1.36D+00
                    CP:  1.15D+00  1.03D+00  1.37D+00  1.45D+00  1.33D+00
                    CP:  1.33D+00
 FoFJK:  IHMeth= 1 ICntrl=     0 DoSepK=T KAlg= 1 I1Cent= 0 FoldK=F
 E= -2905.41856729143     Delta-E=       -0.000000000006 Rises=F Damp=F
 DIIS: error= 2.81D-08 at cycle  12 NSaved=  12.
 NSaved=12 IEnMin=12 EnMin= -2905.41856729143     IErMin=12 ErrMin= 2.81D-08
 ErrMax= 2.81D-08 EMaxC= 1.00D-01 BMatC= 9.41D-14 BMatP= 2.84D-12
 IDIUse=1 WtCom= 1.00D+00 WtEn= 0.00D+00
 Coeff-Com: -0.415D-07 0.735D-06 0.526D-05-0.367D-05-0.422D-04-0.192D-03
 Coeff-Com: -0.202D-03 0.191D-02 0.782D-02-0.884D-02-0.237D+00 0.124D+01
 Coeff:     -0.415D-07 0.735D-06 0.526D-05-0.367D-05-0.422D-04-0.192D-03
 Coeff:     -0.202D-03 0.191D-02 0.782D-02-0.884D-02-0.237D+00 0.124D+01
 Gap=     0.404 Goal=   None    Shift=    0.000
 RMSDP=4.71D-09 MaxDP=1.66D-07 DE=-5.91D-12 OVMax= 4.05D-07

 SCF Done:  E(RwB97XD) =  -2905.41856729     A.U. after   12 cycles
             Convg  =    0.4707D-08             -V/T =  2.0015
 KE= 2.900964247751D+03 PE=-7.240541154138D+03 EE= 1.282551533965D+03
 Leave Link  502 at Thu Apr 16 09:10:35 2020, MaxMem= 1073741824 cpu:     329.4
 (Enter /home/matheus/.gaussian/g09/l601.exe)
 Copying SCF densities to generalized density rwf, IOpCl= 0 IROHF=0.

 **********************************************************************

            Population analysis using the SCF density.

 **********************************************************************

 Orbital symmetries:
       Occupied  (A) (A) (A) (A) (A) (A) (A) (A) (A) (A) (A) (A)
                 (A) (A) (A) (A) (A) (A) (A) (A) (A) (A) (A) (A)
                 (A) (A) (A)
       Virtual   (A) (A) (A) (A) (A) (A) (A) (A) (A) (A) (A) (A)
                 (A) (A) (A) (A) (A) (A) (A) (A) (A) (A) (A) (A)
                 (A) (A) (A) (A) (A) (A) (A) (A) (A) (A) (A) (A)
                 (A) (A) (A) (A) (A) (A) (A) (A) (A) (A) (A) (A)
                 (A) (A) (A) (A) (A) (A) (A) (A) (A) (A) (A) (A)
                 (A) (A) (A) (A) (A) (A) (A) (A) (A) (A) (A) (A)
                 (A) (A) (A) (A) (A) (A) (A) (A) (A) (A) (A) (A)
                 (A) (A) (A) (A) (A) (A) (A) (A) (A) (A) (A) (A)
                 (A) (A) (A) (A) (A) (A) (A) (A) (A) (A) (A) (A)
                 (A) (A) (A) (A) (A) (A) (A) (A) (A) (A) (A) (A)
                 (A) (A) (A) (A) (A) (A) (A) (A) (A) (A) (A) (A)
                 (A) (A) (A) (A) (A) (A) (A) (A) (A) (A) (A) (A)
                 (A) (A) (A) (A) (A) (A) (A) (A) (A) (A) (A) (A)
                 (A) (A) (A) (A) (A) (A) (A) (A) (A) (A) (A) (A)
                 (A) (A)
 The electronic state is 1-A.
 Alpha  occ. eigenvalues -- -513.11905 -67.38719 -60.93597 -60.93591 -60.93582
 Alpha  occ. eigenvalues --  -19.33565 -19.33488  -9.84040  -7.53365  -7.53341
 Alpha  occ. eigenvalues --   -7.53311  -3.40050  -3.40048  -3.40022  -3.40004
 Alpha  occ. eigenvalues --   -3.40000  -1.24546  -1.04893  -1.02794  -0.69175
 Alpha  occ. eigenvalues --   -0.54925  -0.53716  -0.52432  -0.51513  -0.50676
 Alpha  occ. eigenvalues --   -0.47524  -0.36852
 Alpha virt. eigenvalues --    0.03527   0.04494   0.08687   0.09263   0.09725
 Alpha virt. eigenvalues --    0.11935   0.12625   0.15976   0.16976   0.17790
 Alpha virt. eigenvalues --    0.18475   0.19201   0.20176   0.21465   0.22772
 Alpha virt. eigenvalues --    0.23760   0.24243   0.26479   0.29924   0.33116
 Alpha virt. eigenvalues --    0.35274   0.36331   0.38027   0.38187   0.39711
 Alpha virt. eigenvalues --    0.42114   0.44655   0.48068   0.51389   0.53176
 Alpha virt. eigenvalues --    0.57751   0.60768   0.61035   0.63111   0.64410
 Alpha virt. eigenvalues --    0.68175   0.68587   0.71122   0.71971   0.73476
 Alpha virt. eigenvalues --    0.74441   0.76398   0.79449   0.81560   0.84659
 Alpha virt. eigenvalues --    0.85284   0.85754   0.87433   0.87689   0.90278
 Alpha virt. eigenvalues --    0.92404   0.94274   0.95932   0.97489   0.99239
 Alpha virt. eigenvalues --    1.02100   1.03602   1.05244   1.07423   1.09116
 Alpha virt. eigenvalues --    1.12151   1.17956   1.20843   1.23984   1.25700
 Alpha virt. eigenvalues --    1.30228   1.30855   1.36999   1.38312   1.46097
 Alpha virt. eigenvalues --    1.48032   1.51773   1.53211   1.54735   1.57127
 Alpha virt. eigenvalues --    1.61527   1.65497   1.80829   1.88586   1.93053
 Alpha virt. eigenvalues --    1.96852   2.03327   2.06621   2.12119   2.12304
 Alpha virt. eigenvalues --    2.15626   2.19864   2.20402   2.20628   2.27060
 Alpha virt. eigenvalues --    2.28719   2.30468   2.31577   2.32537   2.34202
 Alpha virt. eigenvalues --    2.36955   2.39040   2.41897   2.45752   2.46789
 Alpha virt. eigenvalues --    2.48285   2.48916   2.55016   2.56392   2.58880
 Alpha virt. eigenvalues --    2.62273   2.65422   2.66559   2.69803   2.71330
 Alpha virt. eigenvalues --    2.71975   2.76004   2.79366   2.87969   2.88227
 Alpha virt. eigenvalues --    2.93410   3.08138   3.11140   3.12993   3.54813
 Alpha virt. eigenvalues --    3.71975   3.87060   3.97092   4.01827   4.08472
 Alpha virt. eigenvalues --    4.13927   4.15075   4.18306   4.19732   4.23539
 Alpha virt. eigenvalues --    4.40106   4.49468   4.54795   4.68247   4.72506
 Alpha virt. eigenvalues --    4.96358   4.99860   5.03635   5.08204   5.10707
 Alpha virt. eigenvalues --    5.14667   5.51082   5.81939   6.01777   6.04927
 Alpha virt. eigenvalues --    6.12325   6.35004   6.37166   6.47459   6.56953
 Alpha virt. eigenvalues --    6.68756   6.71270   6.77448   6.80922   6.82877
 Alpha virt. eigenvalues --    6.86024   6.88771   6.89893   6.91839   7.09870
 Alpha virt. eigenvalues --    7.16299   7.17317   7.26772   7.33413   7.59242
 Alpha virt. eigenvalues --    7.98179   8.02478   8.17813  13.84329  14.73622
          Condensed to atoms (all electrons):
              1          2          3          4          5
     1  O    8.256977  -0.212145   0.168646   0.034954  -0.021054
     2  O   -0.212145   8.256750   0.038177   0.176211  -0.017980
     3  H    0.168646   0.038177   0.592764  -0.017914  -0.004175
     4  H    0.034954   0.176211  -0.017914   0.584861  -0.010470
     5  Kr  -0.021054  -0.017980  -0.004175  -0.010470  36.040148
 Mulliken atomic charges:
              1
     1  O   -0.227379
     2  O   -0.241013
     3  H    0.222502
     4  H    0.232358
     5  Kr   0.013531
 Sum of Mulliken atomic charges =   0.00000
 Mulliken charges with hydrogens summed into heavy atoms:
              1
     1  O   -0.004877
     2  O   -0.008654
     5  Kr   0.013531
 Sum of Mulliken charges with hydrogens summed into heavy atoms =   0.00000
 Electronic spatial extent (au):  <R**2>=            475.6814
 Charge=              0.0000 electrons
 Dipole moment (field-independent basis, Debye):
    X=             -3.5658    Y=             -0.0454    Z=              0.4403  Tot=              3.5932
 Quadrupole moment (field-independent basis, Debye-Ang):
   XX=            -38.5456   YY=            -28.1203   ZZ=            -30.3582
   XY=             -0.1352   XZ=              0.4993   YZ=             -0.5934
 Traceless Quadrupole moment (field-independent basis, Debye-Ang):
   XX=             -6.2042   YY=              4.2211   ZZ=              1.9832
   XY=             -0.1352   XZ=              0.4993   YZ=             -0.5934
 Octapole moment (field-independent basis, Debye-Ang**2):
  XXX=            -44.3525  YYY=             -0.1082  ZZZ=             -0.0119  XYY=             -7.8772
  XXY=             -0.3106  XXZ=             -0.0656  XZZ=             -8.7179  YZZ=             -0.2164
  YYZ=              0.6763  XYZ=             -0.6606
 Hexadecapole moment (field-independent basis, Debye-Ang**3):
 XXXX=           -454.5217 YYYY=            -63.3314 ZZZZ=            -29.3608 XXXY=             -0.2926
 XXXZ=             -1.0561 YYYX=             -0.2468 YYYZ=             -0.8028 ZZZX=              0.1777
 ZZZY=             -0.3368 XXYY=            -85.9308 XXZZ=            -76.1825 YYZZ=            -17.2659
 XXYZ=             -0.6792 YYXZ=              0.7773 ZZXY=             -0.2851
 N-N= 1.516068051300D+02 E-N=-7.240541153904D+03  KE= 2.900964247751D+03
 No NMR shielding tensors so no spin-rotation constants.
 Leave Link  601 at Thu Apr 16 09:10:35 2020, MaxMem= 1073741824 cpu:       0.7
 (Enter /home/matheus/.gaussian/g09/l108.exe)
 Variable Step   Value    
 -------- ---- -----------
     1       1    5.858151
 Leave Link  108 at Thu Apr 16 09:10:35 2020, MaxMem= 1073741824 cpu:       0.0
 (Enter /home/matheus/.gaussian/g09/l202.exe)
 ---------------------------------------------------------------------------------------------------
                            Z-MATRIX (ANGSTROMS AND DEGREES)
   CD    Cent   Atom    N1       Length/X        N2       Alpha/Y        N3        Beta/Z          J
 ---------------------------------------------------------------------------------------------------
      1      1  O        0   0.000000          0.000000          0.725000
      2      2  O        0   0.000000          0.000000         -0.725000
      3      3  H        0   0.314221          0.863315          1.023510
      4      4  H        0   0.000000          0.918721         -1.023510
      5      5  Kr       0   0.000000          3.100000          0.000000
 ---------------------------------------------------------------------------------------------------
                         Z-Matrix orientation:                         
 ---------------------------------------------------------------------
 Center     Atomic      Atomic             Coordinates (Angstroms)
 Number     Number       Type             X           Y           Z
 ---------------------------------------------------------------------
      1          8           0        0.000000    0.000000    0.725000
      2          8           0        0.000000    0.000000   -0.725000
      3          1           0        0.314221    0.863315    1.023510
      4          1           0        0.000000    0.918721   -1.023510
      5         36           0        0.000000    3.100000    0.000000
 ---------------------------------------------------------------------
                    Distance matrix (angstroms):
                    1          2          3          4          5
     1  O    0.000000
     2  O    1.450000   0.000000
     3  H    0.966000   1.975180   0.000000
     4  H    1.975180   0.966000   2.071738   0.000000
     5  Kr   3.183650   3.183650   2.479732   2.409472   0.000000
 Stoichiometry    H2KrO2
 Framework group  C1[X(H2KrO2)]
 Deg. of freedom     9
 Full point group                 C1      NOp   1
 RotChk:  IX=0 Diff= 8.66D-05
 Largest Abelian subgroup         C1      NOp   1
 Largest concise Abelian subgroup C1      NOp   1
                         Standard orientation:                         
 ---------------------------------------------------------------------
 Center     Atomic      Atomic             Coordinates (Angstroms)
 Number     Number       Type             X           Y           Z
 ---------------------------------------------------------------------
      1          8           0        2.100057   -0.723019   -0.035588
      2          8           0        2.099209    0.726291    0.009118
      3          1           0        1.238038   -1.031674    0.272328
      4          1           0        1.180320    1.024022    0.021568
      5         36           0       -1.000347   -0.000515   -0.002282
 ---------------------------------------------------------------------
 Rotational constants (GHZ):     26.5653126      2.2332827      2.0616461
 Leave Link  202 at Thu Apr 16 09:10:35 2020, MaxMem= 1073741824 cpu:       0.0
 (Enter /home/matheus/.gaussian/g09/l301.exe)
 Standard basis: Aug-CC-pVTZ (5D, 7F)
 Ernie: Thresh=  0.10000D-02 Tol=  0.10000D-05 Strict=F.
 Ernie:  38 primitive shells out of 205 were deleted.
 There are   197 symmetry adapted basis functions of A   symmetry.
 Integral buffers will be    131072 words long.
 Raffenetti 2 integral format.
 Two-electron integral symmetry is turned on.
   197 basis functions,   415 primitive gaussians,   229 cartesian basis functions
    27 alpha electrons       27 beta electrons
       nuclear repulsion energy       147.9936454092 Hartrees.
 IExCor= 4639 DFT=T Ex+Corr=wB97XD ExCW=0 ScaHFX=  1.000000
 ScaDFX=  1.000000  1.000000  1.000000  1.000000 ScalE2=  1.000000  1.000000
 IRadAn=      5 IRanWt=     -1 IRanGd=            0 ICorTp=0
  HFx wShort=  0.000000 wLong=  0.250000 cFull=  0.222036 cShort=  0.000000 cLong=  0.777964
  DFx wShort=  0.000000 wLong=  0.250000 cFull=  0.000000 cShort=  0.000000 cLong=  1.000000
 NAtoms=    5 NActive=    5 NUniq=    5 SFac= 1.00D+00 NAtFMM=   60 NAOKFM=F Big=F
 R6Disp: Dispersion energy =        -0.0008585092 Hartrees.
 Nuclear repulsion after empirical dispersion term =      147.9927868999 Hartrees.
 Leave Link  301 at Thu Apr 16 09:10:35 2020, MaxMem= 1073741824 cpu:       0.2
 (Enter /home/matheus/.gaussian/g09/l302.exe)
 NPDir=0 NMtPBC=     1 NCelOv=     1 NCel=       1 NClECP=     1 NCelD=      1
         NCelK=      1 NCelE2=     1 NClLst=     1 CellRange=     0.0.
 One-electron integrals computed using PRISM.
 NBasis=   197 RedAO= T  NBF=   197
 NBsUse=   197 1.00D-06 NBFU=   197
 Precomputing XC quadrature grid using
 IXCGrd= 2 IRadAn=           5 IRanWt=          -1 IRanGd=           0 AccXCQ= 0.00D+00.
 NRdTot=     427 NPtTot=      123512 NUsed=      126579 NTot=      126611
 NSgBfM=   229   229   229   229   229 NAtAll=     5     5.
 Leave Link  302 at Thu Apr 16 09:10:36 2020, MaxMem= 1073741824 cpu:       1.1
 (Enter /home/matheus/.gaussian/g09/l303.exe)
 DipDrv:  MaxL=1.
 Leave Link  303 at Thu Apr 16 09:10:36 2020, MaxMem= 1073741824 cpu:       0.2
 (Enter /home/matheus/.gaussian/g09/l401.exe)
 Initial guess read from the read-write file.
 B after Tr=     0.000000    0.000000    0.000000
         Rot=    1.000000    0.000000    0.000000    0.000000 Ang=   0.00 deg.
 Guess basis will be translated and rotated to current coordinates.
 Initial guess orbital symmetries:
       Occupied  (A) (A) (A) (A) (A) (A) (A) (A) (A) (A) (A) (A)
                 (A) (A) (A) (A) (A) (A) (A) (A) (A) (A) (A) (A)
                 (A) (A) (A)
       Virtual   (A) (A) (A) (A) (A) (A) (A) (A) (A) (A) (A) (A)
                 (A) (A) (A) (A) (A) (A) (A) (A) (A) (A) (A) (A)
                 (A) (A) (A) (A) (A) (A) (A) (A) (A) (A) (A) (A)
                 (A) (A) (A) (A) (A) (A) (A) (A) (A) (A) (A) (A)
                 (A) (A) (A) (A) (A) (A) (A) (A) (A) (A) (A) (A)
                 (A) (A) (A) (A) (A) (A) (A) (A) (A) (A) (A) (A)
                 (A) (A) (A) (A) (A) (A) (A) (A) (A) (A) (A) (A)
                 (A) (A) (A) (A) (A) (A) (A) (A) (A) (A) (A) (A)
                 (A) (A) (A) (A) (A) (A) (A) (A) (A) (A) (A) (A)
                 (A) (A) (A) (A) (A) (A) (A) (A) (A) (A) (A) (A)
                 (A) (A) (A) (A) (A) (A) (A) (A) (A) (A) (A) (A)
                 (A) (A) (A) (A) (A) (A) (A) (A) (A) (A) (A) (A)
                 (A) (A) (A) (A) (A) (A) (A) (A) (A) (A) (A) (A)
                 (A) (A) (A) (A) (A) (A) (A) (A) (A) (A) (A) (A)
                 (A) (A)
 The electronic state of the initial guess is 1-A.
 Generating alternative initial guess.
 Harris functional with IExCor= 4639 diagonalized for initial guess.
 ExpMin= 2.53D-02 ExpMax= 1.17D+07 ExpMxC= 1.33D+04 IAcc=3 IRadAn=         5 AccDes= 0.00D+00
 HarFok:  IExCor= 4639 AccDes= 0.00D+00 IRadAn=         5 IDoV= 1
 ScaDFX=  1.000000  1.000000  1.000000  1.000000
 FoFCou: FMM=F IPFlag=           0 FMFlag=      100000 FMFlg1=           0
         NFxFlg=           0 DoJE=T BraDBF=F KetDBF=T FulRan=T
         Omega=  0.000000  0.000000  1.000000  0.000000  0.000000 ICntrl=     500 IOpCl=  0
         NMat0=    1 NMatS0=    1 NMatT0=    0 NMatD0=    1 NMtDS0=    0 NMtDT0=    0
         I1Cent=           4 NGrid=           0.
 Petite list used in FoFCou.
 Harris En= -2875.39217587726    
 Leave Link  401 at Thu Apr 16 09:10:36 2020, MaxMem= 1073741824 cpu:       4.5
 (Enter /home/matheus/.gaussian/g09/l502.exe)
 Closed shell SCF:
 Requested convergence on RMS density matrix=1.00D-08 within 128 cycles.
 Requested convergence on MAX density matrix=1.00D-06.
 Requested convergence on             energy=1.00D-06.
 No special actions if energy rises.
 Using DIIS extrapolation, IDIIS=  1040.
 Integral symmetry usage will be decided dynamically.
       126521 words used for storage of precomputed grid.
 IEnd=      305468 IEndB=      305468 NGot=  1073741824 MDV=  1073505667
 LenX=  1073505667 LenY=  1073452785
 Fock matrices will be formed incrementally for  20 cycles.

 Cycle   1  Pass 1  IDiag  1:
 FoFJK:  IHMeth= 1 ICntrl=     0 DoSepK=T KAlg= 1 I1Cent= 0 FoldK=F
 FoFCou: FMM=F IPFlag=           0 FMFlag=      100000 FMFlg1=           0
         NFxFlg=           0 DoJE=T BraDBF=F KetDBF=F FulRan=T
         Omega=  0.000000  0.000000  1.000000  0.000000  0.000000 ICntrl=     500 IOpCl=  0
         NMat0=    1 NMatS0=    1 NMatT0=    0 NMatD0=    1 NMtDS0=    0 NMtDT0=    0
         I1Cent=           0 NGrid=           0.
 Symmetry not used in FoFCou.
 E= -2905.42092118007    
 DIIS: error= 2.42D-03 at cycle   1 NSaved=   1.
 NSaved= 1 IEnMin= 1 EnMin= -2905.42092118007     IErMin= 1 ErrMin= 2.42D-03
 ErrMax= 2.42D-03 EMaxC= 1.00D-01 BMatC= 9.72D-04 BMatP= 9.72D-04
 IDIUse=3 WtCom= 9.76D-01 WtEn= 2.42D-02
 Coeff-Com:  0.100D+01
 Coeff-En:   0.100D+01
 Coeff:      0.100D+01
 Gap=     0.408 Goal=   None    Shift=    0.000
 GapD=    0.408 DampG=2.000 DampE=1.000 DampFc=2.0000 IDamp=-1.
 RMSDP=7.80D-05 MaxDP=1.81D-03              OVMax= 3.37D-03

 Cycle   2  Pass 1  IDiag  1:
 RMSU=  5.52D-05    CP:  1.00D+00
 FoFJK:  IHMeth= 1 ICntrl=     0 DoSepK=T KAlg= 1 I1Cent= 0 FoldK=F
 E= -2905.42107165355     Delta-E=       -0.000150473486 Rises=F Damp=F
 DIIS: error= 1.94D-04 at cycle   2 NSaved=   2.
 NSaved= 2 IEnMin= 2 EnMin= -2905.42107165355     IErMin= 2 ErrMin= 1.94D-04
 ErrMax= 1.94D-04 EMaxC= 1.00D-01 BMatC= 6.99D-06 BMatP= 9.72D-04
 IDIUse=3 WtCom= 9.98D-01 WtEn= 1.94D-03
 Coeff-Com: -0.162D-02 0.100D+01
 Coeff-En:   0.000D+00 0.100D+01
 Coeff:     -0.161D-02 0.100D+01
 Gap=     0.404 Goal=   None    Shift=    0.000
 RMSDP=1.84D-05 MaxDP=6.56D-04 DE=-1.50D-04 OVMax= 1.01D-03

 Cycle   3  Pass 1  IDiag  1:
 RMSU=  1.12D-05    CP:  1.00D+00  1.12D+00
 FoFJK:  IHMeth= 1 ICntrl=     0 DoSepK=T KAlg= 1 I1Cent= 0 FoldK=F
 E= -2905.42107651804     Delta-E=       -0.000004864491 Rises=F Damp=F
 DIIS: error= 1.13D-04 at cycle   3 NSaved=   3.
 NSaved= 3 IEnMin= 3 EnMin= -2905.42107651804     IErMin= 3 ErrMin= 1.13D-04
 ErrMax= 1.13D-04 EMaxC= 1.00D-01 BMatC= 3.98D-06 BMatP= 6.99D-06
 IDIUse=3 WtCom= 9.99D-01 WtEn= 1.13D-03
 Coeff-Com: -0.663D-02 0.424D+00 0.582D+00
 Coeff-En:   0.000D+00 0.000D+00 0.100D+01
 Coeff:     -0.662D-02 0.424D+00 0.583D+00
 Gap=     0.404 Goal=   None    Shift=    0.000
 RMSDP=7.10D-06 MaxDP=2.77D-04 DE=-4.86D-06 OVMax= 3.69D-04

 Cycle   4  Pass 1  IDiag  1:
 RMSU=  3.30D-06    CP:  1.00D+00  1.15D+00  6.95D-01
 FoFJK:  IHMeth= 1 ICntrl=     0 DoSepK=T KAlg= 1 I1Cent= 0 FoldK=F
 E= -2905.42107916750     Delta-E=       -0.000002649451 Rises=F Damp=F
 DIIS: error= 2.32D-05 at cycle   4 NSaved=   4.
 NSaved= 4 IEnMin= 4 EnMin= -2905.42107916750     IErMin= 4 ErrMin= 2.32D-05
 ErrMax= 2.32D-05 EMaxC= 1.00D-01 BMatC= 9.68D-08 BMatP= 3.98D-06
 IDIUse=1 WtCom= 1.00D+00 WtEn= 0.00D+00
 Coeff-Com: -0.531D-03-0.405D-01 0.690D-01 0.972D+00
 Coeff:     -0.531D-03-0.405D-01 0.690D-01 0.972D+00
 Gap=     0.404 Goal=   None    Shift=    0.000
 RMSDP=2.21D-06 MaxDP=8.02D-05 DE=-2.65D-06 OVMax= 1.37D-04

 Cycle   5  Pass 1  IDiag  1:
 RMSU=  8.56D-07    CP:  1.00D+00  1.16D+00  7.75D-01  1.19D+00
 FoFJK:  IHMeth= 1 ICntrl=     0 DoSepK=T KAlg= 1 I1Cent= 0 FoldK=F
 E= -2905.42107926811     Delta-E=       -0.000000100620 Rises=F Damp=F
 DIIS: error= 9.14D-06 at cycle   5 NSaved=   5.
 NSaved= 5 IEnMin= 5 EnMin= -2905.42107926811     IErMin= 5 ErrMin= 9.14D-06
 ErrMax= 9.14D-06 EMaxC= 1.00D-01 BMatC= 2.45D-08 BMatP= 9.68D-08
 IDIUse=1 WtCom= 1.00D+00 WtEn= 0.00D+00
 Coeff-Com:  0.211D-03-0.488D-01-0.802D-02 0.435D+00 0.621D+00
 Coeff:      0.211D-03-0.488D-01-0.802D-02 0.435D+00 0.621D+00
 Gap=     0.404 Goal=   None    Shift=    0.000
 RMSDP=6.10D-07 MaxDP=2.47D-05 DE=-1.01D-07 OVMax= 4.45D-05

 Cycle   6  Pass 1  IDiag  1:
 RMSU=  3.06D-07    CP:  1.00D+00  1.16D+00  7.89D-01  1.26D+00  8.94D-01
 FoFJK:  IHMeth= 1 ICntrl=     0 DoSepK=T KAlg= 1 I1Cent= 0 FoldK=F
 E= -2905.42107928512     Delta-E=       -0.000000017004 Rises=F Damp=F
 DIIS: error= 3.11D-06 at cycle   6 NSaved=   6.
 NSaved= 6 IEnMin= 6 EnMin= -2905.42107928512     IErMin= 6 ErrMin= 3.11D-06
 ErrMax= 3.11D-06 EMaxC= 1.00D-01 BMatC= 3.03D-09 BMatP= 2.45D-08
 IDIUse=1 WtCom= 1.00D+00 WtEn= 0.00D+00
 Coeff-Com:  0.158D-03-0.206D-01-0.101D-01 0.120D+00 0.303D+00 0.607D+00
 Coeff:      0.158D-03-0.206D-01-0.101D-01 0.120D+00 0.303D+00 0.607D+00
 Gap=     0.404 Goal=   None    Shift=    0.000
 RMSDP=1.99D-07 MaxDP=7.07D-06 DE=-1.70D-08 OVMax= 1.39D-05

 Cycle   7  Pass 1  IDiag  1:
 RMSU=  9.15D-08    CP:  1.00D+00  1.16D+00  7.92D-01  1.28D+00  9.72D-01
                    CP:  8.99D-01
 FoFJK:  IHMeth= 1 ICntrl=     0 DoSepK=T KAlg= 1 I1Cent= 0 FoldK=F
 E= -2905.42107928749     Delta-E=       -0.000000002374 Rises=F Damp=F
 DIIS: error= 7.73D-07 at cycle   7 NSaved=   7.
 NSaved= 7 IEnMin= 7 EnMin= -2905.42107928749     IErMin= 7 ErrMin= 7.73D-07
 ErrMax= 7.73D-07 EMaxC= 1.00D-01 BMatC= 1.03D-10 BMatP= 3.03D-09
 IDIUse=1 WtCom= 1.00D+00 WtEn= 0.00D+00
 Coeff-Com: -0.242D-04 0.660D-02 0.159D-02-0.611D-01-0.869D-01 0.225D-01
 Coeff-Com:  0.112D+01
 Coeff:     -0.242D-04 0.660D-02 0.159D-02-0.611D-01-0.869D-01 0.225D-01
 Coeff:      0.112D+01
 Gap=     0.404 Goal=   None    Shift=    0.000
 RMSDP=1.03D-07 MaxDP=3.23D-06 DE=-2.37D-09 OVMax= 8.68D-06

 Cycle   8  Pass 1  IDiag  1:
 RMSU=  2.95D-08    CP:  1.00D+00  1.16D+00  7.95D-01  1.29D+00  1.01D+00
                    CP:  1.03D+00  1.19D+00
 FoFJK:  IHMeth= 1 ICntrl=     0 DoSepK=T KAlg= 1 I1Cent= 0 FoldK=F
 E= -2905.42107928776     Delta-E=       -0.000000000266 Rises=F Damp=F
 DIIS: error= 1.07D-07 at cycle   8 NSaved=   8.
 NSaved= 8 IEnMin= 8 EnMin= -2905.42107928776     IErMin= 8 ErrMin= 1.07D-07
 ErrMax= 1.07D-07 EMaxC= 1.00D-01 BMatC= 3.98D-12 BMatP= 1.03D-10
 IDIUse=1 WtCom= 1.00D+00 WtEn= 0.00D+00
 Coeff-Com: -0.974D-05 0.165D-02 0.596D-03-0.122D-01-0.218D-01-0.186D-01
 Coeff-Com:  0.132D+00 0.919D+00
 Coeff:     -0.974D-05 0.165D-02 0.596D-03-0.122D-01-0.218D-01-0.186D-01
 Coeff:      0.132D+00 0.919D+00
 Gap=     0.404 Goal=   None    Shift=    0.000
 RMSDP=1.72D-08 MaxDP=4.02D-07 DE=-2.66D-10 OVMax= 2.20D-06

 Cycle   9  Pass 1  IDiag  1:
 RMSU=  6.64D-09    CP:  1.00D+00  1.16D+00  7.95D-01  1.29D+00  1.01D+00
                    CP:  1.03D+00  1.24D+00  1.27D+00
 FoFJK:  IHMeth= 1 ICntrl=     0 DoSepK=T KAlg= 1 I1Cent= 0 FoldK=F
 E= -2905.42107928775     Delta-E=        0.000000000010 Rises=F Damp=F
 DIIS: error= 4.62D-08 at cycle   9 NSaved=   9.
 NSaved= 9 IEnMin= 8 EnMin= -2905.42107928776     IErMin= 9 ErrMin= 4.62D-08
 ErrMax= 4.62D-08 EMaxC= 1.00D-01 BMatC= 5.33D-13 BMatP= 3.98D-12
 IDIUse=1 WtCom= 1.00D+00 WtEn= 0.00D+00
 Coeff-Com:  0.268D-05-0.737D-03-0.186D-03 0.692D-02 0.954D-02-0.356D-02
 Coeff-Com: -0.134D+00 0.479D-01 0.107D+01
 Coeff:      0.268D-05-0.737D-03-0.186D-03 0.692D-02 0.954D-02-0.356D-02
 Coeff:     -0.134D+00 0.479D-01 0.107D+01
 Gap=     0.404 Goal=   None    Shift=    0.000
 RMSDP=1.03D-08 MaxDP=2.13D-07 DE= 9.55D-12 OVMax= 1.24D-06

 Cycle  10  Pass 1  IDiag  1:
 RMSU=  2.59D-09    CP:  1.00D+00  1.16D+00  7.95D-01  1.29D+00  1.01D+00
                    CP:  1.03D+00  1.25D+00  1.45D+00  1.33D+00
 FoFJK:  IHMeth= 1 ICntrl=     0 DoSepK=T KAlg= 1 I1Cent= 0 FoldK=F
 E= -2905.42107928778     Delta-E=       -0.000000000032 Rises=F Damp=F
 DIIS: error= 1.46D-08 at cycle  10 NSaved=  10.
 NSaved=10 IEnMin=10 EnMin= -2905.42107928778     IErMin=10 ErrMin= 1.46D-08
 ErrMax= 1.46D-08 EMaxC= 1.00D-01 BMatC= 4.31D-14 BMatP= 5.33D-13
 IDIUse=1 WtCom= 1.00D+00 WtEn= 0.00D+00
 Coeff-Com:  0.648D-06-0.107D-03-0.321D-04 0.726D-03 0.131D-02 0.171D-02
 Coeff-Com: -0.622D-02-0.809D-01 0.142D-01 0.107D+01
 Coeff:      0.648D-06-0.107D-03-0.321D-04 0.726D-03 0.131D-02 0.171D-02
 Coeff:     -0.622D-02-0.809D-01 0.142D-01 0.107D+01
 Gap=     0.404 Goal=   None    Shift=    0.000
 RMSDP=2.63D-09 MaxDP=5.77D-08 DE=-3.23D-11 OVMax= 3.77D-07

 SCF Done:  E(RwB97XD) =  -2905.42107929     A.U. after   10 cycles
             Convg  =    0.2629D-08             -V/T =  2.0015
 KE= 2.900947313343D+03 PE=-7.233349846213D+03 EE= 1.278988666683D+03
 Leave Link  502 at Thu Apr 16 09:11:09 2020, MaxMem= 1073741824 cpu:     264.6
 (Enter /home/matheus/.gaussian/g09/l108.exe)
 Variable Step   Value    
 -------- ---- -----------
     1       2    6.047124
 Leave Link  108 at Thu Apr 16 09:11:09 2020, MaxMem= 1073741824 cpu:       0.0
 (Enter /home/matheus/.gaussian/g09/l202.exe)
 ---------------------------------------------------------------------------------------------------
                            Z-MATRIX (ANGSTROMS AND DEGREES)
   CD    Cent   Atom    N1       Length/X        N2       Alpha/Y        N3        Beta/Z          J
 ---------------------------------------------------------------------------------------------------
      1      1  O        0   0.000000          0.000000          0.725000
      2      2  O        0   0.000000          0.000000         -0.725000
      3      3  H        0   0.314221          0.863315          1.023510
      4      4  H        0   0.000000          0.918721         -1.023510
      5      5  Kr       0   0.000000          3.200000          0.000000
 ---------------------------------------------------------------------------------------------------
                         Z-Matrix orientation:                         
 ---------------------------------------------------------------------
 Center     Atomic      Atomic             Coordinates (Angstroms)
 Number     Number       Type             X           Y           Z
 ---------------------------------------------------------------------
      1          8           0        0.000000    0.000000    0.725000
      2          8           0        0.000000    0.000000   -0.725000
      3          1           0        0.314221    0.863315    1.023510
      4          1           0        0.000000    0.918721   -1.023510
      5         36           0        0.000000    3.200000    0.000000
 ---------------------------------------------------------------------
                    Distance matrix (angstroms):
                    1          2          3          4          5
     1  O    0.000000
     2  O    1.450000   0.000000
     3  H    0.966000   1.975180   0.000000
     4  H    1.975180   0.966000   2.071738   0.000000
     5  Kr   3.281101   3.281101   2.570293   2.500362   0.000000
 Stoichiometry    H2KrO2
 Framework group  C1[X(H2KrO2)]
 Deg. of freedom     9
 Full point group                 C1      NOp   1
 RotChk:  IX=0 Diff= 8.40D-05
 Largest Abelian subgroup         C1      NOp   1
 Largest concise Abelian subgroup C1      NOp   1
                         Standard orientation:                         
 ---------------------------------------------------------------------
 Center     Atomic      Atomic             Coordinates (Angstroms)
 Number     Number       Type             X           Y           Z
 ---------------------------------------------------------------------
      1          8           0        2.166694   -0.723063   -0.035732
      2          8           0        2.165905    0.726247    0.008974
      3          1           0        1.304650   -1.031682    0.272148
      4          1           0        1.247028    1.024017    0.021385
      5         36           0       -1.033680   -0.000495   -0.002207
 ---------------------------------------------------------------------
 Rotational constants (GHZ):     26.5653553      2.0945411      1.9428433
 Leave Link  202 at Thu Apr 16 09:11:09 2020, MaxMem= 1073741824 cpu:       0.0
 (Enter /home/matheus/.gaussian/g09/l301.exe)
 Standard basis: Aug-CC-pVTZ (5D, 7F)
 Ernie: Thresh=  0.10000D-02 Tol=  0.10000D-05 Strict=F.
 Ernie:  38 primitive shells out of 205 were deleted.
 There are   197 symmetry adapted basis functions of A   symmetry.
 Integral buffers will be    131072 words long.
 Raffenetti 2 integral format.
 Two-electron integral symmetry is turned on.
   197 basis functions,   415 primitive gaussians,   229 cartesian basis functions
    27 alpha electrons       27 beta electrons
       nuclear repulsion energy       144.5919639800 Hartrees.
 IExCor= 4639 DFT=T Ex+Corr=wB97XD ExCW=0 ScaHFX=  1.000000
 ScaDFX=  1.000000  1.000000  1.000000  1.000000 ScalE2=  1.000000  1.000000
 IRadAn=      5 IRanWt=     -1 IRanGd=            0 ICorTp=0
  HFx wShort=  0.000000 wLong=  0.250000 cFull=  0.222036 cShort=  0.000000 cLong=  0.777964
  DFx wShort=  0.000000 wLong=  0.250000 cFull=  0.000000 cShort=  0.000000 cLong=  1.000000
 NAtoms=    5 NActive=    5 NUniq=    5 SFac= 1.00D+00 NAtFMM=   60 NAOKFM=F Big=F
 R6Disp: Dispersion energy =        -0.0009446658 Hartrees.
 Nuclear repulsion after empirical dispersion term =      144.5910193142 Hartrees.
 Leave Link  301 at Thu Apr 16 09:11:09 2020, MaxMem= 1073741824 cpu:       0.2
 (Enter /home/matheus/.gaussian/g09/l302.exe)
 NPDir=0 NMtPBC=     1 NCelOv=     1 NCel=       1 NClECP=     1 NCelD=      1
         NCelK=      1 NCelE2=     1 NClLst=     1 CellRange=     0.0.
 One-electron integrals computed using PRISM.
 NBasis=   197 RedAO= T  NBF=   197
 NBsUse=   197 1.00D-06 NBFU=   197
 Precomputing XC quadrature grid using
 IXCGrd= 2 IRadAn=           5 IRanWt=          -1 IRanGd=           0 AccXCQ= 0.00D+00.
 NRdTot=     427 NPtTot=      123512 NUsed=      126579 NTot=      126611
 NSgBfM=   229   229   229   229   229 NAtAll=     5     5.
 Leave Link  302 at Thu Apr 16 09:11:10 2020, MaxMem= 1073741824 cpu:       1.0
 (Enter /home/matheus/.gaussian/g09/l303.exe)
 DipDrv:  MaxL=1.
 Leave Link  303 at Thu Apr 16 09:11:10 2020, MaxMem= 1073741824 cpu:       0.2
 (Enter /home/matheus/.gaussian/g09/l401.exe)
 Initial guess read from the read-write file.
 B after Tr=     0.000000    0.000000    0.000000
         Rot=    1.000000    0.000000    0.000000    0.000000 Ang=   0.00 deg.
 Guess basis will be translated and rotated to current coordinates.
 Initial guess orbital symmetries:
       Occupied  (A) (A) (A) (A) (A) (A) (A) (A) (A) (A) (A) (A)
                 (A) (A) (A) (A) (A) (A) (A) (A) (A) (A) (A) (A)
                 (A) (A) (A)
       Virtual   (A) (A) (A) (A) (A) (A) (A) (A) (A) (A) (A) (A)
                 (A) (A) (A) (A) (A) (A) (A) (A) (A) (A) (A) (A)
                 (A) (A) (A) (A) (A) (A) (A) (A) (A) (A) (A) (A)
                 (A) (A) (A) (A) (A) (A) (A) (A) (A) (A) (A) (A)
                 (A) (A) (A) (A) (A) (A) (A) (A) (A) (A) (A) (A)
                 (A) (A) (A) (A) (A) (A) (A) (A) (A) (A) (A) (A)
                 (A) (A) (A) (A) (A) (A) (A) (A) (A) (A) (A) (A)
                 (A) (A) (A) (A) (A) (A) (A) (A) (A) (A) (A) (A)
                 (A) (A) (A) (A) (A) (A) (A) (A) (A) (A) (A) (A)
                 (A) (A) (A) (A) (A) (A) (A) (A) (A) (A) (A) (A)
                 (A) (A) (A) (A) (A) (A) (A) (A) (A) (A) (A) (A)
                 (A) (A) (A) (A) (A) (A) (A) (A) (A) (A) (A) (A)
                 (A) (A) (A) (A) (A) (A) (A) (A) (A) (A) (A) (A)
                 (A) (A) (A) (A) (A) (A) (A) (A) (A) (A) (A) (A)
                 (A) (A)
 The electronic state of the initial guess is 1-A.
 Generating alternative initial guess.
 Harris functional with IExCor= 4639 diagonalized for initial guess.
 ExpMin= 2.53D-02 ExpMax= 1.17D+07 ExpMxC= 1.33D+04 IAcc=3 IRadAn=         5 AccDes= 0.00D+00
 HarFok:  IExCor= 4639 AccDes= 0.00D+00 IRadAn=         5 IDoV= 1
 ScaDFX=  1.000000  1.000000  1.000000  1.000000
 FoFCou: FMM=F IPFlag=           0 FMFlag=      100000 FMFlg1=           0
         NFxFlg=           0 DoJE=T BraDBF=F KetDBF=T FulRan=T
         Omega=  0.000000  0.000000  1.000000  0.000000  0.000000 ICntrl=     500 IOpCl=  0
         NMat0=    1 NMatS0=    1 NMatT0=    0 NMatD0=    1 NMtDS0=    0 NMtDT0=    0
         I1Cent=           4 NGrid=           0.
 Petite list used in FoFCou.
 Harris En= -2875.39566251486    
 Leave Link  401 at Thu Apr 16 09:11:10 2020, MaxMem= 1073741824 cpu:       4.9
 (Enter /home/matheus/.gaussian/g09/l502.exe)
 Closed shell SCF:
 Requested convergence on RMS density matrix=1.00D-08 within 128 cycles.
 Requested convergence on MAX density matrix=1.00D-06.
 Requested convergence on             energy=1.00D-06.
 No special actions if energy rises.
 Using DIIS extrapolation, IDIIS=  1040.
 Integral symmetry usage will be decided dynamically.
       126521 words used for storage of precomputed grid.
 IEnd=      305468 IEndB=      305468 NGot=  1073741824 MDV=  1073505667
 LenX=  1073505667 LenY=  1073452785
 Fock matrices will be formed incrementally for  20 cycles.

 Cycle   1  Pass 1  IDiag  1:
 FoFJK:  IHMeth= 1 ICntrl=     0 DoSepK=T KAlg= 1 I1Cent= 0 FoldK=F
 FoFCou: FMM=F IPFlag=           0 FMFlag=      100000 FMFlg1=           0
         NFxFlg=           0 DoJE=T BraDBF=F KetDBF=F FulRan=T
         Omega=  0.000000  0.000000  1.000000  0.000000  0.000000 ICntrl=     500 IOpCl=  0
         NMat0=    1 NMatS0=    1 NMatT0=    0 NMatD0=    1 NMtDS0=    0 NMtDT0=    0
         I1Cent=           0 NGrid=           0.
 Symmetry not used in FoFCou.
 E= -2905.42262584603    
 DIIS: error= 2.20D-03 at cycle   1 NSaved=   1.
 NSaved= 1 IEnMin= 1 EnMin= -2905.42262584603     IErMin= 1 ErrMin= 2.20D-03
 ErrMax= 2.20D-03 EMaxC= 1.00D-01 BMatC= 7.79D-04 BMatP= 7.79D-04
 IDIUse=3 WtCom= 9.78D-01 WtEn= 2.20D-02
 Coeff-Com:  0.100D+01
 Coeff-En:   0.100D+01
 Coeff:      0.100D+01
 Gap=     0.408 Goal=   None    Shift=    0.000
 GapD=    0.408 DampG=2.000 DampE=1.000 DampFc=2.0000 IDamp=-1.
 RMSDP=7.40D-05 MaxDP=1.59D-03              OVMax= 3.09D-03

 Cycle   2  Pass 1  IDiag  1:
 RMSU=  5.23D-05    CP:  1.00D+00
 FoFJK:  IHMeth= 1 ICntrl=     0 DoSepK=T KAlg= 1 I1Cent= 0 FoldK=F
 E= -2905.42274163165     Delta-E=       -0.000115785612 Rises=F Damp=F
 DIIS: error= 1.64D-04 at cycle   2 NSaved=   2.
 NSaved= 2 IEnMin= 2 EnMin= -2905.42274163165     IErMin= 2 ErrMin= 1.64D-04
 ErrMax= 1.64D-04 EMaxC= 1.00D-01 BMatC= 4.47D-06 BMatP= 7.79D-04
 IDIUse=3 WtCom= 9.98D-01 WtEn= 1.64D-03
 Coeff-Com: -0.376D-02 0.100D+01
 Coeff-En:   0.000D+00 0.100D+01
 Coeff:     -0.375D-02 0.100D+01
 Gap=     0.404 Goal=   None    Shift=    0.000
 RMSDP=1.57D-05 MaxDP=5.01D-04 DE=-1.16D-04 OVMax= 8.63D-04

 Cycle   3  Pass 1  IDiag  1:
 RMSU=  8.96D-06    CP:  1.00D+00  1.13D+00
 FoFJK:  IHMeth= 1 ICntrl=     0 DoSepK=T KAlg= 1 I1Cent= 0 FoldK=F
 E= -2905.42274525676     Delta-E=       -0.000003625111 Rises=F Damp=F
 DIIS: error= 9.12D-05 at cycle   3 NSaved=   3.
 NSaved= 3 IEnMin= 3 EnMin= -2905.42274525676     IErMin= 3 ErrMin= 9.12D-05
 ErrMax= 9.12D-05 EMaxC= 1.00D-01 BMatC= 2.36D-06 BMatP= 4.47D-06
 IDIUse=1 WtCom= 1.00D+00 WtEn= 0.00D+00
 Coeff-Com: -0.617D-02 0.412D+00 0.594D+00
 Coeff:     -0.617D-02 0.412D+00 0.594D+00
 Gap=     0.405 Goal=   None    Shift=    0.000
 RMSDP=5.69D-06 MaxDP=2.17D-04 DE=-3.63D-06 OVMax= 2.94D-04

 Cycle   4  Pass 1  IDiag  1:
 RMSU=  2.88D-06    CP:  1.00D+00  1.15D+00  7.34D-01
 FoFJK:  IHMeth= 1 ICntrl=     0 DoSepK=T KAlg= 1 I1Cent= 0 FoldK=F
 E= -2905.42274685108     Delta-E=       -0.000001594321 Rises=F Damp=F
 DIIS: error= 2.01D-05 at cycle   4 NSaved=   4.
 NSaved= 4 IEnMin= 4 EnMin= -2905.42274685108     IErMin= 4 ErrMin= 2.01D-05
 ErrMax= 2.01D-05 EMaxC= 1.00D-01 BMatC= 7.63D-08 BMatP= 2.36D-06
 IDIUse=1 WtCom= 1.00D+00 WtEn= 0.00D+00
 Coeff-Com: -0.346D-03-0.509D-01 0.801D-01 0.971D+00
 Coeff:     -0.346D-03-0.509D-01 0.801D-01 0.971D+00
 Gap=     0.405 Goal=   None    Shift=    0.000
 RMSDP=2.06D-06 MaxDP=7.03D-05 DE=-1.59D-06 OVMax= 1.23D-04

 Cycle   5  Pass 1  IDiag  1:
 RMSU=  7.16D-07    CP:  1.00D+00  1.17D+00  8.34D-01  1.19D+00
 FoFJK:  IHMeth= 1 ICntrl=     0 DoSepK=T KAlg= 1 I1Cent= 0 FoldK=F
 E= -2905.42274693125     Delta-E=       -0.000000080167 Rises=F Damp=F
 DIIS: error= 7.19D-06 at cycle   5 NSaved=   5.
 NSaved= 5 IEnMin= 5 EnMin= -2905.42274693125     IErMin= 5 ErrMin= 7.19D-06
 ErrMax= 7.19D-06 EMaxC= 1.00D-01 BMatC= 1.62D-08 BMatP= 7.63D-08
 IDIUse=1 WtCom= 1.00D+00 WtEn= 0.00D+00
 Coeff-Com:  0.233D-03-0.500D-01-0.800D-03 0.427D+00 0.623D+00
 Coeff:      0.233D-03-0.500D-01-0.800D-03 0.427D+00 0.623D+00
 Gap=     0.405 Goal=   None    Shift=    0.000
 RMSDP=5.11D-07 MaxDP=2.03D-05 DE=-8.02D-08 OVMax= 3.74D-05

 Cycle   6  Pass 1  IDiag  1:
 RMSU=  2.50D-07    CP:  1.00D+00  1.17D+00  8.50D-01  1.26D+00  8.97D-01
 FoFJK:  IHMeth= 1 ICntrl=     0 DoSepK=T KAlg= 1 I1Cent= 0 FoldK=F
 E= -2905.42274694278     Delta-E=       -0.000000011537 Rises=F Damp=F
 DIIS: error= 2.71D-06 at cycle   6 NSaved=   6.
 NSaved= 6 IEnMin= 6 EnMin= -2905.42274694278     IErMin= 6 ErrMin= 2.71D-06
 ErrMax= 2.71D-06 EMaxC= 1.00D-01 BMatC= 2.13D-09 BMatP= 1.62D-08
 IDIUse=1 WtCom= 1.00D+00 WtEn= 0.00D+00
 Coeff-Com:  0.151D-03-0.197D-01-0.776D-02 0.110D+00 0.303D+00 0.614D+00
 Coeff:      0.151D-03-0.197D-01-0.776D-02 0.110D+00 0.303D+00 0.614D+00
 Gap=     0.405 Goal=   None    Shift=    0.000
 RMSDP=1.69D-07 MaxDP=5.92D-06 DE=-1.15D-08 OVMax= 1.20D-05

 Cycle   7  Pass 1  IDiag  1:
 RMSU=  7.53D-08    CP:  1.00D+00  1.17D+00  8.54D-01  1.27D+00  9.74D-01
                    CP:  8.85D-01
 FoFJK:  IHMeth= 1 ICntrl=     0 DoSepK=T KAlg= 1 I1Cent= 0 FoldK=F
 E= -2905.42274694448     Delta-E=       -0.000000001693 Rises=F Damp=F
 DIIS: error= 7.13D-07 at cycle   7 NSaved=   7.
 NSaved= 7 IEnMin= 7 EnMin= -2905.42274694448     IErMin= 7 ErrMin= 7.13D-07
 ErrMax= 7.13D-07 EMaxC= 1.00D-01 BMatC= 7.93D-11 BMatP= 2.13D-09
 IDIUse=1 WtCom= 1.00D+00 WtEn= 0.00D+00
 Coeff-Com: -0.270D-04 0.698D-02 0.425D-03-0.631D-01-0.862D-01 0.386D-01
 Coeff-Com:  0.110D+01
 Coeff:     -0.270D-04 0.698D-02 0.425D-03-0.631D-01-0.862D-01 0.386D-01
 Coeff:      0.110D+01
 Gap=     0.405 Goal=   None    Shift=    0.000
 RMSDP=8.55D-08 MaxDP=2.78D-06 DE=-1.69D-09 OVMax= 7.30D-06

 Cycle   8  Pass 1  IDiag  1:
 RMSU=  2.53D-08    CP:  1.00D+00  1.17D+00  8.56D-01  1.28D+00  1.01D+00
                    CP:  1.01D+00  1.19D+00
 FoFJK:  IHMeth= 1 ICntrl=     0 DoSepK=T KAlg= 1 I1Cent= 0 FoldK=F
 E= -2905.42274694463     Delta-E=       -0.000000000155 Rises=F Damp=F
 DIIS: error= 1.01D-07 at cycle   8 NSaved=   8.
 NSaved= 8 IEnMin= 8 EnMin= -2905.42274694463     IErMin= 8 ErrMin= 1.01D-07
 ErrMax= 1.01D-07 EMaxC= 1.00D-01 BMatC= 2.39D-12 BMatP= 7.93D-11
 IDIUse=1 WtCom= 1.00D+00 WtEn= 0.00D+00
 Coeff-Com: -0.793D-05 0.131D-02 0.284D-03-0.938D-02-0.172D-01-0.151D-01
 Coeff-Com:  0.947D-01 0.945D+00
 Coeff:     -0.793D-05 0.131D-02 0.284D-03-0.938D-02-0.172D-01-0.151D-01
 Coeff:      0.947D-01 0.945D+00
 Gap=     0.405 Goal=   None    Shift=    0.000
 RMSDP=1.47D-08 MaxDP=3.50D-07 DE=-1.55D-10 OVMax= 1.83D-06

 Cycle   9  Pass 1  IDiag  1:
 RMSU=  5.21D-09    CP:  1.00D+00  1.17D+00  8.56D-01  1.28D+00  1.01D+00
                    CP:  1.02D+00  1.24D+00  1.27D+00
 FoFJK:  IHMeth= 1 ICntrl=     0 DoSepK=T KAlg= 1 I1Cent= 0 FoldK=F
 E= -2905.42274694464     Delta-E=       -0.000000000006 Rises=F Damp=F
 DIIS: error= 4.17D-08 at cycle   9 NSaved=   9.
 NSaved= 9 IEnMin= 9 EnMin= -2905.42274694464     IErMin= 9 ErrMin= 4.17D-08
 ErrMax= 4.17D-08 EMaxC= 1.00D-01 BMatC= 3.49D-13 BMatP= 2.39D-12
 IDIUse=1 WtCom= 1.00D+00 WtEn= 0.00D+00
 Coeff-Com:  0.283D-05-0.754D-03-0.497D-04 0.696D-02 0.905D-02-0.594D-02
 Coeff-Com: -0.129D+00 0.783D-01 0.104D+01
 Coeff:      0.283D-05-0.754D-03-0.497D-04 0.696D-02 0.905D-02-0.594D-02
 Coeff:     -0.129D+00 0.783D-01 0.104D+01
 Gap=     0.405 Goal=   None    Shift=    0.000
 RMSDP=7.95D-09 MaxDP=1.79D-07 DE=-6.37D-12 OVMax= 9.80D-07

 SCF Done:  E(RwB97XD) =  -2905.42274694     A.U. after    9 cycles
             Convg  =    0.7953D-08             -V/T =  2.0015
 KE= 2.900936290585D+03 PE=-7.226587904562D+03 EE= 1.275637847718D+03
 Leave Link  502 at Thu Apr 16 09:11:41 2020, MaxMem= 1073741824 cpu:     243.8
 (Enter /home/matheus/.gaussian/g09/l108.exe)
 Variable Step   Value    
 -------- ---- -----------
     1       3    6.236096
 Leave Link  108 at Thu Apr 16 09:11:41 2020, MaxMem= 1073741824 cpu:       0.0
 (Enter /home/matheus/.gaussian/g09/l202.exe)
 ---------------------------------------------------------------------------------------------------
                            Z-MATRIX (ANGSTROMS AND DEGREES)
   CD    Cent   Atom    N1       Length/X        N2       Alpha/Y        N3        Beta/Z          J
 ---------------------------------------------------------------------------------------------------
      1      1  O        0   0.000000          0.000000          0.725000
      2      2  O        0   0.000000          0.000000         -0.725000
      3      3  H        0   0.314221          0.863315          1.023510
      4      4  H        0   0.000000          0.918721         -1.023510
      5      5  Kr       0   0.000000          3.300000          0.000000
 ---------------------------------------------------------------------------------------------------
                         Z-Matrix orientation:                         
 ---------------------------------------------------------------------
 Center     Atomic      Atomic             Coordinates (Angstroms)
 Number     Number       Type             X           Y           Z
 ---------------------------------------------------------------------
      1          8           0        0.000000    0.000000    0.725000
      2          8           0        0.000000    0.000000   -0.725000
      3          1           0        0.314221    0.863315    1.023510
      4          1           0        0.000000    0.918721   -1.023510
      5         36           0        0.000000    3.300000    0.000000
 ---------------------------------------------------------------------
                    Distance matrix (angstroms):
                    1          2          3          4          5
     1  O    0.000000
     2  O    1.450000   0.000000
     3  H    0.966000   1.975180   0.000000
     4  H    1.975180   0.966000   2.071738   0.000000
     5  Kr   3.378702   3.378702   2.661530   2.591923   0.000000
 Stoichiometry    H2KrO2
 Framework group  C1[X(H2KrO2)]
 Deg. of freedom     9
 Full point group                 C1      NOp   1
 RotChk:  IX=0 Diff= 8.18D-05
 Largest Abelian subgroup         C1      NOp   1
 Largest concise Abelian subgroup C1      NOp   1
                         Standard orientation:                         
 ---------------------------------------------------------------------
 Center     Atomic      Atomic             Coordinates (Angstroms)
 Number     Number       Type             X           Y           Z
 ---------------------------------------------------------------------
      1          8           0        2.233335   -0.723104   -0.035867
      2          8           0        2.232599    0.726207    0.008840
      3          1           0        1.371265   -1.031690    0.271975
      4          1           0        1.313732    1.024011    0.021210
      5         36           0       -1.067013   -0.000476   -0.002138
 ---------------------------------------------------------------------
 Rotational constants (GHZ):     26.5653962      1.9683126      1.8337606
 Leave Link  202 at Thu Apr 16 09:11:41 2020, MaxMem= 1073741824 cpu:       0.0
 (Enter /home/matheus/.gaussian/g09/l301.exe)
 Standard basis: Aug-CC-pVTZ (5D, 7F)
 Ernie: Thresh=  0.10000D-02 Tol=  0.10000D-05 Strict=F.
 Ernie:  38 primitive shells out of 205 were deleted.
 There are   197 symmetry adapted basis functions of A   symmetry.
 Integral buffers will be    131072 words long.
 Raffenetti 2 integral format.
 Two-electron integral symmetry is turned on.
   197 basis functions,   415 primitive gaussians,   229 cartesian basis functions
    27 alpha electrons       27 beta electrons
       nuclear repulsion energy       141.3852136713 Hartrees.
 IExCor= 4639 DFT=T Ex+Corr=wB97XD ExCW=0 ScaHFX=  1.000000
 ScaDFX=  1.000000  1.000000  1.000000  1.000000 ScalE2=  1.000000  1.000000
 IRadAn=      5 IRanWt=     -1 IRanGd=            0 ICorTp=0
  HFx wShort=  0.000000 wLong=  0.250000 cFull=  0.222036 cShort=  0.000000 cLong=  0.777964
  DFx wShort=  0.000000 wLong=  0.250000 cFull=  0.000000 cShort=  0.000000 cLong=  1.000000
 NAtoms=    5 NActive=    5 NUniq=    5 SFac= 1.00D+00 NAtFMM=   60 NAOKFM=F Big=F
 R6Disp: Dispersion energy =        -0.0010252503 Hartrees.
 Nuclear repulsion after empirical dispersion term =      141.3841884209 Hartrees.
 Leave Link  301 at Thu Apr 16 09:11:41 2020, MaxMem= 1073741824 cpu:       0.2
 (Enter /home/matheus/.gaussian/g09/l302.exe)
 NPDir=0 NMtPBC=     1 NCelOv=     1 NCel=       1 NClECP=     1 NCelD=      1
         NCelK=      1 NCelE2=     1 NClLst=     1 CellRange=     0.0.
 One-electron integrals computed using PRISM.
 NBasis=   197 RedAO= T  NBF=   197
 NBsUse=   197 1.00D-06 NBFU=   197
 Precomputing XC quadrature grid using
 IXCGrd= 2 IRadAn=           5 IRanWt=          -1 IRanGd=           0 AccXCQ= 0.00D+00.
 NRdTot=     427 NPtTot=      123512 NUsed=      126579 NTot=      126611
 NSgBfM=   229   229   229   229   229 NAtAll=     5     5.
 Leave Link  302 at Thu Apr 16 09:11:41 2020, MaxMem= 1073741824 cpu:       1.0
 (Enter /home/matheus/.gaussian/g09/l303.exe)
 DipDrv:  MaxL=1.
 Leave Link  303 at Thu Apr 16 09:11:41 2020, MaxMem= 1073741824 cpu:       0.2
 (Enter /home/matheus/.gaussian/g09/l401.exe)
 Initial guess read from the read-write file.
 B after Tr=     0.000000    0.000000    0.000000
         Rot=    1.000000    0.000000    0.000000    0.000000 Ang=   0.00 deg.
 Guess basis will be translated and rotated to current coordinates.
 Initial guess orbital symmetries:
       Occupied  (A) (A) (A) (A) (A) (A) (A) (A) (A) (A) (A) (A)
                 (A) (A) (A) (A) (A) (A) (A) (A) (A) (A) (A) (A)
                 (A) (A) (A)
       Virtual   (A) (A) (A) (A) (A) (A) (A) (A) (A) (A) (A) (A)
                 (A) (A) (A) (A) (A) (A) (A) (A) (A) (A) (A) (A)
                 (A) (A) (A) (A) (A) (A) (A) (A) (A) (A) (A) (A)
                 (A) (A) (A) (A) (A) (A) (A) (A) (A) (A) (A) (A)
                 (A) (A) (A) (A) (A) (A) (A) (A) (A) (A) (A) (A)
                 (A) (A) (A) (A) (A) (A) (A) (A) (A) (A) (A) (A)
                 (A) (A) (A) (A) (A) (A) (A) (A) (A) (A) (A) (A)
                 (A) (A) (A) (A) (A) (A) (A) (A) (A) (A) (A) (A)
                 (A) (A) (A) (A) (A) (A) (A) (A) (A) (A) (A) (A)
                 (A) (A) (A) (A) (A) (A) (A) (A) (A) (A) (A) (A)
                 (A) (A) (A) (A) (A) (A) (A) (A) (A) (A) (A) (A)
                 (A) (A) (A) (A) (A) (A) (A) (A) (A) (A) (A) (A)
                 (A) (A) (A) (A) (A) (A) (A) (A) (A) (A) (A) (A)
                 (A) (A) (A) (A) (A) (A) (A) (A) (A) (A) (A) (A)
                 (A) (A)
 The electronic state of the initial guess is 1-A.
 Generating alternative initial guess.
 Harris functional with IExCor= 4639 diagonalized for initial guess.
 ExpMin= 2.53D-02 ExpMax= 1.17D+07 ExpMxC= 1.33D+04 IAcc=3 IRadAn=         5 AccDes= 0.00D+00
 HarFok:  IExCor= 4639 AccDes= 0.00D+00 IRadAn=         5 IDoV= 1
 ScaDFX=  1.000000  1.000000  1.000000  1.000000
 FoFCou: FMM=F IPFlag=           0 FMFlag=      100000 FMFlg1=           0
         NFxFlg=           0 DoJE=T BraDBF=F KetDBF=T FulRan=T
         Omega=  0.000000  0.000000  1.000000  0.000000  0.000000 ICntrl=     500 IOpCl=  0
         NMat0=    1 NMatS0=    1 NMatT0=    0 NMatD0=    1 NMtDS0=    0 NMtDT0=    0
         I1Cent=           4 NGrid=           0.
 Petite list used in FoFCou.
 Harris En= -2875.39820365258    
 Leave Link  401 at Thu Apr 16 09:11:42 2020, MaxMem= 1073741824 cpu:       4.5
 (Enter /home/matheus/.gaussian/g09/l502.exe)
 Closed shell SCF:
 Requested convergence on RMS density matrix=1.00D-08 within 128 cycles.
 Requested convergence on MAX density matrix=1.00D-06.
 Requested convergence on             energy=1.00D-06.
 No special actions if energy rises.
 Using DIIS extrapolation, IDIIS=  1040.
 Integral symmetry usage will be decided dynamically.
       126521 words used for storage of precomputed grid.
 IEnd=      305468 IEndB=      305468 NGot=  1073741824 MDV=  1073505667
 LenX=  1073505667 LenY=  1073452785
 Fock matrices will be formed incrementally for  20 cycles.

 Cycle   1  Pass 1  IDiag  1:
 FoFJK:  IHMeth= 1 ICntrl=     0 DoSepK=T KAlg= 1 I1Cent= 0 FoldK=F
 FoFCou: FMM=F IPFlag=           0 FMFlag=      100000 FMFlg1=           0
         NFxFlg=           0 DoJE=T BraDBF=F KetDBF=F FulRan=T
         Omega=  0.000000  0.000000  1.000000  0.000000  0.000000 ICntrl=     500 IOpCl=  0
         NMat0=    1 NMatS0=    1 NMatT0=    0 NMatD0=    1 NMtDS0=    0 NMtDT0=    0
         I1Cent=           0 NGrid=           0.
 Symmetry not used in FoFCou.
 E= -2905.42372593418    
 DIIS: error= 1.49D-03 at cycle   1 NSaved=   1.
 NSaved= 1 IEnMin= 1 EnMin= -2905.42372593418     IErMin= 1 ErrMin= 1.49D-03
 ErrMax= 1.49D-03 EMaxC= 1.00D-01 BMatC= 6.01D-04 BMatP= 6.01D-04
 IDIUse=3 WtCom= 9.85D-01 WtEn= 1.49D-02
 Coeff-Com:  0.100D+01
 Coeff-En:   0.100D+01
 Coeff:      0.100D+01
 Gap=     0.408 Goal=   None    Shift=    0.000
 GapD=    0.408 DampG=2.000 DampE=1.000 DampFc=2.0000 IDamp=-1.
 RMSDP=6.89D-05 MaxDP=1.76D-03              OVMax= 2.74D-03

 Cycle   2  Pass 1  IDiag  1:
 RMSU=  4.87D-05    CP:  1.00D+00
 FoFJK:  IHMeth= 1 ICntrl=     0 DoSepK=T KAlg= 1 I1Cent= 0 FoldK=F
 E= -2905.42381466185     Delta-E=       -0.000088727671 Rises=F Damp=F
 DIIS: error= 1.39D-04 at cycle   2 NSaved=   2.
 NSaved= 2 IEnMin= 2 EnMin= -2905.42381466185     IErMin= 2 ErrMin= 1.39D-04
 ErrMax= 1.39D-04 EMaxC= 1.00D-01 BMatC= 2.88D-06 BMatP= 6.01D-04
 IDIUse=3 WtCom= 9.99D-01 WtEn= 1.39D-03
 Coeff-Com: -0.541D-02 0.101D+01
 Coeff-En:   0.000D+00 0.100D+01
 Coeff:     -0.540D-02 0.101D+01
 Gap=     0.405 Goal=   None    Shift=    0.000
 RMSDP=1.36D-05 MaxDP=4.03D-04 DE=-8.87D-05 OVMax= 7.29D-04

 Cycle   3  Pass 1  IDiag  1:
 RMSU=  7.29D-06    CP:  1.00D+00  1.13D+00
 FoFJK:  IHMeth= 1 ICntrl=     0 DoSepK=T KAlg= 1 I1Cent= 0 FoldK=F
 E= -2905.42381738383     Delta-E=       -0.000002721980 Rises=F Damp=F
 DIIS: error= 7.20D-05 at cycle   3 NSaved=   3.
 NSaved= 3 IEnMin= 3 EnMin= -2905.42381738383     IErMin= 3 ErrMin= 7.20D-05
 ErrMax= 7.20D-05 EMaxC= 1.00D-01 BMatC= 1.39D-06 BMatP= 2.88D-06
 IDIUse=1 WtCom= 1.00D+00 WtEn= 0.00D+00
 Coeff-Com: -0.589D-02 0.397D+00 0.609D+00
 Coeff:     -0.589D-02 0.397D+00 0.609D+00
 Gap=     0.405 Goal=   None    Shift=    0.000
 RMSDP=4.58D-06 MaxDP=1.75D-04 DE=-2.72D-06 OVMax= 2.33D-04

 Cycle   4  Pass 1  IDiag  1:
 RMSU=  2.57D-06    CP:  1.00D+00  1.15D+00  7.89D-01
 FoFJK:  IHMeth= 1 ICntrl=     0 DoSepK=T KAlg= 1 I1Cent= 0 FoldK=F
 E= -2905.42381833720     Delta-E=       -0.000000953365 Rises=F Damp=F
 DIIS: error= 1.71D-05 at cycle   4 NSaved=   4.
 NSaved= 4 IEnMin= 4 EnMin= -2905.42381833720     IErMin= 4 ErrMin= 1.71D-05
 ErrMax= 1.71D-05 EMaxC= 1.00D-01 BMatC= 6.68D-08 BMatP= 1.39D-06
 IDIUse=1 WtCom= 1.00D+00 WtEn= 0.00D+00
 Coeff-Com: -0.329D-03-0.518D-01 0.110D+00 0.942D+00
 Coeff:     -0.329D-03-0.518D-01 0.110D+00 0.942D+00
 Gap=     0.405 Goal=   None    Shift=    0.000
 RMSDP=1.88D-06 MaxDP=6.48D-05 DE=-9.53D-07 OVMax= 1.04D-04

 Cycle   5  Pass 1  IDiag  1:
 RMSU=  6.30D-07    CP:  1.00D+00  1.17D+00  9.10D-01  1.17D+00
 FoFJK:  IHMeth= 1 ICntrl=     0 DoSepK=T KAlg= 1 I1Cent= 0 FoldK=F
 E= -2905.42381840175     Delta-E=       -0.000000064555 Rises=F Damp=F
 DIIS: error= 7.68D-06 at cycle   5 NSaved=   5.
 NSaved= 5 IEnMin= 5 EnMin= -2905.42381840175     IErMin= 5 ErrMin= 7.68D-06
 ErrMax= 7.68D-06 EMaxC= 1.00D-01 BMatC= 1.52D-08 BMatP= 6.68D-08
 IDIUse=1 WtCom= 1.00D+00 WtEn= 0.00D+00
 Coeff-Com:  0.247D-03-0.531D-01 0.117D-01 0.442D+00 0.599D+00
 Coeff:      0.247D-03-0.531D-01 0.117D-01 0.442D+00 0.599D+00
 Gap=     0.405 Goal=   None    Shift=    0.000
 RMSDP=4.74D-07 MaxDP=2.01D-05 DE=-6.46D-08 OVMax= 3.51D-05

 Cycle   6  Pass 1  IDiag  1:
 RMSU=  2.24D-07    CP:  1.00D+00  1.17D+00  9.30D-01  1.23D+00  8.60D-01
 FoFJK:  IHMeth= 1 ICntrl=     0 DoSepK=T KAlg= 1 I1Cent= 0 FoldK=F
 E= -2905.42381841250     Delta-E=       -0.000000010749 Rises=F Damp=F
 DIIS: error= 2.39D-06 at cycle   6 NSaved=   6.
 NSaved= 6 IEnMin= 6 EnMin= -2905.42381841250     IErMin= 6 ErrMin= 2.39D-06
 ErrMax= 2.39D-06 EMaxC= 1.00D-01 BMatC= 1.52D-09 BMatP= 1.52D-08
 IDIUse=1 WtCom= 1.00D+00 WtEn= 0.00D+00
 Coeff-Com:  0.150D-03-0.192D-01-0.551D-02 0.101D+00 0.274D+00 0.650D+00
 Coeff:      0.150D-03-0.192D-01-0.551D-02 0.101D+00 0.274D+00 0.650D+00
 Gap=     0.405 Goal=   None    Shift=    0.000
 RMSDP=1.52D-07 MaxDP=4.57D-06 DE=-1.07D-08 OVMax= 1.05D-05

 Cycle   7  Pass 1  IDiag  1:
 RMSU=  6.49D-08    CP:  1.00D+00  1.17D+00  9.35D-01  1.25D+00  9.36D-01
                    CP:  9.01D-01
 FoFJK:  IHMeth= 1 ICntrl=     0 DoSepK=T KAlg= 1 I1Cent= 0 FoldK=F
 E= -2905.42381841378     Delta-E=       -0.000000001280 Rises=F Damp=F
 DIIS: error= 6.53D-07 at cycle   7 NSaved=   7.
 NSaved= 7 IEnMin= 7 EnMin= -2905.42381841378     IErMin= 7 ErrMin= 6.53D-07
 ErrMax= 6.53D-07 EMaxC= 1.00D-01 BMatC= 5.60D-11 BMatP= 1.52D-09
 IDIUse=1 WtCom= 1.00D+00 WtEn= 0.00D+00
 Coeff-Com: -0.301D-04 0.736D-02-0.118D-02-0.633D-01-0.824D-01 0.258D-01
 Coeff-Com:  0.111D+01
 Coeff:     -0.301D-04 0.736D-02-0.118D-02-0.633D-01-0.824D-01 0.258D-01
 Coeff:      0.111D+01
 Gap=     0.405 Goal=   None    Shift=    0.000
 RMSDP=7.25D-08 MaxDP=2.44D-06 DE=-1.28D-09 OVMax= 6.43D-06

 Cycle   8  Pass 1  IDiag  1:
 RMSU=  2.18D-08    CP:  1.00D+00  1.17D+00  9.38D-01  1.26D+00  9.72D-01
                    CP:  1.02D+00  1.22D+00
 FoFJK:  IHMeth= 1 ICntrl=     0 DoSepK=T KAlg= 1 I1Cent= 0 FoldK=F
 E= -2905.42381841391     Delta-E=       -0.000000000133 Rises=F Damp=F
 DIIS: error= 8.68D-08 at cycle   8 NSaved=   8.
 NSaved= 8 IEnMin= 8 EnMin= -2905.42381841391     IErMin= 8 ErrMin= 8.68D-08
 ErrMax= 8.68D-08 EMaxC= 1.00D-01 BMatC= 1.39D-12 BMatP= 5.60D-11
 IDIUse=1 WtCom= 1.00D+00 WtEn= 0.00D+00
 Coeff-Com: -0.505D-05 0.681D-03 0.996D-04-0.388D-02-0.863D-02-0.163D-01
 Coeff-Com:  0.154D-01 0.101D+01
 Coeff:     -0.505D-05 0.681D-03 0.996D-04-0.388D-02-0.863D-02-0.163D-01
 Coeff:      0.154D-01 0.101D+01
 Gap=     0.405 Goal=   None    Shift=    0.000
 RMSDP=1.36D-08 MaxDP=3.54D-07 DE=-1.33D-10 OVMax= 1.64D-06

 Cycle   9  Pass 1  IDiag  1:
 RMSU=  4.08D-09    CP:  1.00D+00  1.17D+00  9.38D-01  1.25D+00  9.70D-01
                    CP:  1.03D+00  1.27D+00  1.29D+00
 FoFJK:  IHMeth= 1 ICntrl=     0 DoSepK=T KAlg= 1 I1Cent= 0 FoldK=F
 E= -2905.42381841392     Delta-E=       -0.000000000006 Rises=F Damp=F
 DIIS: error= 3.69D-08 at cycle   9 NSaved=   9.
 NSaved= 9 IEnMin= 9 EnMin= -2905.42381841392     IErMin= 9 ErrMin= 3.69D-08
 ErrMax= 3.69D-08 EMaxC= 1.00D-01 BMatC= 2.17D-13 BMatP= 1.39D-12
 IDIUse=1 WtCom= 1.00D+00 WtEn= 0.00D+00
 Coeff-Com:  0.300D-05-0.769D-03 0.126D-03 0.678D-02 0.835D-02-0.485D-02
 Coeff-Com: -0.127D+00 0.110D+00 0.101D+01
 Coeff:      0.300D-05-0.769D-03 0.126D-03 0.678D-02 0.835D-02-0.485D-02
 Coeff:     -0.127D+00 0.110D+00 0.101D+01
 Gap=     0.405 Goal=   None    Shift=    0.000
 RMSDP=5.89D-09 MaxDP=1.40D-07 DE=-6.37D-12 OVMax= 7.78D-07

 SCF Done:  E(RwB97XD) =  -2905.42381841     A.U. after    9 cycles
             Convg  =    0.5893D-08             -V/T =  2.0015
 KE= 2.900929804977D+03 PE=-7.220219333454D+03 EE= 1.272481521642D+03
 Leave Link  502 at Thu Apr 16 09:12:11 2020, MaxMem= 1073741824 cpu:     235.2
 (Enter /home/matheus/.gaussian/g09/l108.exe)
 Variable Step   Value    
 -------- ---- -----------
     1       4    6.425069
 Leave Link  108 at Thu Apr 16 09:12:11 2020, MaxMem= 1073741824 cpu:       0.0
 (Enter /home/matheus/.gaussian/g09/l202.exe)
 ---------------------------------------------------------------------------------------------------
                            Z-MATRIX (ANGSTROMS AND DEGREES)
   CD    Cent   Atom    N1       Length/X        N2       Alpha/Y        N3        Beta/Z          J
 ---------------------------------------------------------------------------------------------------
      1      1  O        0   0.000000          0.000000          0.725000
      2      2  O        0   0.000000          0.000000         -0.725000
      3      3  H        0   0.314221          0.863315          1.023510
      4      4  H        0   0.000000          0.918721         -1.023510
      5      5  Kr       0   0.000000          3.400000          0.000000
 ---------------------------------------------------------------------------------------------------
[...]
 IDIUse=1 WtCom= 1.00D+00 WtEn= 0.00D+00
 Coeff-Com:  0.575D-02 0.994D+00
 Coeff:      0.575D-02 0.994D+00
 Gap=     0.402 Goal=   None    Shift=    0.000
 RMSDP=1.89D-06 MaxDP=5.51D-05 DE=-1.40D-06 OVMax= 1.30D-04

 Cycle   3  Pass 1  IDiag  1:
 RMSU=  9.97D-07    CP:  1.00D+00  1.09D+00
 FoFJK:  IHMeth= 1 ICntrl=     0 DoSepK=T KAlg= 1 I1Cent= 0 FoldK=F
 E= -2905.42382700294     Delta-E=       -0.000000061215 Rises=F Damp=F
 DIIS: error= 9.09D-06 at cycle   3 NSaved=   3.
 NSaved= 3 IEnMin= 3 EnMin= -2905.42382700294     IErMin= 3 ErrMin= 9.09D-06
 ErrMax= 9.09D-06 EMaxC= 1.00D-01 BMatC= 9.33D-09 BMatP= 5.41D-08
 IDIUse=1 WtCom= 1.00D+00 WtEn= 0.00D+00
 Coeff-Com: -0.725D-02 0.265D+00 0.742D+00
 Coeff:     -0.725D-02 0.265D+00 0.742D+00
 Gap=     0.402 Goal=   None    Shift=    0.000
 RMSDP=3.79D-07 MaxDP=1.34D-05 DE=-6.12D-08 OVMax= 4.36D-05

 Cycle   4  Pass 1  IDiag  1:
 RMSU=  2.43D-07    CP:  1.00D+00  1.10D+00  9.90D-01
 FoFJK:  IHMeth= 1 ICntrl=     0 DoSepK=T KAlg= 1 I1Cent= 0 FoldK=F
 E= -2905.42382701230     Delta-E=       -0.000000009353 Rises=F Damp=F
 DIIS: error= 1.45D-06 at cycle   4 NSaved=   4.
 NSaved= 4 IEnMin= 4 EnMin= -2905.42382701230     IErMin= 4 ErrMin= 1.45D-06
 ErrMax= 1.45D-06 EMaxC= 1.00D-01 BMatC= 3.37D-10 BMatP= 9.33D-09
 IDIUse=1 WtCom= 1.00D+00 WtEn= 0.00D+00
 Coeff-Com: -0.267D-03-0.458D-01-0.156D-02 0.105D+01
 Coeff:     -0.267D-03-0.458D-01-0.156D-02 0.105D+01
 Gap=     0.402 Goal=   None    Shift=    0.000
 RMSDP=2.12D-07 MaxDP=1.02D-05 DE=-9.35D-09 OVMax= 1.83D-05

 Cycle   5  Pass 1  IDiag  1:
 RMSU=  7.34D-08    CP:  1.00D+00  1.10D+00  1.09D+00  1.32D+00
 FoFJK:  IHMeth= 1 ICntrl=     0 DoSepK=T KAlg= 1 I1Cent= 0 FoldK=F
 E= -2905.42382701292     Delta-E=       -0.000000000620 Rises=F Damp=F
 DIIS: error= 8.04D-07 at cycle   5 NSaved=   5.
 NSaved= 5 IEnMin= 5 EnMin= -2905.42382701292     IErMin= 5 ErrMin= 8.04D-07
 ErrMax= 8.04D-07 EMaxC= 1.00D-01 BMatC= 1.49D-10 BMatP= 3.37D-10
 IDIUse=1 WtCom= 1.00D+00 WtEn= 0.00D+00
 Coeff-Com:  0.546D-03-0.459D-01-0.700D-01 0.492D+00 0.624D+00
 Coeff:      0.546D-03-0.459D-01-0.700D-01 0.492D+00 0.624D+00
 Gap=     0.402 Goal=   None    Shift=    0.000
 RMSDP=5.33D-08 MaxDP=2.52D-06 DE=-6.20D-10 OVMax= 4.24D-06

 Cycle   6  Pass 1  IDiag  1:
 RMSU=  2.39D-08    CP:  1.00D+00  1.10D+00  1.11D+00  1.41D+00  9.05D-01
 FoFJK:  IHMeth= 1 ICntrl=     0 DoSepK=T KAlg= 1 I1Cent= 0 FoldK=F
 E= -2905.42382701305     Delta-E=       -0.000000000133 Rises=F Damp=F
 DIIS: error= 2.39D-07 at cycle   6 NSaved=   6.
 NSaved= 6 IEnMin= 6 EnMin= -2905.42382701305     IErMin= 6 ErrMin= 2.39D-07
 ErrMax= 2.39D-07 EMaxC= 1.00D-01 BMatC= 7.60D-12 BMatP= 1.49D-10
 IDIUse=1 WtCom= 1.00D+00 WtEn= 0.00D+00
 Coeff-Com:  0.192D-03-0.101D-01-0.219D-01 0.675D-01 0.194D+00 0.770D+00
 Coeff:      0.192D-03-0.101D-01-0.219D-01 0.675D-01 0.194D+00 0.770D+00
 Gap=     0.402 Goal=   None    Shift=    0.000
 RMSDP=1.82D-08 MaxDP=8.84D-07 DE=-1.33D-10 OVMax= 1.43D-06

 Cycle   7  Pass 1  IDiag  1:
 RMSU=  7.88D-09    CP:  1.00D+00  1.10D+00  1.12D+00  1.43D+00  9.81D-01
                    CP:  1.13D+00
 FoFJK:  IHMeth= 1 ICntrl=     0 DoSepK=T KAlg= 1 I1Cent= 0 FoldK=F
 E= -2905.42382701306     Delta-E=       -0.000000000007 Rises=F Damp=F
 DIIS: error= 1.29D-07 at cycle   7 NSaved=   7.
 NSaved= 7 IEnMin= 7 EnMin= -2905.42382701306     IErMin= 7 ErrMin= 1.29D-07
 ErrMax= 1.29D-07 EMaxC= 1.00D-01 BMatC= 2.56D-12 BMatP= 7.60D-12
 IDIUse=1 WtCom= 1.00D+00 WtEn= 0.00D+00
 Coeff-Com: -0.132D-04 0.458D-02 0.297D-02-0.697D-01-0.296D-01 0.408D+00
 Coeff-Com:  0.684D+00
 Coeff:     -0.132D-04 0.458D-02 0.297D-02-0.697D-01-0.296D-01 0.408D+00
 Coeff:      0.684D+00
 Gap=     0.402 Goal=   None    Shift=    0.000
 RMSDP=8.66D-09 MaxDP=4.11D-07 DE=-7.28D-12 OVMax= 6.52D-07

 SCF Done:  E(RwB97XD) =  -2905.42382701     A.U. after    7 cycles
             Convg  =    0.8664D-08             -V/T =  2.0015
 KE= 2.900947670235D+03 PE=-7.152853302710D+03 EE= 1.239087404604D+03
 Leave Link  502 at Thu Apr 16 09:18:47 2020, MaxMem= 1073741824 cpu:     148.4
 (Enter /home/matheus/.gaussian/g09/l108.exe)
 Variable Step   Value    
 -------- ---- -----------
     1      20    9.448631
 Leave Link  108 at Thu Apr 16 09:18:47 2020, MaxMem= 1073741824 cpu:       0.0
 (Enter /home/matheus/.gaussian/g09/l202.exe)
 ---------------------------------------------------------------------------------------------------
                            Z-MATRIX (ANGSTROMS AND DEGREES)
   CD    Cent   Atom    N1       Length/X        N2       Alpha/Y        N3        Beta/Z          J
 ---------------------------------------------------------------------------------------------------
      1      1  O        0   0.000000          0.000000          0.725000
      2      2  O        0   0.000000          0.000000         -0.725000
      3      3  H        0   0.314221          0.863315          1.023510
      4      4  H        0   0.000000          0.918721         -1.023510
      5      5  Kr       0   0.000000          5.000000          0.000000
 ---------------------------------------------------------------------------------------------------
                         Z-Matrix orientation:                         
 ---------------------------------------------------------------------
 Center     Atomic      Atomic             Coordinates (Angstroms)
 Number     Number       Type             X           Y           Z
 ---------------------------------------------------------------------
      1          8           0        0.000000    0.000000    0.725000
      2          8           0        0.000000    0.000000   -0.725000
      3          1           0        0.314221    0.863315    1.023510
      4          1           0        0.000000    0.918721   -1.023510
      5         36           0        0.000000    5.000000    0.000000
 ---------------------------------------------------------------------
                    Distance matrix (angstroms):
                    1          2          3          4          5
     1  O    0.000000
     2  O    1.450000   0.000000
     3  H    0.966000   1.975180   0.000000
     4  H    1.975180   0.966000   2.071738   0.000000
     5  Kr   5.052289   5.052289   4.272993   4.207661   0.000000
 Stoichiometry    H2KrO2
 Framework group  C1[X(H2KrO2)]
 Deg. of freedom     9
 Full point group                 C1      NOp   1
 RotChk:  IX=0 Diff= 5.58D-05
 Largest Abelian subgroup         C1      NOp   1
 Largest concise Abelian subgroup C1      NOp   1
                         Standard orientation:                         
 ---------------------------------------------------------------------
 Center     Atomic      Atomic             Coordinates (Angstroms)
 Number     Number       Type             X           Y           Z
 ---------------------------------------------------------------------
      1          8           0        3.366455   -0.723500   -0.037290
      2          8           0        3.366156    0.725811    0.007420
      3          1           0        2.504059   -1.031807    0.269915
      4          1           0        2.447377    1.023913    0.019113
      5         36           0       -1.633676   -0.000294   -0.001391
 ---------------------------------------------------------------------
 Rotational constants (GHZ):     26.5658885      0.8510107      0.8248429
 Leave Link  202 at Thu Apr 16 09:18:47 2020, MaxMem= 1073741824 cpu:       0.0
 (Enter /home/matheus/.gaussian/g09/l301.exe)
 Standard basis: Aug-CC-pVTZ (5D, 7F)
 Ernie: Thresh=  0.10000D-02 Tol=  0.10000D-05 Strict=F.
 Ernie:  38 primitive shells out of 205 were deleted.
 There are   197 symmetry adapted basis functions of A   symmetry.
 Integral buffers will be    131072 words long.
 Raffenetti 2 integral format.
 Two-electron integral symmetry is turned on.
   197 basis functions,   415 primitive gaussians,   229 cartesian basis functions
    27 alpha electrons       27 beta electrons
       nuclear repulsion energy       105.9798270356 Hartrees.
 IExCor= 4639 DFT=T Ex+Corr=wB97XD ExCW=0 ScaHFX=  1.000000
 ScaDFX=  1.000000  1.000000  1.000000  1.000000 ScalE2=  1.000000  1.000000
 IRadAn=      5 IRanWt=     -1 IRanGd=            0 ICorTp=0
  HFx wShort=  0.000000 wLong=  0.250000 cFull=  0.222036 cShort=  0.000000 cLong=  0.777964
  DFx wShort=  0.000000 wLong=  0.250000 cFull=  0.000000 cShort=  0.000000 cLong=  1.000000
 NAtoms=    5 NActive=    5 NUniq=    5 SFac= 1.00D+00 NAtFMM=   60 NAOKFM=F Big=F
 R6Disp: Dispersion energy =        -0.0005199499 Hartrees.
 Nuclear repulsion after empirical dispersion term =      105.9793070857 Hartrees.
 Leave Link  301 at Thu Apr 16 09:18:47 2020, MaxMem= 1073741824 cpu:       0.2
 (Enter /home/matheus/.gaussian/g09/l302.exe)
 NPDir=0 NMtPBC=     1 NCelOv=     1 NCel=       1 NClECP=     1 NCelD=      1
         NCelK=      1 NCelE2=     1 NClLst=     1 CellRange=     0.0.
 One-electron integrals computed using PRISM.
 NBasis=   197 RedAO= T  NBF=   197
 NBsUse=   197 1.00D-06 NBFU=   197
 Precomputing XC quadrature grid using
 IXCGrd= 2 IRadAn=           5 IRanWt=          -1 IRanGd=           0 AccXCQ= 0.00D+00.
 NRdTot=     427 NPtTot=      123814 NUsed=      126881 NTot=      126913
 NSgBfM=   228   228   229   229   229 NAtAll=     5     5.
 Leave Link  302 at Thu Apr 16 09:18:47 2020, MaxMem= 1073741824 cpu:       1.0
 (Enter /home/matheus/.gaussian/g09/l303.exe)
 DipDrv:  MaxL=1.
 Leave Link  303 at Thu Apr 16 09:18:47 2020, MaxMem= 1073741824 cpu:       0.2
 (Enter /home/matheus/.gaussian/g09/l401.exe)
 Initial guess read from the read-write file.
 B after Tr=     0.000000    0.000000    0.000000
         Rot=    1.000000    0.000000    0.000000    0.000000 Ang=   0.00 deg.
 Guess basis will be translated and rotated to current coordinates.
 Initial guess orbital symmetries:
       Occupied  (A) (A) (A) (A) (A) (A) (A) (A) (A) (A) (A) (A)
                 (A) (A) (A) (A) (A) (A) (A) (A) (A) (A) (A) (A)
                 (A) (A) (A)
       Virtual   (A) (A) (A) (A) (A) (A) (A) (A) (A) (A) (A) (A)
                 (A) (A) (A) (A) (A) (A) (A) (A) (A) (A) (A) (A)
                 (A) (A) (A) (A) (A) (A) (A) (A) (A) (A) (A) (A)
                 (A) (A) (A) (A) (A) (A) (A) (A) (A) (A) (A) (A)
                 (A) (A) (A) (A) (A) (A) (A) (A) (A) (A) (A) (A)
                 (A) (A) (A) (A) (A) (A) (A) (A) (A) (A) (A) (A)
                 (A) (A) (A) (A) (A) (A) (A) (A) (A) (A) (A) (A)
                 (A) (A) (A) (A) (A) (A) (A) (A) (A) (A) (A) (A)
                 (A) (A) (A) (A) (A) (A) (A) (A) (A) (A) (A) (A)
                 (A) (A) (A) (A) (A) (A) (A) (A) (A) (A) (A) (A)
                 (A) (A) (A) (A) (A) (A) (A) (A) (A) (A) (A) (A)
                 (A) (A) (A) (A) (A) (A) (A) (A) (A) (A) (A) (A)
                 (A) (A) (A) (A) (A) (A) (A) (A) (A) (A) (A) (A)
                 (A) (A) (A) (A) (A) (A) (A) (A) (A) (A) (A) (A)
                 (A) (A)
 The electronic state of the initial guess is 1-A.
 Generating alternative initial guess.
 Harris functional with IExCor= 4639 diagonalized for initial guess.
 ExpMin= 2.53D-02 ExpMax= 1.17D+07 ExpMxC= 1.33D+04 IAcc=3 IRadAn=         5 AccDes= 0.00D+00
 HarFok:  IExCor= 4639 AccDes= 0.00D+00 IRadAn=         5 IDoV= 1
 ScaDFX=  1.000000  1.000000  1.000000  1.000000
 FoFCou: FMM=F IPFlag=           0 FMFlag=      100000 FMFlg1=           0
         NFxFlg=           0 DoJE=T BraDBF=F KetDBF=T FulRan=T
         Omega=  0.000000  0.000000  1.000000  0.000000  0.000000 ICntrl=     500 IOpCl=  0
         NMat0=    1 NMatS0=    1 NMatT0=    0 NMatD0=    1 NMtDS0=    0 NMtDT0=    0
         I1Cent=           4 NGrid=           0.
 Petite list used in FoFCou.
 Harris En= -2875.40140405908    
 Leave Link  401 at Thu Apr 16 09:18:48 2020, MaxMem= 1073741824 cpu:       4.1
 (Enter /home/matheus/.gaussian/g09/l502.exe)
 Closed shell SCF:
 Requested convergence on RMS density matrix=1.00D-08 within 128 cycles.
 Requested convergence on MAX density matrix=1.00D-06.
 Requested convergence on             energy=1.00D-06.
 No special actions if energy rises.
 Using DIIS extrapolation, IDIIS=  1040.
 Integral symmetry usage will be decided dynamically.
       126823 words used for storage of precomputed grid.
 IEnd=      305770 IEndB=      305770 NGot=  1073741824 MDV=  1073505365
 LenX=  1073505365 LenY=  1073452483
 Fock matrices will be formed incrementally for  20 cycles.

 Cycle   1  Pass 1  IDiag  1:
 FoFJK:  IHMeth= 1 ICntrl=     0 DoSepK=T KAlg= 1 I1Cent= 0 FoldK=F
 FoFCou: FMM=F IPFlag=           0 FMFlag=      100000 FMFlg1=           0
         NFxFlg=           0 DoJE=T BraDBF=F KetDBF=F FulRan=T
         Omega=  0.000000  0.000000  1.000000  0.000000  0.000000 ICntrl=     500 IOpCl=  0
         NMat0=    1 NMatS0=    1 NMatT0=    0 NMatD0=    1 NMtDS0=    0 NMtDT0=    0
         I1Cent=           0 NGrid=           0.
 Symmetry not used in FoFCou.
 E= -2905.42375773871    
 DIIS: error= 1.37D-04 at cycle   1 NSaved=   1.
 NSaved= 1 IEnMin= 1 EnMin= -2905.42375773871     IErMin= 1 ErrMin= 1.37D-04
 ErrMax= 1.37D-04 EMaxC= 1.00D-01 BMatC= 3.90D-06 BMatP= 3.90D-06
 IDIUse=3 WtCom= 9.99D-01 WtEn= 1.37D-03
 Coeff-Com:  0.100D+01
 Coeff-En:   0.100D+01
 Coeff:      0.100D+01
 Gap=     0.402 Goal=   None    Shift=    0.000
 RMSDP=1.30D-05 MaxDP=2.86D-04              OVMax= 5.57D-04

 Cycle   2  Pass 1  IDiag  1:
 RMSU=  9.18D-06    CP:  1.00D+00
 FoFJK:  IHMeth= 1 ICntrl=     0 DoSepK=T KAlg= 1 I1Cent= 0 FoldK=F
 E= -2905.42375890607     Delta-E=       -0.000001167365 Rises=F Damp=F
 DIIS: error= 2.32D-05 at cycle   2 NSaved=   2.
 NSaved= 2 IEnMin= 2 EnMin= -2905.42375890607     IErMin= 2 ErrMin= 2.32D-05
 ErrMax= 2.32D-05 EMaxC= 1.00D-01 BMatC= 4.56D-08 BMatP= 3.90D-06
 IDIUse=1 WtCom= 1.00D+00 WtEn= 0.00D+00
 Coeff-Com:  0.617D-02 0.994D+00
 Coeff:      0.617D-02 0.994D+00
 Gap=     0.402 Goal=   None    Shift=    0.000
 RMSDP=1.67D-06 MaxDP=4.74D-05 DE=-1.17D-06 OVMax= 1.19D-04

 Cycle   3  Pass 1  IDiag  1:
 RMSU=  9.35D-07    CP:  1.00D+00  1.08D+00
 FoFJK:  IHMeth= 1 ICntrl=     0 DoSepK=T KAlg= 1 I1Cent= 0 FoldK=F
 E= -2905.42375895636     Delta-E=       -0.000000050288 Rises=F Damp=F
 DIIS: error= 8.60D-06 at cycle   3 NSaved=   3.
 NSaved= 3 IEnMin= 3 EnMin= -2905.42375895636     IErMin= 3 ErrMin= 8.60D-06
 ErrMax= 8.60D-06 EMaxC= 1.00D-01 BMatC= 7.92D-09 BMatP= 4.56D-08
 IDIUse=1 WtCom= 1.00D+00 WtEn= 0.00D+00
 Coeff-Com: -0.683D-02 0.268D+00 0.739D+00
 Coeff:     -0.683D-02 0.268D+00 0.739D+00
 Gap=     0.402 Goal=   None    Shift=    0.000
 RMSDP=3.45D-07 MaxDP=1.18D-05 DE=-5.03D-08 OVMax= 3.94D-05

 Cycle   4  Pass 1  IDiag  1:
 RMSU=  2.24D-07    CP:  1.00D+00  1.09D+00  9.93D-01
 FoFJK:  IHMeth= 1 ICntrl=     0 DoSepK=T KAlg= 1 I1Cent= 0 FoldK=F
 E= -2905.42375896421     Delta-E=       -0.000000007847 Rises=F Damp=F
 DIIS: error= 1.40D-06 at cycle   4 NSaved=   4.
 NSaved= 4 IEnMin= 4 EnMin= -2905.42375896421     IErMin= 4 ErrMin= 1.40D-06
 ErrMax= 1.40D-06 EMaxC= 1.00D-01 BMatC= 2.77D-10 BMatP= 7.92D-09
 IDIUse=1 WtCom= 1.00D+00 WtEn= 0.00D+00
 Coeff-Com: -0.325D-03-0.415D-01 0.453D-02 0.104D+01
 Coeff:     -0.325D-03-0.415D-01 0.453D-02 0.104D+01
 Gap=     0.402 Goal=   None    Shift=    0.000
 RMSDP=1.99D-07 MaxDP=9.01D-06 DE=-7.85D-09 OVMax= 1.61D-05

 Cycle   5  Pass 1  IDiag  1:
 RMSU=  6.91D-08    CP:  1.00D+00  1.09D+00  1.10D+00  1.32D+00
 FoFJK:  IHMeth= 1 ICntrl=     0 DoSepK=T KAlg= 1 I1Cent= 0 FoldK=F
 E= -2905.42375896469     Delta-E=       -0.000000000485 Rises=F Damp=F
 DIIS: error= 7.20D-07 at cycle   5 NSaved=   5.
 NSaved= 5 IEnMin= 5 EnMin= -2905.42375896469     IErMin= 5 ErrMin= 7.20D-07
 ErrMax= 7.20D-07 EMaxC= 1.00D-01 BMatC= 1.27D-10 BMatP= 2.77D-10
 IDIUse=1 WtCom= 1.00D+00 WtEn= 0.00D+00
 Coeff-Com:  0.513D-03-0.456D-01-0.703D-01 0.490D+00 0.625D+00
 Coeff:      0.513D-03-0.456D-01-0.703D-01 0.490D+00 0.625D+00
 Gap=     0.402 Goal=   None    Shift=    0.000
 RMSDP=5.03D-08 MaxDP=2.38D-06 DE=-4.85D-10 OVMax= 3.94D-06

 Cycle   6  Pass 1  IDiag  1:
 RMSU=  2.34D-08    CP:  1.00D+00  1.09D+00  1.11D+00  1.41D+00  9.36D-01
 FoFJK:  IHMeth= 1 ICntrl=     0 DoSepK=T KAlg= 1 I1Cent= 0 FoldK=F
 E= -2905.42375896479     Delta-E=       -0.000000000102 Rises=F Damp=F
 DIIS: error= 2.29D-07 at cycle   6 NSaved=   6.
 NSaved= 6 IEnMin= 6 EnMin= -2905.42375896479     IErMin= 6 ErrMin= 2.29D-07
 ErrMax= 2.29D-07 EMaxC= 1.00D-01 BMatC= 6.68D-12 BMatP= 1.27D-10
 IDIUse=1 WtCom= 1.00D+00 WtEn= 0.00D+00
 Coeff-Com:  0.193D-03-0.110D-01-0.234D-01 0.753D-01 0.202D+00 0.757D+00
 Coeff:      0.193D-03-0.110D-01-0.234D-01 0.753D-01 0.202D+00 0.757D+00
 Gap=     0.402 Goal=   None    Shift=    0.000
 RMSDP=1.71D-08 MaxDP=8.28D-07 DE=-1.02D-10 OVMax= 1.30D-06

 Cycle   7  Pass 1  IDiag  1:
 RMSU=  7.31D-09    CP:  1.00D+00  1.09D+00  1.12D+00  1.44D+00  1.02D+00
                    CP:  1.14D+00
 FoFJK:  IHMeth= 1 ICntrl=     0 DoSepK=T KAlg= 1 I1Cent= 0 FoldK=F
 E= -2905.42375896480     Delta-E=       -0.000000000007 Rises=F Damp=F
 DIIS: error= 1.14D-07 at cycle   7 NSaved=   7.
 NSaved= 7 IEnMin= 7 EnMin= -2905.42375896480     IErMin= 7 ErrMin= 1.14D-07
 ErrMax= 1.14D-07 EMaxC= 1.00D-01 BMatC= 2.05D-12 BMatP= 6.68D-12
 IDIUse=1 WtCom= 1.00D+00 WtEn= 0.00D+00
 Coeff-Com: -0.117D-04 0.450D-02 0.305D-02-0.696D-01-0.324D-01 0.391D+00
 Coeff-Com:  0.704D+00
 Coeff:     -0.117D-04 0.450D-02 0.305D-02-0.696D-01-0.324D-01 0.391D+00
 Coeff:      0.704D+00
 Gap=     0.402 Goal=   None    Shift=    0.000
 RMSDP=8.50D-09 MaxDP=4.07D-07 DE=-7.28D-12 OVMax= 6.28D-07

 SCF Done:  E(RwB97XD) =  -2905.42375896     A.U. after    7 cycles
             Convg  =    0.8501D-08             -V/T =  2.0015
 KE= 2.900948232327D+03 PE=-7.150045575641D+03 EE= 1.237694277264D+03
 Leave Link  502 at Thu Apr 16 09:19:06 2020, MaxMem= 1073741824 cpu:     147.0
 (Enter /home/matheus/.gaussian/g09/l108.exe)
 Scan completed.

 Summary of the potential surface scan:
   N      R1          SCF    
 ----  ---------  -----------
    1     3.0000  -2905.41857
    2     3.1000  -2905.42108
    3     3.2000  -2905.42275
    4     3.3000  -2905.42382
    5     3.4000  -2905.42447
    6     3.5000  -2905.42485
    7     3.6000  -2905.42502
    8     3.7000  -2905.42507
    9     3.8000  -2905.42503
   10     3.9000  -2905.42494
   11     4.0000  -2905.42483
   12     4.1000  -2905.42470
   13     4.2000  -2905.42456
   14     4.3000  -2905.42443
   15     4.4000  -2905.42431
   16     4.5000  -2905.42419
   17     4.6000  -2905.42408
   18     4.7000  -2905.42399
   19     4.8000  -2905.42390
   20     4.9000  -2905.42383
   21     5.0000  -2905.42376
 ----  ---------  -----------
  
 Leave Link  108 at Thu Apr 16 09:19:06 2020, MaxMem= 1073741824 cpu:       0.0
 (Enter /home/matheus/.gaussian/g09/l9999.exe)

 Test job not archived.
 1\1\GINC-REDGIANT\Scan\RwB97XD\Aug-CC-pVTZ\H2Kr1O2\ROOT\16-Apr-2020\1\
 \#p wb97xd/aug-cc-PVTz iop(3/107=0250000000) iop(3/108=0250000000) int
 =ultrafine Scan\\TCC\\0,1\O,0,0.,0.,0.725\O,0,0.,0.,-0.725\H,0,0.31422
 09495,0.8633149634,1.0235104166\H,0,0.,0.9187205947,-1.0235104166\Kr,0
 ,0.,R1,0.\\R1=3.,s,20,0.1\\Version=EM64L-G09RevC.01\State=1-A\HF=-2905
 .4185673,-2905.4210793,-2905.4227469,-2905.4238184,-2905.4244741,-2905
 .4248492,-2905.4250219,-2905.4250695,-2905.4250335,-2905.4249446,-2905
 .4248263,-2905.4246954,-2905.4245606,-2905.424428,-2905.4243053,-2905.
 4241905,-2905.4240845,-2905.4239892,-2905.4239041,-2905.423827,-2905.4
 23759\RMSD=4.707e-09,2.629e-09,7.953e-09,5.893e-09,4.039e-09,3.281e-09
 ,3.026e-09,8.649e-09,7.285e-09,6.192e-09,5.304e-09,4.481e-09,3.839e-09
 ,3.032e-09,2.374e-09,1.926e-09,1.598e-09,1.400e-09,1.341e-09,8.664e-09
 ,8.501e-09\PG=C01 [X(H2Kr1O2)]\\@


 I SUPPOSE A BABY LLAMA HAS A MMAMA AND A PPOPA.
     -- RICHARD AMOUR
 Job cpu time:  0 days  1 hours 13 minutes 20.5 seconds.
 File lengths (MBytes):  RWF=     27 Int=      0 D2E=      0 Chk=      4 Scr=      1
 Normal termination of Gaussian 09 at Thu Apr 16 09:19:06 2020.
