 Entering Gaussian System, Link 0=g09
 Input=/home/matheus/.tcc/Inputs-wb97xd/H2O2-Kr_24.com
 Output=/home/matheus/.tcc/Logs-wb97xd/H2O2-Kr_24.log
 Initial command:
 /home/matheus/.gaussian/g09/l1.exe /home/matheus/.gaussian/g09/scratch/Gau-19058.inp -scrdir=/home/matheus/.gaussian/g09/scratch/
 Entering Link 1 = /home/matheus/.gaussian/g09/l1.exe PID=     19061.
  
 Copyright (c) 1988,1990,1992,1993,1995,1998,2003,2009,2011,
            Gaussian, Inc.  All Rights Reserved.
  
 This is part of the Gaussian(R) 09 program.  It is based on
 the Gaussian(R) 03 system (copyright 2003, Gaussian, Inc.),
 the Gaussian(R) 98 system (copyright 1998, Gaussian, Inc.),
 the Gaussian(R) 94 system (copyright 1995, Gaussian, Inc.),
 the Gaussian 92(TM) system (copyright 1992, Gaussian, Inc.),
 the Gaussian 90(TM) system (copyright 1990, Gaussian, Inc.),
 the Gaussian 88(TM) system (copyright 1988, Gaussian, Inc.),
 the Gaussian 86(TM) system (copyright 1986, Carnegie Mellon
 University), and the Gaussian 82(TM) system (copyright 1983,
 Carnegie Mellon University). Gaussian is a federally registered
 trademark of Gaussian, Inc.
  
 This software contains proprietary and confidential information,
 including trade secrets, belonging to Gaussian, Inc.
  
 This software is provided under written license and may be
 used, copied, transmitted, or stored only in accord with that
 written license.
  
 The following legend is applicable only to US Government
 contracts under FAR:
  
                    RESTRICTED RIGHTS LEGEND
  
 Use, reproduction and disclosure by the US Government is
 subject to restrictions as set forth in subparagraphs (a)
 and (c) of the Commercial Computer Software - Restricted
 Rights clause in FAR 52.227-19.
  
 Gaussian, Inc.
 340 Quinnipiac St., Bldg. 40, Wallingford CT 06492
  
  
 ---------------------------------------------------------------
 Warning -- This program may not be used in any manner that
 competes with the business of Gaussian, Inc. or will provide
 assistance to any competitor of Gaussian, Inc.  The licensee
 of this program is prohibited from giving any competitor of
 Gaussian, Inc. access to this program.  By using this program,
 the user acknowledges that Gaussian, Inc. is engaged in the
 business of creating and licensing software in the field of
 computational chemistry and represents and warrants to the
 licensee that it is not a competitor of Gaussian, Inc. and that
 it will not use this program in any manner prohibited above.
 ---------------------------------------------------------------
  

 Cite this work as:
 Gaussian 09, Revision C.01,
 M. J. Frisch, G. W. Trucks, H. B. Schlegel, G. E. Scuseria, 
 M. A. Robb, J. R. Cheeseman, G. Scalmani, V. Barone, B. Mennucci, 
 G. A. Petersson, H. Nakatsuji, M. Caricato, X. Li, H. P. Hratchian, 
 A. F. Izmaylov, J. Bloino, G. Zheng, J. L. Sonnenberg, M. Hada, 
 M. Ehara, K. Toyota, R. Fukuda, J. Hasegawa, M. Ishida, T. Nakajima, 
 Y. Honda, O. Kitao, H. Nakai, T. Vreven, J. A. Montgomery, Jr., 
 J. E. Peralta, F. Ogliaro, M. Bearpark, J. J. Heyd, E. Brothers, 
 K. N. Kudin, V. N. Staroverov, T. Keith, R. Kobayashi, J. Normand, 
 K. Raghavachari, A. Rendell, J. C. Burant, S. S. Iyengar, J. Tomasi, 
 M. Cossi, N. Rega, J. M. Millam, M. Klene, J. E. Knox, J. B. Cross, 
 V. Bakken, C. Adamo, J. Jaramillo, R. Gomperts, R. E. Stratmann, 
 O. Yazyev, A. J. Austin, R. Cammi, C. Pomelli, J. W. Ochterski, 
 R. L. Martin, K. Morokuma, V. G. Zakrzewski, G. A. Voth, 
 P. Salvador, J. J. Dannenberg, S. Dapprich, A. D. Daniels, 
 O. Farkas, J. B. Foresman, J. V. Ortiz, J. Cioslowski, 
 and D. J. Fox, Gaussian, Inc., Wallingford CT, 2010.
 
 ******************************************
 Gaussian 09:  EM64L-G09RevC.01 23-Sep-2011
                16-Apr-2020 
 ******************************************
 %mem=8GB
 %nproc=8
 Will use up to    8 processors via shared memory.
 ----------------------------------------------------------------------
 #p wb97xd/aug-cc-PVTz iop(3/107=0250000000) iop(3/108=0250000000) int=
 ultrafine Scan
 ----------------------------------------------------------------------
 1/38=1,60=1/1,8;
 2/12=2,17=6,18=5,29=3,40=1/2;
 3/5=16,6=1,7=10,11=2,16=1,25=1,30=1,74=-58,75=-5,107=250000000,108=250000000/1,2,3;
 4//1;
 5/5=2,38=5/2;
 6/7=2,8=2,9=2,10=2,18=1,28=1/1;
 1/60=1/8(1);
 99/9=1/99;
 2/29=3/2;
 3/5=16,6=1,7=10,11=2,16=1,25=1,30=1,74=-58,75=-5,107=250000000,108=250000000/1,2,3;
 4/5=5,16=3/1;
 5/5=2,38=5/2;
 1/60=1/8(-4);
 99/9=1/99;
 Leave Link    1 at Thu Apr 16 12:34:31 2020, MaxMem= 1073741824 cpu:       0.1
 (Enter /home/matheus/.gaussian/g09/l101.exe)
 ---
 TCC
 ---
 Charge =  0 Multiplicity = 1
 Symbolic Z-Matrix:
 O                     0.        0.        0.725 
 O                     0.        0.       -0.725 
 H                    -0.79564  -0.45936   1.02351 
 H                     0.        0.91872  -1.02351 
 Kr                    0.       R1        0. 
       Variables:
  R1                    3.     Scan 20    0.1    
 
 NAtoms=      5 NQM=        0 NQMF=       0 NMMI=      5 NMMIF=      0
                NMic=       0 NMicF=      0.
                    Isotopes and Nuclear Properties:
 (Nuclear quadrupole moments (NQMom) in fm**2, nuclear magnetic moments (NMagM)
  in nuclear magnetons)

  Atom         1           2           3           4           5
 IAtWgt=          16          16           1           1          84
 AtmWgt=  15.9949146  15.9949146   1.0078250   1.0078250  83.9115064
 NucSpn=           0           0           1           1           0
 AtZEff=   0.0000000   0.0000000   0.0000000   0.0000000   0.0000000
 NQMom=    0.0000000   0.0000000   0.0000000   0.0000000   0.0000000
 NMagM=    0.0000000   0.0000000   2.7928460   2.7928460   0.0000000
 Leave Link  101 at Thu Apr 16 12:34:31 2020, MaxMem= 1073741824 cpu:       0.4
 (Enter /home/matheus/.gaussian/g09/l108.exe)
 Scan the potential surface.
 Variable   Value     No. Steps Step-Size
 -------- ----------- --------- ---------
     1       3.000000      20      0.1000
 A total of     21 points will be computed.
 Leave Link  108 at Thu Apr 16 12:34:31 2020, MaxMem= 1073741824 cpu:       0.0
 (Enter /home/matheus/.gaussian/g09/l202.exe)
 ---------------------------------------------------------------------------------------------------
                            Z-MATRIX (ANGSTROMS AND DEGREES)
   CD    Cent   Atom    N1       Length/X        N2       Alpha/Y        N3        Beta/Z          J
 ---------------------------------------------------------------------------------------------------
      1      1  O        0   0.000000          0.000000          0.725000
      2      2  O        0   0.000000          0.000000         -0.725000
      3      3  H        0  -0.795635         -0.459360          1.023510
      4      4  H        0   0.000000          0.918721         -1.023510
      5      5  Kr       0   0.000000          3.000000          0.000000
 ---------------------------------------------------------------------------------------------------
                         Z-Matrix orientation:                         
 ---------------------------------------------------------------------
 Center     Atomic      Atomic             Coordinates (Angstroms)
 Number     Number       Type             X           Y           Z
 ---------------------------------------------------------------------
      1          8           0        0.000000    0.000000    0.725000
      2          8           0        0.000000    0.000000   -0.725000
      3          1           0       -0.795635   -0.459360    1.023510
      4          1           0        0.000000    0.918721   -1.023510
      5         36           0        0.000000    3.000000    0.000000
 ---------------------------------------------------------------------
                    Distance matrix (angstroms):
                    1          2          3          4          5
     1  O    0.000000
     2  O    1.450000   0.000000
     3  H    0.966000   1.975180   0.000000
     4  H    1.975180   0.966000   2.592766   0.000000
     5  Kr   3.086361   3.086361   3.694291   2.319331   0.000000
 Stoichiometry    H2KrO2
 Framework group  C1[X(H2KrO2)]
 Deg. of freedom     9
 Full point group                 C1      NOp   1
 Largest Abelian subgroup         C1      NOp   1
 Largest concise Abelian subgroup C1      NOp   1
                         Standard orientation:                         
 ---------------------------------------------------------------------
 Center     Atomic      Atomic             Coordinates (Angstroms)
 Number     Number       Type             X           Y           Z
 ---------------------------------------------------------------------
      1          8           0       -2.018349   -0.689087   -0.106614
      2          8           0       -1.996994    0.756239    0.007743
      3          1           0       -2.496711   -1.041750    0.654934
      4          1           0       -1.074134    1.038958    0.047181
      5         36           0        0.991489   -0.014845    0.002468
 ---------------------------------------------------------------------
 Rotational constants (GHZ):     25.8792574      2.3237795      2.1427447
 Leave Link  202 at Thu Apr 16 12:34:31 2020, MaxMem= 1073741824 cpu:       0.0
 (Enter /home/matheus/.gaussian/g09/l301.exe)
 Standard basis: Aug-CC-pVTZ (5D, 7F)
 Ernie: Thresh=  0.10000D-02 Tol=  0.10000D-05 Strict=F.
 Ernie:  38 primitive shells out of 205 were deleted.
 There are   197 symmetry adapted basis functions of A   symmetry.
 Integral buffers will be    131072 words long.
 Raffenetti 2 integral format.
 Two-electron integral symmetry is turned on.
   197 basis functions,   415 primitive gaussians,   229 cartesian basis functions
    27 alpha electrons       27 beta electrons
       nuclear repulsion energy       148.7418288716 Hartrees.
 IExCor= 4639 DFT=T Ex+Corr=wB97XD ExCW=0 ScaHFX=  1.000000
 ScaDFX=  1.000000  1.000000  1.000000  1.000000 ScalE2=  1.000000  1.000000
 IRadAn=      5 IRanWt=     -1 IRanGd=            0 ICorTp=0
  HFx wShort=  0.000000 wLong=  0.250000 cFull=  0.222036 cShort=  0.000000 cLong=  0.777964
  DFx wShort=  0.000000 wLong=  0.250000 cFull=  0.000000 cShort=  0.000000 cLong=  1.000000
 NAtoms=    5 NActive=    5 NUniq=    5 SFac= 1.00D+00 NAtFMM=   60 NAOKFM=F Big=F
 R6Disp: Dispersion energy =        -0.0008550556 Hartrees.
 Nuclear repulsion after empirical dispersion term =      148.7409738160 Hartrees.
 Leave Link  301 at Thu Apr 16 12:34:31 2020, MaxMem= 1073741824 cpu:       0.2
 (Enter /home/matheus/.gaussian/g09/l302.exe)
 NPDir=0 NMtPBC=     1 NCelOv=     1 NCel=       1 NClECP=     1 NCelD=      1
         NCelK=      1 NCelE2=     1 NClLst=     1 CellRange=     0.0.
 One-electron integrals computed using PRISM.
 NBasis=   197 RedAO= T  NBF=   197
 NBsUse=   197 1.00D-06 NBFU=   197
 Precomputing XC quadrature grid using
 IXCGrd= 2 IRadAn=           5 IRanWt=          -1 IRanGd=           0 AccXCQ= 0.00D+00.
 NRdTot=     427 NPtTot=      123512 NUsed=      126579 NTot=      126611
 NSgBfM=   229   229   229   229   229 NAtAll=     5     5.
 Leave Link  302 at Thu Apr 16 12:34:31 2020, MaxMem= 1073741824 cpu:       1.1
 (Enter /home/matheus/.gaussian/g09/l303.exe)
 DipDrv:  MaxL=1.
 Leave Link  303 at Thu Apr 16 12:34:31 2020, MaxMem= 1073741824 cpu:       0.2
 (Enter /home/matheus/.gaussian/g09/l401.exe)
 Harris functional with IExCor= 4639 diagonalized for initial guess.
 ExpMin= 2.53D-02 ExpMax= 1.17D+07 ExpMxC= 1.33D+04 IAcc=3 IRadAn=         5 AccDes= 0.00D+00
 HarFok:  IExCor= 4639 AccDes= 0.00D+00 IRadAn=         5 IDoV= 1
 ScaDFX=  1.000000  1.000000  1.000000  1.000000
 FoFCou: FMM=F IPFlag=           0 FMFlag=      100000 FMFlg1=           0
         NFxFlg=           0 DoJE=T BraDBF=F KetDBF=T FulRan=T
         Omega=  0.000000  0.000000  1.000000  0.000000  0.000000 ICntrl=     500 IOpCl=  0
         NMat0=    1 NMatS0=    1 NMatT0=    0 NMatD0=    1 NMtDS0=    0 NMtDT0=    0
         I1Cent=           4 NGrid=           0.
 Petite list used in FoFCou.
 Harris En= -2875.39705884099    
 Initial guess orbital symmetries:
       Occupied  (A) (A) (A) (A) (A) (A) (A) (A) (A) (A) (A) (A)
                 (A) (A) (A) (A) (A) (A) (A) (A) (A) (A) (A) (A)
                 (A) (A) (A)
       Virtual   (A) (A) (A) (A) (A) (A) (A) (A) (A) (A) (A) (A)
                 (A) (A) (A) (A) (A) (A) (A) (A) (A) (A) (A) (A)
                 (A) (A) (A) (A) (A) (A) (A) (A) (A) (A) (A) (A)
                 (A) (A) (A) (A) (A) (A) (A) (A) (A) (A) (A) (A)
                 (A) (A) (A) (A) (A) (A) (A) (A) (A) (A) (A) (A)
                 (A) (A) (A) (A) (A) (A) (A) (A) (A) (A) (A) (A)
                 (A) (A) (A) (A) (A) (A) (A) (A) (A) (A) (A) (A)
                 (A) (A) (A) (A) (A) (A) (A) (A) (A) (A) (A) (A)
                 (A) (A) (A) (A) (A) (A) (A) (A) (A) (A) (A) (A)
                 (A) (A) (A) (A) (A) (A) (A) (A) (A) (A) (A) (A)
                 (A) (A) (A) (A) (A) (A) (A) (A) (A) (A) (A) (A)
                 (A) (A) (A) (A) (A) (A) (A) (A) (A) (A) (A) (A)
                 (A) (A) (A) (A) (A) (A) (A) (A) (A) (A) (A) (A)
                 (A) (A) (A) (A) (A) (A) (A) (A) (A) (A) (A) (A)
                 (A) (A)
 The electronic state of the initial guess is 1-A.
 Leave Link  401 at Thu Apr 16 12:34:32 2020, MaxMem= 1073741824 cpu:       5.3
 (Enter /home/matheus/.gaussian/g09/l502.exe)
 Closed shell SCF:
 Requested convergence on RMS density matrix=1.00D-08 within 128 cycles.
 Requested convergence on MAX density matrix=1.00D-06.
 Requested convergence on             energy=1.00D-06.
 No special actions if energy rises.
 Using DIIS extrapolation, IDIIS=  1040.
 Integral symmetry usage will be decided dynamically.
       126521 words used for storage of precomputed grid.
 IEnd=      305468 IEndB=      305468 NGot=  1073741824 MDV=  1073505667
 LenX=  1073505667 LenY=  1073452785
 Fock matrices will be formed incrementally for  20 cycles.

 Cycle   1  Pass 1  IDiag  1:
 FoFJK:  IHMeth= 1 ICntrl=     0 DoSepK=T KAlg= 1 I1Cent= 0 FoldK=F
 FoFCou: FMM=F IPFlag=           0 FMFlag=      100000 FMFlg1=           0
         NFxFlg=           0 DoJE=T BraDBF=F KetDBF=F FulRan=T
         Omega=  0.000000  0.000000  1.000000  0.000000  0.000000 ICntrl=     500 IOpCl=  0
         NMat0=    1 NMatS0=    1 NMatT0=    0 NMatD0=    1 NMtDS0=    0 NMtDT0=    0
         I1Cent=           0 NGrid=           0.
 Symmetry not used in FoFCou.
 E= -2904.90294153408    
 DIIS: error= 6.13D-02 at cycle   1 NSaved=   1.
 NSaved= 1 IEnMin= 1 EnMin= -2904.90294153408     IErMin= 1 ErrMin= 6.13D-02
 ErrMax= 6.13D-02 EMaxC= 1.00D-01 BMatC= 2.22D+00 BMatP= 2.22D+00
 IDIUse=3 WtCom= 3.87D-01 WtEn= 6.13D-01
 Coeff-Com:  0.100D+01
 Coeff-En:   0.100D+01
 Coeff:      0.100D+01
 Gap=     0.549 Goal=   None    Shift=    0.000
 GapD=    0.549 DampG=2.000 DampE=0.500 DampFc=1.0000 IDamp=-1.
 RMSDP=6.15D-03 MaxDP=3.67D-01              OVMax= 1.81D-01

 Cycle   2  Pass 1  IDiag  1:
 RMSU=  4.32D-03    CP:  1.03D+00
 FoFJK:  IHMeth= 1 ICntrl=     0 DoSepK=T KAlg= 1 I1Cent= 0 FoldK=F
 E= -2905.22245731299     Delta-E=       -0.319515778911 Rises=F Damp=F
 DIIS: error= 2.97D-02 at cycle   2 NSaved=   2.
 NSaved= 2 IEnMin= 2 EnMin= -2905.22245731299     IErMin= 2 ErrMin= 2.97D-02
 ErrMax= 2.97D-02 EMaxC= 1.00D-01 BMatC= 5.66D-01 BMatP= 2.22D+00
 IDIUse=3 WtCom= 7.03D-01 WtEn= 2.97D-01
 Coeff-Com:  0.328D+00 0.672D+00
 Coeff-En:   0.199D+00 0.801D+00
 Coeff:      0.290D+00 0.710D+00
 Gap=     0.492 Goal=   None    Shift=    0.000
 RMSDP=2.68D-03 MaxDP=1.56D-01 DE=-3.20D-01 OVMax= 7.37D-02

 Cycle   3  Pass 1  IDiag  1:
 RMSU=  5.66D-04    CP:  1.02D+00  5.84D-01
 FoFJK:  IHMeth= 1 ICntrl=     0 DoSepK=T KAlg= 1 I1Cent= 0 FoldK=F
 E= -2905.41776157583     Delta-E=       -0.195304262840 Rises=F Damp=F
 DIIS: error= 6.39D-03 at cycle   3 NSaved=   3.
 NSaved= 3 IEnMin= 3 EnMin= -2905.41776157583     IErMin= 3 ErrMin= 6.39D-03
 ErrMax= 6.39D-03 EMaxC= 1.00D-01 BMatC= 1.77D-02 BMatP= 5.66D-01
 IDIUse=3 WtCom= 9.36D-01 WtEn= 6.39D-02
 Coeff-Com:  0.344D-01 0.186D+00 0.779D+00
 Coeff-En:   0.000D+00 0.000D+00 0.100D+01
 Coeff:      0.322D-01 0.174D+00 0.793D+00
 Gap=     0.442 Goal=   None    Shift=    0.000
 RMSDP=4.69D-04 MaxDP=1.90D-02 DE=-1.95D-01 OVMax= 2.61D-02

 Cycle   4  Pass 1  IDiag  1:
 RMSU=  2.29D-04    CP:  1.02D+00  6.38D-01  9.06D-01
 FoFJK:  IHMeth= 1 ICntrl=     0 DoSepK=T KAlg= 1 I1Cent= 0 FoldK=F
 E= -2905.42587589808     Delta-E=       -0.008114322250 Rises=F Damp=F
 DIIS: error= 2.43D-03 at cycle   4 NSaved=   4.
 NSaved= 4 IEnMin= 4 EnMin= -2905.42587589808     IErMin= 4 ErrMin= 2.43D-03
 ErrMax= 2.43D-03 EMaxC= 1.00D-01 BMatC= 1.78D-03 BMatP= 1.77D-02
 IDIUse=3 WtCom= 9.76D-01 WtEn= 2.43D-02
 Coeff-Com: -0.237D-02 0.469D-01 0.370D+00 0.586D+00
 Coeff-En:   0.000D+00 0.000D+00 0.000D+00 0.100D+01
 Coeff:     -0.231D-02 0.457D-01 0.361D+00 0.596D+00
 Gap=     0.427 Goal=   None    Shift=    0.000
 RMSDP=1.17D-04 MaxDP=6.72D-03 DE=-8.11D-03 OVMax= 6.86D-03

 Cycle   5  Pass 1  IDiag  1:
 RMSU=  4.09D-05    CP:  1.02D+00  6.37D-01  9.54D-01  7.13D-01
 FoFJK:  IHMeth= 1 ICntrl=     0 DoSepK=T KAlg= 1 I1Cent= 0 FoldK=F
 E= -2905.42694088648     Delta-E=       -0.001064988401 Rises=F Damp=F
 DIIS: error= 2.43D-04 at cycle   5 NSaved=   5.
 NSaved= 5 IEnMin= 5 EnMin= -2905.42694088648     IErMin= 5 ErrMin= 2.43D-04
 ErrMax= 2.43D-04 EMaxC= 1.00D-01 BMatC= 2.54D-05 BMatP= 1.78D-03
 IDIUse=3 WtCom= 9.98D-01 WtEn= 2.43D-03
 Coeff-Com: -0.148D-02 0.106D-01 0.103D+00 0.187D+00 0.701D+00
 Coeff-En:   0.000D+00 0.000D+00 0.000D+00 0.000D+00 0.100D+01
 Coeff:     -0.147D-02 0.105D-01 0.103D+00 0.186D+00 0.702D+00
 Gap=     0.426 Goal=   None    Shift=    0.000
 RMSDP=2.28D-05 MaxDP=9.96D-04 DE=-1.06D-03 OVMax= 1.53D-03

 Cycle   6  Pass 1  IDiag  1:
 RMSU=  1.45D-05    CP:  1.02D+00  6.37D-01  9.62D-01  7.32D-01  1.08D+00
 FoFJK:  IHMeth= 1 ICntrl=     0 DoSepK=T KAlg= 1 I1Cent= 0 FoldK=F
 E= -2905.42695421503     Delta-E=       -0.000013328546 Rises=F Damp=F
 DIIS: error= 1.70D-04 at cycle   6 NSaved=   6.
 NSaved= 6 IEnMin= 6 EnMin= -2905.42695421503     IErMin= 6 ErrMin= 1.70D-04
 ErrMax= 1.70D-04 EMaxC= 1.00D-01 BMatC= 1.00D-05 BMatP= 2.54D-05
 IDIUse=3 WtCom= 9.98D-01 WtEn= 1.70D-03
 Coeff-Com: -0.252D-03-0.622D-02-0.353D-01-0.481D-01 0.391D+00 0.699D+00
 Coeff-En:   0.000D+00 0.000D+00 0.000D+00 0.000D+00 0.180D+00 0.820D+00
 Coeff:     -0.251D-03-0.621D-02-0.352D-01-0.481D-01 0.391D+00 0.699D+00
 Gap=     0.426 Goal=   None    Shift=    0.000
 RMSDP=1.30D-05 MaxDP=4.52D-04 DE=-1.33D-05 OVMax= 7.32D-04

 Cycle   7  Pass 1  IDiag  1:
 RMSU=  3.77D-06    CP:  1.02D+00  6.37D-01  9.69D-01  7.42D-01  1.24D+00
                    CP:  8.54D-01
 FoFJK:  IHMeth= 1 ICntrl=     0 DoSepK=T KAlg= 1 I1Cent= 0 FoldK=F
 E= -2905.42696163787     Delta-E=       -0.000007422841 Rises=F Damp=F
 DIIS: error= 1.29D-05 at cycle   7 NSaved=   7.
 NSaved= 7 IEnMin= 7 EnMin= -2905.42696163787     IErMin= 7 ErrMin= 1.29D-05
 ErrMax= 1.29D-05 EMaxC= 1.00D-01 BMatC= 6.78D-08 BMatP= 1.00D-05
 IDIUse=1 WtCom= 1.00D+00 WtEn= 0.00D+00
 Coeff-Com:  0.314D-04-0.965D-03-0.718D-02-0.107D-01-0.711D-02 0.528D-01
 Coeff-Com:  0.973D+00
 Coeff:      0.314D-04-0.965D-03-0.718D-02-0.107D-01-0.711D-02 0.528D-01
 Coeff:      0.973D+00
 Gap=     0.426 Goal=   None    Shift=    0.000
 RMSDP=2.63D-06 MaxDP=7.80D-05 DE=-7.42D-06 OVMax= 2.03D-04

 Cycle   8  Pass 1  IDiag  1:
 RMSU=  8.38D-07    CP:  1.02D+00  6.37D-01  9.70D-01  7.44D-01  1.26D+00
                    CP:  9.07D-01  1.20D+00
 FoFJK:  IHMeth= 1 ICntrl=     0 DoSepK=T KAlg= 1 I1Cent= 0 FoldK=F
 E= -2905.42696178271     Delta-E=       -0.000000144836 Rises=F Damp=F
 DIIS: error= 3.25D-06 at cycle   8 NSaved=   8.
 NSaved= 8 IEnMin= 8 EnMin= -2905.42696178271     IErMin= 8 ErrMin= 3.25D-06
 ErrMax= 3.25D-06 EMaxC= 1.00D-01 BMatC= 4.14D-09 BMatP= 6.78D-08
 IDIUse=1 WtCom= 1.00D+00 WtEn= 0.00D+00
 Coeff-Com:  0.132D-04 0.238D-03 0.128D-02 0.146D-02-0.207D-01-0.315D-01
 Coeff-Com:  0.327D-01 0.102D+01
 Coeff:      0.132D-04 0.238D-03 0.128D-02 0.146D-02-0.207D-01-0.315D-01
 Coeff:      0.327D-01 0.102D+01
 Gap=     0.426 Goal=   None    Shift=    0.000
 RMSDP=6.97D-07 MaxDP=1.68D-05 DE=-1.45D-07 OVMax= 6.88D-05

 Cycle   9  Pass 1  IDiag  1:
 RMSU=  2.17D-07    CP:  1.02D+00  6.37D-01  9.70D-01  7.44D-01  1.27D+00
                    CP:  9.16D-01  1.28D+00  1.28D+00
 FoFJK:  IHMeth= 1 ICntrl=     0 DoSepK=T KAlg= 1 I1Cent= 0 FoldK=F
 E= -2905.42696179456     Delta-E=       -0.000000011854 Rises=F Damp=F
 DIIS: error= 1.21D-06 at cycle   9 NSaved=   9.
 NSaved= 9 IEnMin= 9 EnMin= -2905.42696179456     IErMin= 9 ErrMin= 1.21D-06
 ErrMax= 1.21D-06 EMaxC= 1.00D-01 BMatC= 3.70D-10 BMatP= 4.14D-09
 IDIUse=1 WtCom= 1.00D+00 WtEn= 0.00D+00
 Coeff-Com: -0.201D-05 0.637D-04 0.473D-03 0.545D-03 0.492D-03-0.213D-02
 Coeff-Com: -0.588D-01-0.569D-01 0.112D+01
 Coeff:     -0.201D-05 0.637D-04 0.473D-03 0.545D-03 0.492D-03-0.213D-02
 Coeff:     -0.588D-01-0.569D-01 0.112D+01
 Gap=     0.426 Goal=   None    Shift=    0.000
 RMSDP=2.31D-07 MaxDP=6.05D-06 DE=-1.19D-08 OVMax= 2.97D-05

 Cycle  10  Pass 1  IDiag  1:
 RMSU=  7.92D-08    CP:  1.02D+00  6.37D-01  9.70D-01  7.44D-01  1.27D+00
                    CP:  9.18D-01  1.29D+00  1.38D+00  1.42D+00
 FoFJK:  IHMeth= 1 ICntrl=     0 DoSepK=T KAlg= 1 I1Cent= 0 FoldK=F
 E= -2905.42696179598     Delta-E=       -0.000000001416 Rises=F Damp=F
 DIIS: error= 4.20D-07 at cycle  10 NSaved=  10.
 NSaved=10 IEnMin=10 EnMin= -2905.42696179598     IErMin=10 ErrMin= 4.20D-07
 ErrMax= 4.20D-07 EMaxC= 1.00D-01 BMatC= 4.62D-11 BMatP= 3.70D-10
 IDIUse=1 WtCom= 1.00D+00 WtEn= 0.00D+00
 Coeff-Com: -0.534D-06-0.160D-04-0.968D-04-0.973D-04 0.169D-02 0.275D-02
 Coeff-Com:  0.101D-02-0.112D+00 0.741D-01 0.103D+01
 Coeff:     -0.534D-06-0.160D-04-0.968D-04-0.973D-04 0.169D-02 0.275D-02
 Coeff:      0.101D-02-0.112D+00 0.741D-01 0.103D+01
 Gap=     0.426 Goal=   None    Shift=    0.000
 RMSDP=7.98D-08 MaxDP=1.71D-06 DE=-1.42D-09 OVMax= 1.16D-05

 Cycle  11  Pass 1  IDiag  1:
 RMSU=  2.13D-08    CP:  1.02D+00  6.37D-01  9.70D-01  7.44D-01  1.27D+00
                    CP:  9.17D-01  1.29D+00  1.39D+00  1.60D+00  1.35D+00
 FoFJK:  IHMeth= 1 ICntrl=     0 DoSepK=T KAlg= 1 I1Cent= 0 FoldK=F
 E= -2905.42696179617     Delta-E=       -0.000000000194 Rises=F Damp=F
 DIIS: error= 1.56D-07 at cycle  11 NSaved=  11.
 NSaved=11 IEnMin=11 EnMin= -2905.42696179617     IErMin=11 ErrMin= 1.56D-07
 ErrMax= 1.56D-07 EMaxC= 1.00D-01 BMatC= 6.04D-12 BMatP= 4.62D-11
 IDIUse=1 WtCom= 1.00D+00 WtEn= 0.00D+00
 Coeff-Com:  0.450D-06-0.683D-05-0.565D-04-0.491D-04-0.266D-03 0.114D-04
 Coeff-Com:  0.920D-02 0.666D-02-0.129D+00-0.111D+00 0.122D+01
 Coeff:      0.450D-06-0.683D-05-0.565D-04-0.491D-04-0.266D-03 0.114D-04
 Coeff:      0.920D-02 0.666D-02-0.129D+00-0.111D+00 0.122D+01
 Gap=     0.426 Goal=   None    Shift=    0.000
 RMSDP=3.68D-08 MaxDP=7.96D-07 DE=-1.94D-10 OVMax= 5.58D-06

 Cycle  12  Pass 1  IDiag  1:
 RMSU=  7.50D-09    CP:  1.02D+00  6.37D-01  9.70D-01  7.44D-01  1.27D+00
                    CP:  9.17D-01  1.29D+00  1.40D+00  1.67D+00  1.57D+00
                    CP:  1.47D+00
 FoFJK:  IHMeth= 1 ICntrl=     0 DoSepK=T KAlg= 1 I1Cent= 0 FoldK=F
 E= -2905.42696179620     Delta-E=       -0.000000000026 Rises=F Damp=F
 DIIS: error= 4.65D-08 at cycle  12 NSaved=  12.
 NSaved=12 IEnMin=12 EnMin= -2905.42696179620     IErMin=12 ErrMin= 4.65D-08
 ErrMax= 4.65D-08 EMaxC= 1.00D-01 BMatC= 3.69D-13 BMatP= 6.04D-12
 IDIUse=1 WtCom= 1.00D+00 WtEn= 0.00D+00
 Coeff-Com: -0.419D-07 0.103D-05 0.852D-05 0.966D-07-0.122D-03-0.197D-03
 Coeff-Com: -0.319D-03 0.693D-02 0.885D-02-0.730D-01-0.139D+00 0.120D+01
 Coeff:     -0.419D-07 0.103D-05 0.852D-05 0.966D-07-0.122D-03-0.197D-03
 Coeff:     -0.319D-03 0.693D-02 0.885D-02-0.730D-01-0.139D+00 0.120D+01
 Gap=     0.426 Goal=   None    Shift=    0.000
 RMSDP=1.07D-08 MaxDP=2.40D-07 DE=-2.64D-11 OVMax= 1.43D-06

 Cycle  13  Pass 1  IDiag  1:
 RMSU=  1.95D-09    CP:  1.02D+00  6.37D-01  9.70D-01  7.44D-01  1.27D+00
                    CP:  9.17D-01  1.29D+00  1.40D+00  1.68D+00  1.60D+00
                    CP:  1.63D+00  1.54D+00
 FoFJK:  IHMeth= 1 ICntrl=     0 DoSepK=T KAlg= 1 I1Cent= 0 FoldK=F
 E= -2905.42696179619     Delta-E=        0.000000000009 Rises=F Damp=F
 DIIS: error= 8.04D-09 at cycle  13 NSaved=  13.
 NSaved=13 IEnMin=12 EnMin= -2905.42696179620     IErMin=13 ErrMin= 8.04D-09
 ErrMax= 8.04D-09 EMaxC= 1.00D-01 BMatC= 2.52D-14 BMatP= 3.69D-13
 IDIUse=1 WtCom= 1.00D+00 WtEn= 0.00D+00
 Coeff-Com: -0.366D-07 0.442D-06 0.387D-05 0.110D-05 0.111D-04-0.680D-06
 Coeff-Com: -0.516D-03-0.327D-03 0.879D-02 0.300D-02-0.912D-01 0.892D-01
 Coeff-Com:  0.991D+00
 Coeff:     -0.366D-07 0.442D-06 0.387D-05 0.110D-05 0.111D-04-0.680D-06
 Coeff:     -0.516D-03-0.327D-03 0.879D-02 0.300D-02-0.912D-01 0.892D-01
 Coeff:      0.991D+00
 Gap=     0.426 Goal=   None    Shift=    0.000
 RMSDP=2.45D-09 MaxDP=6.46D-08 DE= 8.64D-12 OVMax= 2.30D-07

 SCF Done:  E(RwB97XD) =  -2905.42696180     A.U. after   13 cycles
             Convg  =    0.2453D-08             -V/T =  2.0015
 KE= 2.900933334677D+03 PE=-7.235766468189D+03 EE= 1.280665197900D+03
 Leave Link  502 at Thu Apr 16 12:35:22 2020, MaxMem= 1073741824 cpu:     400.8
 (Enter /home/matheus/.gaussian/g09/l601.exe)
 Copying SCF densities to generalized density rwf, IOpCl= 0 IROHF=0.

 **********************************************************************

            Population analysis using the SCF density.

 **********************************************************************

 Orbital symmetries:
       Occupied  (A) (A) (A) (A) (A) (A) (A) (A) (A) (A) (A) (A)
                 (A) (A) (A) (A) (A) (A) (A) (A) (A) (A) (A) (A)
                 (A) (A) (A)
       Virtual   (A) (A) (A) (A) (A) (A) (A) (A) (A) (A) (A) (A)
                 (A) (A) (A) (A) (A) (A) (A) (A) (A) (A) (A) (A)
                 (A) (A) (A) (A) (A) (A) (A) (A) (A) (A) (A) (A)
                 (A) (A) (A) (A) (A) (A) (A) (A) (A) (A) (A) (A)
                 (A) (A) (A) (A) (A) (A) (A) (A) (A) (A) (A) (A)
                 (A) (A) (A) (A) (A) (A) (A) (A) (A) (A) (A) (A)
                 (A) (A) (A) (A) (A) (A) (A) (A) (A) (A) (A) (A)
                 (A) (A) (A) (A) (A) (A) (A) (A) (A) (A) (A) (A)
                 (A) (A) (A) (A) (A) (A) (A) (A) (A) (A) (A) (A)
                 (A) (A) (A) (A) (A) (A) (A) (A) (A) (A) (A) (A)
                 (A) (A) (A) (A) (A) (A) (A) (A) (A) (A) (A) (A)
                 (A) (A) (A) (A) (A) (A) (A) (A) (A) (A) (A) (A)
                 (A) (A) (A) (A) (A) (A) (A) (A) (A) (A) (A) (A)
                 (A) (A) (A) (A) (A) (A) (A) (A) (A) (A) (A) (A)
                 (A) (A)
 The electronic state is 1-A.
 Alpha  occ. eigenvalues -- -513.09105 -67.35931 -60.90812 -60.90799 -60.90791
 Alpha  occ. eigenvalues --  -19.33964 -19.33581  -9.81260  -7.50596  -7.50552
 Alpha  occ. eigenvalues --   -7.50526  -3.37277  -3.37269  -3.37249  -3.37213
 Alpha  occ. eigenvalues --   -3.37211  -1.24459  -1.03320  -1.01931  -0.66039
 Alpha  occ. eigenvalues --   -0.60573  -0.53142  -0.49693  -0.49273  -0.48519
 Alpha  occ. eigenvalues --   -0.43190  -0.39027
 Alpha virt. eigenvalues --    0.03561   0.04343   0.08238   0.09867   0.10598
 Alpha virt. eigenvalues --    0.11794   0.13635   0.14039   0.16954   0.17915
 Alpha virt. eigenvalues --    0.18474   0.19048   0.20602   0.22211   0.23656
 Alpha virt. eigenvalues --    0.24359   0.25767   0.28216   0.31267   0.33198
 Alpha virt. eigenvalues --    0.34099   0.34846   0.35703   0.38538   0.39375
 Alpha virt. eigenvalues --    0.40732   0.42098   0.47494   0.51829   0.55072
 Alpha virt. eigenvalues --    0.55684   0.58342   0.60975   0.65751   0.67004
 Alpha virt. eigenvalues --    0.69619   0.70859   0.71538   0.74028   0.74827
 Alpha virt. eigenvalues --    0.75167   0.77207   0.77353   0.79501   0.81389
 Alpha virt. eigenvalues --    0.84424   0.85048   0.87261   0.88861   0.89423
 Alpha virt. eigenvalues --    0.91920   0.93113   0.94626   0.95976   0.99635
 Alpha virt. eigenvalues --    1.00347   1.01779   1.03833   1.05733   1.07131
 Alpha virt. eigenvalues --    1.08670   1.14270   1.14800   1.17274   1.22064
 Alpha virt. eigenvalues --    1.24316   1.30257   1.32109   1.36494   1.40232
 Alpha virt. eigenvalues --    1.41828   1.48871   1.51457   1.52785   1.58326
 Alpha virt. eigenvalues --    1.64999   1.72328   1.81733   1.86007   1.92730
 Alpha virt. eigenvalues --    1.96684   1.99796   2.09309   2.11224   2.14333
 Alpha virt. eigenvalues --    2.14391   2.16936   2.18682   2.20562   2.23889
 Alpha virt. eigenvalues --    2.25593   2.29051   2.30276   2.30694   2.34929
 Alpha virt. eigenvalues --    2.36686   2.38257   2.42668   2.43565   2.47117
 Alpha virt. eigenvalues --    2.47525   2.48553   2.53420   2.53942   2.56602
 Alpha virt. eigenvalues --    2.58718   2.60936   2.62479   2.65823   2.70652
 Alpha virt. eigenvalues --    2.71703   2.75737   2.78097   2.85099   2.86984
 Alpha virt. eigenvalues --    2.89519   3.03819   3.09764   3.13034   3.60298
 Alpha virt. eigenvalues --    3.66326   3.87418   3.94633   4.01356   4.06856
 Alpha virt. eigenvalues --    4.10137   4.15324   4.21178   4.25039   4.27237
 Alpha virt. eigenvalues --    4.41575   4.49682   4.50351   4.54038   4.68477
 Alpha virt. eigenvalues --    4.87768   4.95996   5.04747   5.11228   5.11944
 Alpha virt. eigenvalues --    5.21443   5.43409   5.83526   6.05772   6.10186
 Alpha virt. eigenvalues --    6.12269   6.30351   6.34109   6.42455   6.54118
 Alpha virt. eigenvalues --    6.59043   6.77135   6.78128   6.81253   6.83606
 Alpha virt. eigenvalues --    6.86885   6.87955   6.88706   6.97098   7.01623
 Alpha virt. eigenvalues --    7.05117   7.17571   7.25369   7.42582   7.72449
 Alpha virt. eigenvalues --    7.80725   8.07594   8.11686  13.96644  14.66944
          Condensed to atoms (all electrons):
              1          2          3          4          5
     1  O    8.156906  -0.163285   0.229994   0.001245  -0.021947
     2  O   -0.163285   8.237013   0.008453   0.202114  -0.016869
     3  H    0.229994   0.008453   0.542597   0.002697   0.002183
     4  H    0.001245   0.202114   0.002697   0.550184  -0.004273
     5  Kr  -0.021947  -0.016869   0.002183  -0.004273  36.032677
 Mulliken atomic charges:
              1
     1  O   -0.202913
     2  O   -0.267426
     3  H    0.214077
     4  H    0.248034
     5  Kr   0.008229
 Sum of Mulliken atomic charges =   0.00000
 Mulliken charges with hydrogens summed into heavy atoms:
              1
     1  O    0.011163
     2  O   -0.019392
     5  Kr   0.008229
 Sum of Mulliken charges with hydrogens summed into heavy atoms =   0.00000
 Electronic spatial extent (au):  <R**2>=            488.3353
 Charge=              0.0000 electrons
 Dipole moment (field-independent basis, Debye):
    X=              0.9317    Y=             -0.3913    Z=              1.3199  Tot=              1.6623
 Quadrupole moment (field-independent basis, Debye-Ang):
   XX=            -30.9181   YY=            -28.0428   ZZ=            -29.4548
   XY=              3.2185   XZ=             -3.5959   YZ=             -1.5286
 Traceless Quadrupole moment (field-independent basis, Debye-Ang):
   XX=             -1.4462   YY=              1.4291   ZZ=              0.0171
   XY=              3.2185   XZ=             -3.5959   YZ=             -1.5286
 Octapole moment (field-independent basis, Debye-Ang**2):
  XXX=             20.0985  YYY=             -1.0058  ZZZ=              0.9128  XYY=              4.3060
  XXY=            -11.8713  XXZ=              9.2251  XZZ=              5.7809  YZZ=             -1.4721
  YYZ=              1.8634  XYZ=              4.0564
 Hexadecapole moment (field-independent basis, Debye-Ang**3):
 XXXX=           -412.6562 YYYY=            -63.3627 ZZZZ=            -29.9708 XXXY=             31.8247
 XXXZ=            -24.7279 YYYX=              5.3655 YYYZ=             -2.1017 ZZZX=             -2.7819
 ZZZY=             -1.4034 XXYY=            -76.9926 XXZZ=            -72.4452 YYZZ=            -16.4140
 XXYZ=            -10.6633 YYXZ=             -4.7285 ZZXY=              3.2077
 N-N= 1.487409738160D+02 E-N=-7.235766467865D+03  KE= 2.900933334677D+03
 No NMR shielding tensors so no spin-rotation constants.
 Leave Link  601 at Thu Apr 16 12:35:23 2020, MaxMem= 1073741824 cpu:       0.8
 (Enter /home/matheus/.gaussian/g09/l108.exe)
 Variable Step   Value    
 -------- ---- -----------
     1       1    5.858151
 Leave Link  108 at Thu Apr 16 12:35:23 2020, MaxMem= 1073741824 cpu:       0.0
 (Enter /home/matheus/.gaussian/g09/l202.exe)
 ---------------------------------------------------------------------------------------------------
                            Z-MATRIX (ANGSTROMS AND DEGREES)
   CD    Cent   Atom    N1       Length/X        N2       Alpha/Y        N3        Beta/Z          J
 ---------------------------------------------------------------------------------------------------
      1      1  O        0   0.000000          0.000000          0.725000
      2      2  O        0   0.000000          0.000000         -0.725000
      3      3  H        0  -0.795635         -0.459360          1.023510
      4      4  H        0   0.000000          0.918721         -1.023510
      5      5  Kr       0   0.000000          3.100000          0.000000
 ---------------------------------------------------------------------------------------------------
                         Z-Matrix orientation:                         
 ---------------------------------------------------------------------
 Center     Atomic      Atomic             Coordinates (Angstroms)
 Number     Number       Type             X           Y           Z
 ---------------------------------------------------------------------
      1          8           0        0.000000    0.000000    0.725000
      2          8           0        0.000000    0.000000   -0.725000
      3          1           0       -0.795635   -0.459360    1.023510
      4          1           0        0.000000    0.918721   -1.023510
      5         36           0        0.000000    3.100000    0.000000
 ---------------------------------------------------------------------
                    Distance matrix (angstroms):
                    1          2          3          4          5
     1  O    0.000000
     2  O    1.450000   0.000000
     3  H    0.966000   1.975180   0.000000
     4  H    1.975180   0.966000   2.592766   0.000000
     5  Kr   3.183650   3.183650   3.788094   2.409472   0.000000
 Stoichiometry    H2KrO2
 Framework group  C1[X(H2KrO2)]
 Deg. of freedom     9
 Full point group                 C1      NOp   1
 RotChk:  IX=0 Diff= 1.79D-03
 Largest Abelian subgroup         C1      NOp   1
 Largest concise Abelian subgroup C1      NOp   1
                         Standard orientation:                         
 ---------------------------------------------------------------------
 Center     Atomic      Atomic             Coordinates (Angstroms)
 Number     Number       Type             X           Y           Z
 ---------------------------------------------------------------------
      1          8           0       -2.084317   -0.690265   -0.106508
      2          8           0       -2.064459    0.755071    0.007984
      3          1           0       -2.561810   -1.043525    0.655308
      4          1           0       -1.141882    1.038790    0.046862
      5         36           0        1.024830   -0.014270    0.002390
 ---------------------------------------------------------------------
 Rotational constants (GHZ):     25.8779979      2.1767055      2.0170695
 Leave Link  202 at Thu Apr 16 12:35:23 2020, MaxMem= 1073741824 cpu:       0.0
 (Enter /home/matheus/.gaussian/g09/l301.exe)
 Standard basis: Aug-CC-pVTZ (5D, 7F)
 Ernie: Thresh=  0.10000D-02 Tol=  0.10000D-05 Strict=F.
 Ernie:  38 primitive shells out of 205 were deleted.
 There are   197 symmetry adapted basis functions of A   symmetry.
 Integral buffers will be    131072 words long.
 Raffenetti 2 integral format.
 Two-electron integral symmetry is turned on.
   197 basis functions,   415 primitive gaussians,   229 cartesian basis functions
    27 alpha electrons       27 beta electrons
       nuclear repulsion energy       145.2888945549 Hartrees.
 IExCor= 4639 DFT=T Ex+Corr=wB97XD ExCW=0 ScaHFX=  1.000000
 ScaDFX=  1.000000  1.000000  1.000000  1.000000 ScalE2=  1.000000  1.000000
 IRadAn=      5 IRanWt=     -1 IRanGd=            0 ICorTp=0
  HFx wShort=  0.000000 wLong=  0.250000 cFull=  0.222036 cShort=  0.000000 cLong=  0.777964
  DFx wShort=  0.000000 wLong=  0.250000 cFull=  0.000000 cShort=  0.000000 cLong=  1.000000
 NAtoms=    5 NActive=    5 NUniq=    5 SFac= 1.00D+00 NAtFMM=   60 NAOKFM=F Big=F
 R6Disp: Dispersion energy =        -0.0009039960 Hartrees.
 Nuclear repulsion after empirical dispersion term =      145.2879905589 Hartrees.
 Leave Link  301 at Thu Apr 16 12:35:23 2020, MaxMem= 1073741824 cpu:       0.2
 (Enter /home/matheus/.gaussian/g09/l302.exe)
 NPDir=0 NMtPBC=     1 NCelOv=     1 NCel=       1 NClECP=     1 NCelD=      1
         NCelK=      1 NCelE2=     1 NClLst=     1 CellRange=     0.0.
 One-electron integrals computed using PRISM.
 NBasis=   197 RedAO= T  NBF=   197
 NBsUse=   197 1.00D-06 NBFU=   197
 Precomputing XC quadrature grid using
 IXCGrd= 2 IRadAn=           5 IRanWt=          -1 IRanGd=           0 AccXCQ= 0.00D+00.
 NRdTot=     427 NPtTot=      123512 NUsed=      126579 NTot=      126611
 NSgBfM=   229   229   229   229   229 NAtAll=     5     5.
 Leave Link  302 at Thu Apr 16 12:35:23 2020, MaxMem= 1073741824 cpu:       1.3
 (Enter /home/matheus/.gaussian/g09/l303.exe)
 DipDrv:  MaxL=1.
 Leave Link  303 at Thu Apr 16 12:35:23 2020, MaxMem= 1073741824 cpu:       0.2
 (Enter /home/matheus/.gaussian/g09/l401.exe)
 Initial guess read from the read-write file.
 B after Tr=     0.000000    0.000000    0.000000
         Rot=    1.000000    0.000000    0.000000    0.000000 Ang=   0.00 deg.
 Guess basis will be translated and rotated to current coordinates.
 Initial guess orbital symmetries:
       Occupied  (A) (A) (A) (A) (A) (A) (A) (A) (A) (A) (A) (A)
                 (A) (A) (A) (A) (A) (A) (A) (A) (A) (A) (A) (A)
                 (A) (A) (A)
       Virtual   (A) (A) (A) (A) (A) (A) (A) (A) (A) (A) (A) (A)
                 (A) (A) (A) (A) (A) (A) (A) (A) (A) (A) (A) (A)
                 (A) (A) (A) (A) (A) (A) (A) (A) (A) (A) (A) (A)
                 (A) (A) (A) (A) (A) (A) (A) (A) (A) (A) (A) (A)
                 (A) (A) (A) (A) (A) (A) (A) (A) (A) (A) (A) (A)
                 (A) (A) (A) (A) (A) (A) (A) (A) (A) (A) (A) (A)
                 (A) (A) (A) (A) (A) (A) (A) (A) (A) (A) (A) (A)
                 (A) (A) (A) (A) (A) (A) (A) (A) (A) (A) (A) (A)
                 (A) (A) (A) (A) (A) (A) (A) (A) (A) (A) (A) (A)
                 (A) (A) (A) (A) (A) (A) (A) (A) (A) (A) (A) (A)
                 (A) (A) (A) (A) (A) (A) (A) (A) (A) (A) (A) (A)
                 (A) (A) (A) (A) (A) (A) (A) (A) (A) (A) (A) (A)
                 (A) (A) (A) (A) (A) (A) (A) (A) (A) (A) (A) (A)
                 (A) (A) (A) (A) (A) (A) (A) (A) (A) (A) (A) (A)
                 (A) (A)
 The electronic state of the initial guess is 1-A.
 Generating alternative initial guess.
 Harris functional with IExCor= 4639 diagonalized for initial guess.
 ExpMin= 2.53D-02 ExpMax= 1.17D+07 ExpMxC= 1.33D+04 IAcc=3 IRadAn=         5 AccDes= 0.00D+00
 HarFok:  IExCor= 4639 AccDes= 0.00D+00 IRadAn=         5 IDoV= 1
 ScaDFX=  1.000000  1.000000  1.000000  1.000000
 FoFCou: FMM=F IPFlag=           0 FMFlag=      100000 FMFlg1=           0
         NFxFlg=           0 DoJE=T BraDBF=F KetDBF=T FulRan=T
         Omega=  0.000000  0.000000  1.000000  0.000000  0.000000 ICntrl=     500 IOpCl=  0
         NMat0=    1 NMatS0=    1 NMatT0=    0 NMatD0=    1 NMtDS0=    0 NMtDT0=    0
         I1Cent=           4 NGrid=           0.
 Petite list used in FoFCou.
 Harris En= -2875.40026155681    
 Leave Link  401 at Thu Apr 16 12:35:24 2020, MaxMem= 1073741824 cpu:       5.6
 (Enter /home/matheus/.gaussian/g09/l502.exe)
 Closed shell SCF:
 Requested convergence on RMS density matrix=1.00D-08 within 128 cycles.
 Requested convergence on MAX density matrix=1.00D-06.
 Requested convergence on             energy=1.00D-06.
 No special actions if energy rises.
 Using DIIS extrapolation, IDIIS=  1040.
 Integral symmetry usage will be decided dynamically.
       126521 words used for storage of precomputed grid.
 IEnd=      305468 IEndB=      305468 NGot=  1073741824 MDV=  1073505667
 LenX=  1073505667 LenY=  1073452785
 Fock matrices will be formed incrementally for  20 cycles.

 Cycle   1  Pass 1  IDiag  1:
 FoFJK:  IHMeth= 1 ICntrl=     0 DoSepK=T KAlg= 1 I1Cent= 0 FoldK=F
 FoFCou: FMM=F IPFlag=           0 FMFlag=      100000 FMFlg1=           0
         NFxFlg=           0 DoJE=T BraDBF=F KetDBF=F FulRan=T
         Omega=  0.000000  0.000000  1.000000  0.000000  0.000000 ICntrl=     500 IOpCl=  0
         NMat0=    1 NMatS0=    1 NMatT0=    0 NMatD0=    1 NMtDS0=    0 NMtDT0=    0
         I1Cent=           0 NGrid=           0.
 Symmetry not used in FoFCou.
 E= -2905.42859397577    
 DIIS: error= 1.30D-03 at cycle   1 NSaved=   1.
 NSaved= 1 IEnMin= 1 EnMin= -2905.42859397577     IErMin= 1 ErrMin= 1.30D-03
 ErrMax= 1.30D-03 EMaxC= 1.00D-01 BMatC= 5.32D-04 BMatP= 5.32D-04
 IDIUse=3 WtCom= 9.87D-01 WtEn= 1.30D-02
 Coeff-Com:  0.100D+01
 Coeff-En:   0.100D+01
 Coeff:      0.100D+01
 Gap=     0.428 Goal=   None    Shift=    0.000
 GapD=    0.428 DampG=2.000 DampE=1.000 DampFc=2.0000 IDamp=-1.
 RMSDP=7.79D-05 MaxDP=2.34D-03              OVMax= 3.33D-03

 Cycle   2  Pass 1  IDiag  1:
 RMSU=  5.51D-05    CP:  1.00D+00
 FoFJK:  IHMeth= 1 ICntrl=     0 DoSepK=T KAlg= 1 I1Cent= 0 FoldK=F
 E= -2905.42869531860     Delta-E=       -0.000101342832 Rises=F Damp=F
 DIIS: error= 1.05D-04 at cycle   2 NSaved=   2.
 NSaved= 2 IEnMin= 2 EnMin= -2905.42869531860     IErMin= 2 ErrMin= 1.05D-04
 ErrMax= 1.05D-04 EMaxC= 1.00D-01 BMatC= 5.21D-06 BMatP= 5.32D-04
 IDIUse=3 WtCom= 9.99D-01 WtEn= 1.05D-03
 Coeff-Com: -0.372D-03 0.100D+01
 Coeff-En:   0.000D+00 0.100D+01
 Coeff:     -0.372D-03 0.100D+01
 Gap=     0.426 Goal=   None    Shift=    0.000
 RMSDP=1.71D-05 MaxDP=7.30D-04 DE=-1.01D-04 OVMax= 7.69D-04

 Cycle   3  Pass 1  IDiag  1:
 RMSU=  9.91D-06    CP:  1.00D+00  1.13D+00
 FoFJK:  IHMeth= 1 ICntrl=     0 DoSepK=T KAlg= 1 I1Cent= 0 FoldK=F
 E= -2905.42869795448     Delta-E=       -0.000002635876 Rises=F Damp=F
 DIIS: error= 1.03D-04 at cycle   3 NSaved=   3.
 NSaved= 3 IEnMin= 3 EnMin= -2905.42869795448     IErMin= 3 ErrMin= 1.03D-04
 ErrMax= 1.03D-04 EMaxC= 1.00D-01 BMatC= 4.60D-06 BMatP= 5.21D-06
 IDIUse=3 WtCom= 9.99D-01 WtEn= 1.03D-03
 Coeff-Com: -0.832D-02 0.487D+00 0.522D+00
 Coeff-En:   0.000D+00 0.219D+00 0.781D+00
 Coeff:     -0.831D-02 0.486D+00 0.522D+00
 Gap=     0.426 Goal=   None    Shift=    0.000
 RMSDP=6.02D-06 MaxDP=3.22D-04 DE=-2.64D-06 OVMax= 4.82D-04

 Cycle   4  Pass 1  IDiag  1:
 RMSU=  3.20D-06    CP:  1.00D+00  1.14D+00  7.32D-01
 FoFJK:  IHMeth= 1 ICntrl=     0 DoSepK=T KAlg= 1 I1Cent= 0 FoldK=F
 E= -2905.42870075133     Delta-E=       -0.000002796850 Rises=F Damp=F
 DIIS: error= 2.34D-05 at cycle   4 NSaved=   4.
 NSaved= 4 IEnMin= 4 EnMin= -2905.42870075133     IErMin= 4 ErrMin= 2.34D-05
 ErrMax= 2.34D-05 EMaxC= 1.00D-01 BMatC= 2.25D-07 BMatP= 4.60D-06
 IDIUse=1 WtCom= 1.00D+00 WtEn= 0.00D+00
 Coeff-Com: -0.267D-02 0.631D-01 0.182D+00 0.757D+00
 Coeff:     -0.267D-02 0.631D-01 0.182D+00 0.757D+00
 Gap=     0.426 Goal=   None    Shift=    0.000
 RMSDP=2.03D-06 MaxDP=6.45D-05 DE=-2.80D-06 OVMax= 1.20D-04

 Cycle   5  Pass 1  IDiag  1:
 RMSU=  1.11D-06    CP:  1.00D+00  1.15D+00  8.08D-01  1.02D+00
 FoFJK:  IHMeth= 1 ICntrl=     0 DoSepK=T KAlg= 1 I1Cent= 0 FoldK=F
 E= -2905.42870091602     Delta-E=       -0.000000164697 Rises=F Damp=F
 DIIS: error= 1.21D-05 at cycle   5 NSaved=   5.
 NSaved= 5 IEnMin= 5 EnMin= -2905.42870091602     IErMin= 5 ErrMin= 1.21D-05
 ErrMax= 1.21D-05 EMaxC= 1.00D-01 BMatC= 3.89D-08 BMatP= 2.25D-07
 IDIUse=1 WtCom= 1.00D+00 WtEn= 0.00D+00
 Coeff-Com:  0.190D-03-0.548D-01-0.869D-02 0.324D+00 0.739D+00
 Coeff:      0.190D-03-0.548D-01-0.869D-02 0.324D+00 0.739D+00
 Gap=     0.426 Goal=   None    Shift=    0.000
 RMSDP=1.01D-06 MaxDP=4.34D-05 DE=-1.65D-07 OVMax= 4.97D-05

 Cycle   6  Pass 1  IDiag  1:
 RMSU=  3.63D-07    CP:  1.00D+00  1.15D+00  8.45D-01  1.16D+00  9.27D-01
 FoFJK:  IHMeth= 1 ICntrl=     0 DoSepK=T KAlg= 1 I1Cent= 0 FoldK=F
 E= -2905.42870094798     Delta-E=       -0.000000031952 Rises=F Damp=F
 DIIS: error= 1.94D-06 at cycle   6 NSaved=   6.
 NSaved= 6 IEnMin= 6 EnMin= -2905.42870094798     IErMin= 6 ErrMin= 1.94D-06
 ErrMax= 1.94D-06 EMaxC= 1.00D-01 BMatC= 1.43D-09 BMatP= 3.89D-08
 IDIUse=1 WtCom= 1.00D+00 WtEn= 0.00D+00
 Coeff-Com:  0.188D-03-0.205D-01-0.121D-01 0.611D-01 0.228D+00 0.743D+00
 Coeff:      0.188D-03-0.205D-01-0.121D-01 0.611D-01 0.228D+00 0.743D+00
 Gap=     0.426 Goal=   None    Shift=    0.000
 RMSDP=1.99D-07 MaxDP=6.35D-06 DE=-3.20D-08 OVMax= 1.11D-05

 Cycle   7  Pass 1  IDiag  1:
 RMSU=  9.10D-08    CP:  1.00D+00  1.15D+00  8.50D-01  1.18D+00  9.86D-01
                    CP:  1.06D+00
 FoFJK:  IHMeth= 1 ICntrl=     0 DoSepK=T KAlg= 1 I1Cent= 0 FoldK=F
 E= -2905.42870094951     Delta-E=       -0.000000001533 Rises=F Damp=F
 DIIS: error= 4.54D-07 at cycle   7 NSaved=   7.
 NSaved= 7 IEnMin= 7 EnMin= -2905.42870094951     IErMin= 7 ErrMin= 4.54D-07
 ErrMax= 4.54D-07 EMaxC= 1.00D-01 BMatC= 7.34D-11 BMatP= 1.43D-09
 IDIUse=1 WtCom= 1.00D+00 WtEn= 0.00D+00
 Coeff-Com: -0.149D-04 0.573D-02 0.113D-02-0.351D-01-0.774D-01 0.180D-01
 Coeff-Com:  0.109D+01
 Coeff:     -0.149D-04 0.573D-02 0.113D-02-0.351D-01-0.774D-01 0.180D-01
 Coeff:      0.109D+01
 Gap=     0.426 Goal=   None    Shift=    0.000
 RMSDP=1.01D-07 MaxDP=3.90D-06 DE=-1.53D-09 OVMax= 6.41D-06

 Cycle   8  Pass 1  IDiag  1:
 RMSU=  2.92D-08    CP:  1.00D+00  1.15D+00  8.53D-01  1.19D+00  1.01D+00
                    CP:  1.18D+00  1.21D+00
 FoFJK:  IHMeth= 1 ICntrl=     0 DoSepK=T KAlg= 1 I1Cent= 0 FoldK=F
 E= -2905.42870094965     Delta-E=       -0.000000000141 Rises=F Damp=F
 DIIS: error= 6.96D-08 at cycle   8 NSaved=   8.
 NSaved= 8 IEnMin= 8 EnMin= -2905.42870094965     IErMin= 8 ErrMin= 6.96D-08
 ErrMax= 6.96D-08 EMaxC= 1.00D-01 BMatC= 3.64D-12 BMatP= 7.34D-11
 IDIUse=1 WtCom= 1.00D+00 WtEn= 0.00D+00
 Coeff-Com: -0.125D-04 0.211D-02 0.754D-03-0.100D-01-0.247D-01-0.265D-01
 Coeff-Com:  0.185D+00 0.873D+00
 Coeff:     -0.125D-04 0.211D-02 0.754D-03-0.100D-01-0.247D-01-0.265D-01
 Coeff:      0.185D+00 0.873D+00
 Gap=     0.426 Goal=   None    Shift=    0.000
 RMSDP=1.48D-08 MaxDP=4.37D-07 DE=-1.41D-10 OVMax= 1.13D-06

 Cycle   9  Pass 1  IDiag  1:
 RMSU=  6.28D-09    CP:  1.00D+00  1.15D+00  8.53D-01  1.19D+00  1.01D+00
                    CP:  1.19D+00  1.26D+00  1.21D+00
 FoFJK:  IHMeth= 1 ICntrl=     0 DoSepK=T KAlg= 1 I1Cent= 0 FoldK=F
 E= -2905.42870094965     Delta-E=       -0.000000000001 Rises=F Damp=F
 DIIS: error= 2.28D-08 at cycle   9 NSaved=   9.
 NSaved= 9 IEnMin= 9 EnMin= -2905.42870094965     IErMin= 9 ErrMin= 2.28D-08
 ErrMax= 2.28D-08 EMaxC= 1.00D-01 BMatC= 2.78D-13 BMatP= 3.64D-12
 IDIUse=1 WtCom= 1.00D+00 WtEn= 0.00D+00
 Coeff-Com:  0.118D-05-0.445D-03-0.105D-03 0.264D-02 0.638D-02-0.114D-02
 Coeff-Com: -0.902D-01 0.192D-01 0.106D+01
 Coeff:      0.118D-05-0.445D-03-0.105D-03 0.264D-02 0.638D-02-0.114D-02
 Coeff:     -0.902D-01 0.192D-01 0.106D+01
 Gap=     0.426 Goal=   None    Shift=    0.000
 RMSDP=7.13D-09 MaxDP=2.31D-07 DE=-9.09D-13 OVMax= 5.27D-07

 SCF Done:  E(RwB97XD) =  -2905.42870095     A.U. after    9 cycles
             Convg  =    0.7126D-08             -V/T =  2.0016
 KE= 2.900920508312D+03 PE=-7.228857093832D+03 EE= 1.277219894011D+03
 Leave Link  502 at Thu Apr 16 12:35:59 2020, MaxMem= 1073741824 cpu:     278.6
 (Enter /home/matheus/.gaussian/g09/l108.exe)
 Variable Step   Value    
 -------- ---- -----------
     1       2    6.047124
 Leave Link  108 at Thu Apr 16 12:35:59 2020, MaxMem= 1073741824 cpu:       0.0
 (Enter /home/matheus/.gaussian/g09/l202.exe)
 ---------------------------------------------------------------------------------------------------
                            Z-MATRIX (ANGSTROMS AND DEGREES)
   CD    Cent   Atom    N1       Length/X        N2       Alpha/Y        N3        Beta/Z          J
 ---------------------------------------------------------------------------------------------------
      1      1  O        0   0.000000          0.000000          0.725000
      2      2  O        0   0.000000          0.000000         -0.725000
      3      3  H        0  -0.795635         -0.459360          1.023510
      4      4  H        0   0.000000          0.918721         -1.023510
      5      5  Kr       0   0.000000          3.200000          0.000000
 ---------------------------------------------------------------------------------------------------
                         Z-Matrix orientation:                         
 ---------------------------------------------------------------------
 Center     Atomic      Atomic             Coordinates (Angstroms)
 Number     Number       Type             X           Y           Z
 ---------------------------------------------------------------------
      1          8           0        0.000000    0.000000    0.725000
      2          8           0        0.000000    0.000000   -0.725000
      3          1           0       -0.795635   -0.459360    1.023510
      4          1           0        0.000000    0.918721   -1.023510
      5         36           0        0.000000    3.200000    0.000000
 ---------------------------------------------------------------------
                    Distance matrix (angstroms):
                    1          2          3          4          5
     1  O    0.000000
     2  O    1.450000   0.000000
     3  H    0.966000   1.975180   0.000000
     4  H    1.975180   0.966000   2.592766   0.000000
     5  Kr   3.281101   3.281101   3.882206   2.500362   0.000000
 Stoichiometry    H2KrO2
 Framework group  C1[X(H2KrO2)]
 Deg. of freedom     9
 Full point group                 C1      NOp   1
 RotChk:  IX=0 Diff= 1.62D-03
 Largest Abelian subgroup         C1      NOp   1
 Largest concise Abelian subgroup C1      NOp   1
                         Standard orientation:                         
 ---------------------------------------------------------------------
 Center     Atomic      Atomic             Coordinates (Angstroms)
 Number     Number       Type             X           Y           Z
 ---------------------------------------------------------------------
      1          8           0       -2.150357   -0.691348   -0.106409
      2          8           0       -2.131840    0.753996    0.008209
      3          1           0       -2.627053   -1.045146    0.655657
      4          1           0       -1.209518    1.038610    0.046566
      5         36           0        1.058171   -0.013740    0.002316
 ---------------------------------------------------------------------
 Rotational constants (GHZ):     25.8768573      2.0431342      1.9018494
 Leave Link  202 at Thu Apr 16 12:35:59 2020, MaxMem= 1073741824 cpu:       0.0
 (Enter /home/matheus/.gaussian/g09/l301.exe)
 Standard basis: Aug-CC-pVTZ (5D, 7F)
 Ernie: Thresh=  0.10000D-02 Tol=  0.10000D-05 Strict=F.
 Ernie:  38 primitive shells out of 205 were deleted.
 There are   197 symmetry adapted basis functions of A   symmetry.
 Integral buffers will be    131072 words long.
 Raffenetti 2 integral format.
 Two-electron integral symmetry is turned on.
   197 basis functions,   415 primitive gaussians,   229 cartesian basis functions
    27 alpha electrons       27 beta electrons
       nuclear repulsion energy       142.0359814431 Hartrees.
 IExCor= 4639 DFT=T Ex+Corr=wB97XD ExCW=0 ScaHFX=  1.000000
 ScaDFX=  1.000000  1.000000  1.000000  1.000000 ScalE2=  1.000000  1.000000
 IRadAn=      5 IRanWt=     -1 IRanGd=            0 ICorTp=0
  HFx wShort=  0.000000 wLong=  0.250000 cFull=  0.222036 cShort=  0.000000 cLong=  0.777964
  DFx wShort=  0.000000 wLong=  0.250000 cFull=  0.000000 cShort=  0.000000 cLong=  1.000000
 NAtoms=    5 NActive=    5 NUniq=    5 SFac= 1.00D+00 NAtFMM=   60 NAOKFM=F Big=F
 R6Disp: Dispersion energy =        -0.0009510081 Hartrees.
 Nuclear repulsion after empirical dispersion term =      142.0350304350 Hartrees.
 Leave Link  301 at Thu Apr 16 12:35:59 2020, MaxMem= 1073741824 cpu:       0.2
 (Enter /home/matheus/.gaussian/g09/l302.exe)
 NPDir=0 NMtPBC=     1 NCelOv=     1 NCel=       1 NClECP=     1 NCelD=      1
         NCelK=      1 NCelE2=     1 NClLst=     1 CellRange=     0.0.
 One-electron integrals computed using PRISM.
 NBasis=   197 RedAO= T  NBF=   197
 NBsUse=   197 1.00D-06 NBFU=   197
 Precomputing XC quadrature grid using
 IXCGrd= 2 IRadAn=           5 IRanWt=          -1 IRanGd=           0 AccXCQ= 0.00D+00.
 NRdTot=     427 NPtTot=      123814 NUsed=      126881 NTot=      126913
 NSgBfM=   229   229   229   229   229 NAtAll=     5     5.
 Leave Link  302 at Thu Apr 16 12:35:59 2020, MaxMem= 1073741824 cpu:       1.0
 (Enter /home/matheus/.gaussian/g09/l303.exe)
 DipDrv:  MaxL=1.
 Leave Link  303 at Thu Apr 16 12:35:59 2020, MaxMem= 1073741824 cpu:       0.2
 (Enter /home/matheus/.gaussian/g09/l401.exe)
 Initial guess read from the read-write file.
 B after Tr=     0.000000    0.000000    0.000000
         Rot=    1.000000    0.000000    0.000000    0.000000 Ang=   0.00 deg.
 Guess basis will be translated and rotated to current coordinates.
 Initial guess orbital symmetries:
       Occupied  (A) (A) (A) (A) (A) (A) (A) (A) (A) (A) (A) (A)
                 (A) (A) (A) (A) (A) (A) (A) (A) (A) (A) (A) (A)
                 (A) (A) (A)
       Virtual   (A) (A) (A) (A) (A) (A) (A) (A) (A) (A) (A) (A)
                 (A) (A) (A) (A) (A) (A) (A) (A) (A) (A) (A) (A)
                 (A) (A) (A) (A) (A) (A) (A) (A) (A) (A) (A) (A)
                 (A) (A) (A) (A) (A) (A) (A) (A) (A) (A) (A) (A)
                 (A) (A) (A) (A) (A) (A) (A) (A) (A) (A) (A) (A)
                 (A) (A) (A) (A) (A) (A) (A) (A) (A) (A) (A) (A)
                 (A) (A) (A) (A) (A) (A) (A) (A) (A) (A) (A) (A)
                 (A) (A) (A) (A) (A) (A) (A) (A) (A) (A) (A) (A)
                 (A) (A) (A) (A) (A) (A) (A) (A) (A) (A) (A) (A)
                 (A) (A) (A) (A) (A) (A) (A) (A) (A) (A) (A) (A)
                 (A) (A) (A) (A) (A) (A) (A) (A) (A) (A) (A) (A)
                 (A) (A) (A) (A) (A) (A) (A) (A) (A) (A) (A) (A)
                 (A) (A) (A) (A) (A) (A) (A) (A) (A) (A) (A) (A)
                 (A) (A) (A) (A) (A) (A) (A) (A) (A) (A) (A) (A)
                 (A) (A)
 The electronic state of the initial guess is 1-A.
 Generating alternative initial guess.
 Harris functional with IExCor= 4639 diagonalized for initial guess.
 ExpMin= 2.53D-02 ExpMax= 1.17D+07 ExpMxC= 1.33D+04 IAcc=3 IRadAn=         5 AccDes= 0.00D+00
 HarFok:  IExCor= 4639 AccDes= 0.00D+00 IRadAn=         5 IDoV= 1
 ScaDFX=  1.000000  1.000000  1.000000  1.000000
 FoFCou: FMM=F IPFlag=           0 FMFlag=      100000 FMFlg1=           0
         NFxFlg=           0 DoJE=T BraDBF=F KetDBF=T FulRan=T
         Omega=  0.000000  0.000000  1.000000  0.000000  0.000000 ICntrl=     500 IOpCl=  0
         NMat0=    1 NMatS0=    1 NMatT0=    0 NMatD0=    1 NMtDS0=    0 NMtDT0=    0
         I1Cent=           4 NGrid=           0.
 Petite list used in FoFCou.
 Harris En= -2875.40255394396    
 Leave Link  401 at Thu Apr 16 12:35:59 2020, MaxMem= 1073741824 cpu:       4.9
 (Enter /home/matheus/.gaussian/g09/l502.exe)
 Closed shell SCF:
 Requested convergence on RMS density matrix=1.00D-08 within 128 cycles.
 Requested convergence on MAX density matrix=1.00D-06.
 Requested convergence on             energy=1.00D-06.
 No special actions if energy rises.
 Using DIIS extrapolation, IDIIS=  1040.
 Integral symmetry usage will be decided dynamically.
       126823 words used for storage of precomputed grid.
 IEnd=      305770 IEndB=      305770 NGot=  1073741824 MDV=  1073505365
 LenX=  1073505365 LenY=  1073452483
 Fock matrices will be formed incrementally for  20 cycles.

 Cycle   1  Pass 1  IDiag  1:
 FoFJK:  IHMeth= 1 ICntrl=     0 DoSepK=T KAlg= 1 I1Cent= 0 FoldK=F
 FoFCou: FMM=F IPFlag=           0 FMFlag=      100000 FMFlg1=           0
         NFxFlg=           0 DoJE=T BraDBF=F KetDBF=F FulRan=T
         Omega=  0.000000  0.000000  1.000000  0.000000  0.000000 ICntrl=     500 IOpCl=  0
         NMat0=    1 NMatS0=    1 NMatT0=    0 NMatD0=    1 NMtDS0=    0 NMtDT0=    0
         I1Cent=           0 NGrid=           0.
 Symmetry not used in FoFCou.
 E= -2905.42975310215    
 DIIS: error= 1.08D-03 at cycle   1 NSaved=   1.
 NSaved= 1 IEnMin= 1 EnMin= -2905.42975310215     IErMin= 1 ErrMin= 1.08D-03
 ErrMax= 1.08D-03 EMaxC= 1.00D-01 BMatC= 4.09D-04 BMatP= 4.09D-04
 IDIUse=3 WtCom= 9.89D-01 WtEn= 1.08D-02
 Coeff-Com:  0.100D+01
 Coeff-En:   0.100D+01
 Coeff:      0.100D+01
 Gap=     0.428 Goal=   None    Shift=    0.000
 GapD=    0.428 DampG=2.000 DampE=1.000 DampFc=2.0000 IDamp=-1.
 RMSDP=7.04D-05 MaxDP=2.00D-03              OVMax= 3.04D-03

 Cycle   2  Pass 1  IDiag  1:
 RMSU=  4.98D-05    CP:  1.00D+00
 FoFJK:  IHMeth= 1 ICntrl=     0 DoSepK=T KAlg= 1 I1Cent= 0 FoldK=F
 E= -2905.42982982442     Delta-E=       -0.000076722275 Rises=F Damp=F
 DIIS: error= 8.26D-05 at cycle   2 NSaved=   2.
 NSaved= 2 IEnMin= 2 EnMin= -2905.42982982442     IErMin= 2 ErrMin= 8.26D-05
 ErrMax= 8.26D-05 EMaxC= 1.00D-01 BMatC= 3.49D-06 BMatP= 4.09D-04
 IDIUse=1 WtCom= 1.00D+00 WtEn= 0.00D+00
 Coeff-Com: -0.240D-02 0.100D+01
 Coeff:     -0.240D-02 0.100D+01
 Gap=     0.426 Goal=   None    Shift=    0.000
 RMSDP=1.47D-05 MaxDP=5.69D-04 DE=-7.67D-05 OVMax= 7.05D-04

 Cycle   3  Pass 1  IDiag  1:
 RMSU=  8.18D-06    CP:  1.00D+00  1.13D+00
 FoFJK:  IHMeth= 1 ICntrl=     0 DoSepK=T KAlg= 1 I1Cent= 0 FoldK=F
 E= -2905.42983178061     Delta-E=       -0.000001956186 Rises=F Damp=F
 DIIS: error= 8.58D-05 at cycle   3 NSaved=   3.
 NSaved= 3 IEnMin= 3 EnMin= -2905.42983178061     IErMin= 2 ErrMin= 8.26D-05
 ErrMax= 8.58D-05 EMaxC= 1.00D-01 BMatC= 3.08D-06 BMatP= 3.49D-06
 IDIUse=1 WtCom= 1.00D+00 WtEn= 0.00D+00
 Coeff-Com: -0.811D-02 0.487D+00 0.521D+00
 Coeff:     -0.811D-02 0.487D+00 0.521D+00
 Gap=     0.427 Goal=   None    Shift=    0.000
 RMSDP=5.00D-06 MaxDP=2.62D-04 DE=-1.96D-06 OVMax= 4.01D-04

 Cycle   4  Pass 1  IDiag  1:
 RMSU=  2.75D-06    CP:  1.00D+00  1.15D+00  7.52D-01
 FoFJK:  IHMeth= 1 ICntrl=     0 DoSepK=T KAlg= 1 I1Cent= 0 FoldK=F
 E= -2905.42983365929     Delta-E=       -0.000001878684 Rises=F Damp=F
 DIIS: error= 1.91D-05 at cycle   4 NSaved=   4.
 NSaved= 4 IEnMin= 4 EnMin= -2905.42983365929     IErMin= 4 ErrMin= 1.91D-05
 ErrMax= 1.91D-05 EMaxC= 1.00D-01 BMatC= 1.60D-07 BMatP= 3.08D-06
 IDIUse=1 WtCom= 1.00D+00 WtEn= 0.00D+00
 Coeff-Com: -0.233D-02 0.479D-01 0.179D+00 0.775D+00
 Coeff:     -0.233D-02 0.479D-01 0.179D+00 0.775D+00
 Gap=     0.427 Goal=   None    Shift=    0.000
 RMSDP=1.84D-06 MaxDP=6.28D-05 DE=-1.88D-06 OVMax= 1.11D-04

 Cycle   5  Pass 1  IDiag  1:
 RMSU=  9.35D-07    CP:  1.00D+00  1.16D+00  8.40D-01  1.04D+00
 FoFJK:  IHMeth= 1 ICntrl=     0 DoSepK=T KAlg= 1 I1Cent= 0 FoldK=F
 E= -2905.42983377963     Delta-E=       -0.000000120343 Rises=F Damp=F
 DIIS: error= 9.42D-06 at cycle   5 NSaved=   5.
 NSaved= 5 IEnMin= 5 EnMin= -2905.42983377963     IErMin= 5 ErrMin= 9.42D-06
 ErrMax= 9.42D-06 EMaxC= 1.00D-01 BMatC= 2.63D-08 BMatP= 1.60D-07
 IDIUse=1 WtCom= 1.00D+00 WtEn= 0.00D+00
 Coeff-Com:  0.220D-03-0.557D-01-0.421D-02 0.328D+00 0.732D+00
 Coeff:      0.220D-03-0.557D-01-0.421D-02 0.328D+00 0.732D+00
 Gap=     0.427 Goal=   None    Shift=    0.000
 RMSDP=8.67D-07 MaxDP=3.72D-05 DE=-1.20D-07 OVMax= 4.31D-05

 Cycle   6  Pass 1  IDiag  1:
 RMSU=  3.03D-07    CP:  1.00D+00  1.16D+00  8.79D-01  1.17D+00  9.28D-01
 FoFJK:  IHMeth= 1 ICntrl=     0 DoSepK=T KAlg= 1 I1Cent= 0 FoldK=F
 E= -2905.42983380140     Delta-E=       -0.000000021762 Rises=F Damp=F
 DIIS: error= 1.57D-06 at cycle   6 NSaved=   6.
 NSaved= 6 IEnMin= 6 EnMin= -2905.42983380140     IErMin= 6 ErrMin= 1.57D-06
 ErrMax= 1.57D-06 EMaxC= 1.00D-01 BMatC= 9.81D-10 BMatP= 2.63D-08
 IDIUse=1 WtCom= 1.00D+00 WtEn= 0.00D+00
 Coeff-Com:  0.180D-03-0.197D-01-0.104D-01 0.590D-01 0.222D+00 0.749D+00
 Coeff:      0.180D-03-0.197D-01-0.104D-01 0.590D-01 0.222D+00 0.749D+00
 Gap=     0.427 Goal=   None    Shift=    0.000
 RMSDP=1.71D-07 MaxDP=5.97D-06 DE=-2.18D-08 OVMax= 9.92D-06

 Cycle   7  Pass 1  IDiag  1:
 RMSU=  7.62D-08    CP:  1.00D+00  1.16D+00  8.85D-01  1.19D+00  9.87D-01
                    CP:  1.05D+00
 FoFJK:  IHMeth= 1 ICntrl=     0 DoSepK=T KAlg= 1 I1Cent= 0 FoldK=F
 E= -2905.42983380245     Delta-E=       -0.000000001057 Rises=F Damp=F
 DIIS: error= 3.83D-07 at cycle   7 NSaved=   7.
 NSaved= 7 IEnMin= 7 EnMin= -2905.42983380245     IErMin= 7 ErrMin= 3.83D-07
 ErrMax= 3.83D-07 EMaxC= 1.00D-01 BMatC= 5.73D-11 BMatP= 9.81D-10
 IDIUse=1 WtCom= 1.00D+00 WtEn= 0.00D+00
 Coeff-Com: -0.184D-04 0.611D-02 0.635D-03-0.376D-01-0.802D-01 0.266D-01
 Coeff-Com:  0.108D+01
 Coeff:     -0.184D-04 0.611D-02 0.635D-03-0.376D-01-0.802D-01 0.266D-01
 Coeff:      0.108D+01
 Gap=     0.427 Goal=   None    Shift=    0.000
 RMSDP=8.61D-08 MaxDP=3.30D-06 DE=-1.06D-09 OVMax= 5.83D-06

 Cycle   8  Pass 1  IDiag  1:
 RMSU=  2.60D-08    CP:  1.00D+00  1.16D+00  8.87D-01  1.20D+00  1.01D+00
                    CP:  1.18D+00  1.22D+00
 FoFJK:  IHMeth= 1 ICntrl=     0 DoSepK=T KAlg= 1 I1Cent= 0 FoldK=F
 E= -2905.42983380260     Delta-E=       -0.000000000148 Rises=F Damp=F
 DIIS: error= 7.25D-08 at cycle   8 NSaved=   8.
 NSaved= 8 IEnMin= 8 EnMin= -2905.42983380260     IErMin= 8 ErrMin= 7.25D-08
 ErrMax= 7.25D-08 EMaxC= 1.00D-01 BMatC= 2.82D-12 BMatP= 5.73D-11
 IDIUse=1 WtCom= 1.00D+00 WtEn= 0.00D+00
 Coeff-Com: -0.125D-04 0.205D-02 0.561D-03-0.991D-02-0.236D-01-0.257D-01
 Coeff-Com:  0.170D+00 0.887D+00
 Coeff:     -0.125D-04 0.205D-02 0.561D-03-0.991D-02-0.236D-01-0.257D-01
 Coeff:      0.170D+00 0.887D+00
 Gap=     0.427 Goal=   None    Shift=    0.000
 RMSDP=1.39D-08 MaxDP=3.45D-07 DE=-1.48D-10 OVMax= 1.11D-06

 Cycle   9  Pass 1  IDiag  1:
 RMSU=  5.78D-09    CP:  1.00D+00  1.16D+00  8.87D-01  1.20D+00  1.01D+00
                    CP:  1.19D+00  1.28D+00  1.24D+00
 FoFJK:  IHMeth= 1 ICntrl=     0 DoSepK=T KAlg= 1 I1Cent= 0 FoldK=F
 E= -2905.42983380259     Delta-E=        0.000000000010 Rises=F Damp=F
 DIIS: error= 2.28D-08 at cycle   9 NSaved=   9.
 NSaved= 9 IEnMin= 8 EnMin= -2905.42983380260     IErMin= 9 ErrMin= 2.28D-08
 ErrMax= 2.28D-08 EMaxC= 1.00D-01 BMatC= 2.85D-13 BMatP= 2.82D-12
 IDIUse=1 WtCom= 1.00D+00 WtEn= 0.00D+00
 Coeff-Com:  0.209D-05-0.628D-03-0.892D-04 0.370D-02 0.859D-02-0.200D-02
 Coeff-Com: -0.111D+00 0.399D-02 0.110D+01
 Coeff:      0.209D-05-0.628D-03-0.892D-04 0.370D-02 0.859D-02-0.200D-02
 Coeff:     -0.111D+00 0.399D-02 0.110D+01
 Gap=     0.427 Goal=   None    Shift=    0.000
 RMSDP=7.57D-09 MaxDP=2.54D-07 DE= 1.00D-11 OVMax= 6.63D-07

 SCF Done:  E(RwB97XD) =  -2905.42983380     A.U. after    9 cycles
             Convg  =    0.7569D-08             -V/T =  2.0016
 KE= 2.900912301407D+03 PE=-7.222354258357D+03 EE= 1.273977092712D+03
 Leave Link  502 at Thu Apr 16 12:36:34 2020, MaxMem= 1073741824 cpu:     274.8
 (Enter /home/matheus/.gaussian/g09/l108.exe)
 Variable Step   Value    
 -------- ---- -----------
     1       3    6.236096
 Leave Link  108 at Thu Apr 16 12:36:34 2020, MaxMem= 1073741824 cpu:       0.0
 (Enter /home/matheus/.gaussian/g09/l202.exe)
 ---------------------------------------------------------------------------------------------------
                            Z-MATRIX (ANGSTROMS AND DEGREES)
   CD    Cent   Atom    N1       Length/X        N2       Alpha/Y        N3        Beta/Z          J
 ---------------------------------------------------------------------------------------------------
      1      1  O        0   0.000000          0.000000          0.725000
      2      2  O        0   0.000000          0.000000         -0.725000
      3      3  H        0  -0.795635         -0.459360          1.023510
      4      4  H        0   0.000000          0.918721         -1.023510
      5      5  Kr       0   0.000000          3.300000          0.000000
 ---------------------------------------------------------------------------------------------------
                         Z-Matrix orientation:                         
 ---------------------------------------------------------------------
 Center     Atomic      Atomic             Coordinates (Angstroms)
 Number     Number       Type             X           Y           Z
 ---------------------------------------------------------------------
      1          8           0        0.000000    0.000000    0.725000
      2          8           0        0.000000    0.000000   -0.725000
      3          1           0       -0.795635   -0.459360    1.023510
      4          1           0        0.000000    0.918721   -1.023510
      5         36           0        0.000000    3.300000    0.000000
 ---------------------------------------------------------------------
                    Distance matrix (angstroms):
                    1          2          3          4          5
     1  O    0.000000
     2  O    1.450000   0.000000
     3  H    0.966000   1.975180   0.000000
     4  H    1.975180   0.966000   2.592766   0.000000
     5  Kr   3.378702   3.378702   3.976606   2.591923   0.000000
 Stoichiometry    H2KrO2
 Framework group  C1[X(H2KrO2)]
 Deg. of freedom     9
 Full point group                 C1      NOp   1
 RotChk:  IX=0 Diff= 1.47D-03
 Largest Abelian subgroup         C1      NOp   1
 Largest concise Abelian subgroup C1      NOp   1
                         Standard orientation:                         
 ---------------------------------------------------------------------
 Center     Atomic      Atomic             Coordinates (Angstroms)
 Number     Number       Type             X           Y           Z
 ---------------------------------------------------------------------
      1          8           0       -2.216460   -0.692349   -0.106315
      2          8           0       -2.199150    0.753001    0.008419
      3          1           0       -2.692423   -1.046632    0.655983
      4          1           0       -1.277057    1.038423    0.046292
      5         36           0        1.091510   -0.013250    0.002247
 ---------------------------------------------------------------------
 Rotational constants (GHZ):     25.8758203      1.9214653      1.7959870
 Leave Link  202 at Thu Apr 16 12:36:34 2020, MaxMem= 1073741824 cpu:       0.0
 (Enter /home/matheus/.gaussian/g09/l301.exe)
 Standard basis: Aug-CC-pVTZ (5D, 7F)
 Ernie: Thresh=  0.10000D-02 Tol=  0.10000D-05 Strict=F.
 Ernie:  38 primitive shells out of 205 were deleted.
 There are   197 symmetry adapted basis functions of A   symmetry.
 Integral buffers will be    131072 words long.
 Raffenetti 2 integral format.
 Two-electron integral symmetry is turned on.
   197 basis functions,   415 primitive gaussians,   229 cartesian basis functions
    27 alpha electrons       27 beta electrons
       nuclear repulsion energy       138.9668171308 Hartrees.
 IExCor= 4639 DFT=T Ex+Corr=wB97XD ExCW=0 ScaHFX=  1.000000
 ScaDFX=  1.000000  1.000000  1.000000  1.000000 ScalE2=  1.000000  1.000000
 IRadAn=      5 IRanWt=     -1 IRanGd=            0 ICorTp=0
  HFx wShort=  0.000000 wLong=  0.250000 cFull=  0.222036 cShort=  0.000000 cLong=  0.777964
  DFx wShort=  0.000000 wLong=  0.250000 cFull=  0.000000 cShort=  0.000000 cLong=  1.000000
 NAtoms=    5 NActive=    5 NUniq=    5 SFac= 1.00D+00 NAtFMM=   60 NAOKFM=F Big=F
 R6Disp: Dispersion energy =        -0.0009920604 Hartrees.
 Nuclear repulsion after empirical dispersion term =      138.9658250704 Hartrees.
 Leave Link  301 at Thu Apr 16 12:36:34 2020, MaxMem= 1073741824 cpu:       0.2
 (Enter /home/matheus/.gaussian/g09/l302.exe)
 NPDir=0 NMtPBC=     1 NCelOv=     1 NCel=       1 NClECP=     1 NCelD=      1
         NCelK=      1 NCelE2=     1 NClLst=     1 CellRange=     0.0.
 One-electron integrals computed using PRISM.
 NBasis=   197 RedAO= T  NBF=   197
 NBsUse=   197 1.00D-06 NBFU=   197
 Precomputing XC quadrature grid using
 IXCGrd= 2 IRadAn=           5 IRanWt=          -1 IRanGd=           0 AccXCQ= 0.00D+00.
 NRdTot=     427 NPtTot=      123814 NUsed=      126881 NTot=      126913
 NSgBfM=   229   229   229   229   229 NAtAll=     5     5.
 Leave Link  302 at Thu Apr 16 12:36:34 2020, MaxMem= 1073741824 cpu:       1.1
 (Enter /home/matheus/.gaussian/g09/l303.exe)
 DipDrv:  MaxL=1.
 Leave Link  303 at Thu Apr 16 12:36:34 2020, MaxMem= 1073741824 cpu:       0.2
 (Enter /home/matheus/.gaussian/g09/l401.exe)
 Initial guess read from the read-write file.
 B after Tr=     0.000000    0.000000    0.000000
         Rot=    1.000000    0.000000    0.000000    0.000000 Ang=   0.00 deg.
 Guess basis will be translated and rotated to current coordinates.
 Initial guess orbital symmetries:
       Occupied  (A) (A) (A) (A) (A) (A) (A) (A) (A) (A) (A) (A)
                 (A) (A) (A) (A) (A) (A) (A) (A) (A) (A) (A) (A)
                 (A) (A) (A)
       Virtual   (A) (A) (A) (A) (A) (A) (A) (A) (A) (A) (A) (A)
                 (A) (A) (A) (A) (A) (A) (A) (A) (A) (A) (A) (A)
                 (A) (A) (A) (A) (A) (A) (A) (A) (A) (A) (A) (A)
                 (A) (A) (A) (A) (A) (A) (A) (A) (A) (A) (A) (A)
                 (A) (A) (A) (A) (A) (A) (A) (A) (A) (A) (A) (A)
                 (A) (A) (A) (A) (A) (A) (A) (A) (A) (A) (A) (A)
                 (A) (A) (A) (A) (A) (A) (A) (A) (A) (A) (A) (A)
                 (A) (A) (A) (A) (A) (A) (A) (A) (A) (A) (A) (A)
                 (A) (A) (A) (A) (A) (A) (A) (A) (A) (A) (A) (A)
                 (A) (A) (A) (A) (A) (A) (A) (A) (A) (A) (A) (A)
                 (A) (A) (A) (A) (A) (A) (A) (A) (A) (A) (A) (A)
                 (A) (A) (A) (A) (A) (A) (A) (A) (A) (A) (A) (A)
                 (A) (A) (A) (A) (A) (A) (A) (A) (A) (A) (A) (A)
                 (A) (A) (A) (A) (A) (A) (A) (A) (A) (A) (A) (A)
                 (A) (A)
 The electronic state of the initial guess is 1-A.
 Generating alternative initial guess.
 Harris functional with IExCor= 4639 diagonalized for initial guess.
 ExpMin= 2.53D-02 ExpMax= 1.17D+07 ExpMxC= 1.33D+04 IAcc=3 IRadAn=         5 AccDes= 0.00D+00
 HarFok:  IExCor= 4639 AccDes= 0.00D+00 IRadAn=         5 IDoV= 1
 ScaDFX=  1.000000  1.000000  1.000000  1.000000
 FoFCou: FMM=F IPFlag=           0 FMFlag=      100000 FMFlg1=           0
         NFxFlg=           0 DoJE=T BraDBF=F KetDBF=T FulRan=T
         Omega=  0.000000  0.000000  1.000000  0.000000  0.000000 ICntrl=     500 IOpCl=  0
         NMat0=    1 NMatS0=    1 NMatT0=    0 NMatD0=    1 NMtDS0=    0 NMtDT0=    0
         I1Cent=           4 NGrid=           0.
 Petite list used in FoFCou.
 Harris En= -2875.40417428327    
 Leave Link  401 at Thu Apr 16 12:36:35 2020, MaxMem= 1073741824 cpu:       5.7
 (Enter /home/matheus/.gaussian/g09/l502.exe)
 Closed shell SCF:
 Requested convergence on RMS density matrix=1.00D-08 within 128 cycles.
 Requested convergence on MAX density matrix=1.00D-06.
 Requested convergence on             energy=1.00D-06.
 No special actions if energy rises.
 Using DIIS extrapolation, IDIIS=  1040.
 Integral symmetry usage will be decided dynamically.
       126823 words used for storage of precomputed grid.
 IEnd=      305770 IEndB=      305770 NGot=  1073741824 MDV=  1073505365
 LenX=  1073505365 LenY=  1073452483
 Fock matrices will be formed incrementally for  20 cycles.

 Cycle   1  Pass 1  IDiag  1:
 FoFJK:  IHMeth= 1 ICntrl=     0 DoSepK=T KAlg= 1 I1Cent= 0 FoldK=F
 FoFCou: FMM=F IPFlag=           0 FMFlag=      100000 FMFlg1=           0
         NFxFlg=           0 DoJE=T BraDBF=F KetDBF=F FulRan=T
         Omega=  0.000000  0.000000  1.000000  0.000000  0.000000 ICntrl=     500 IOpCl=  0
         NMat0=    1 NMatS0=    1 NMatT0=    0 NMatD0=    1 NMtDS0=    0 NMtDT0=    0
         I1Cent=           0 NGrid=           0.
 Symmetry not used in FoFCou.
 E= -2905.43049417456    
 DIIS: error= 9.39D-04 at cycle   1 NSaved=   1.
 NSaved= 1 IEnMin= 1 EnMin= -2905.43049417456     IErMin= 1 ErrMin= 9.39D-04
 ErrMax= 9.39D-04 EMaxC= 1.00D-01 BMatC= 3.07D-04 BMatP= 3.07D-04
 IDIUse=3 WtCom= 9.91D-01 WtEn= 9.39D-03
 Coeff-Com:  0.100D+01
 Coeff-En:   0.100D+01
 Coeff:      0.100D+01
 Gap=     0.428 Goal=   None    Shift=    0.000
 RMSDP=6.50D-05 MaxDP=1.94D-03              OVMax= 2.80D-03

 Cycle   2  Pass 1  IDiag  1:
 RMSU=  4.60D-05    CP:  1.00D+00
 FoFJK:  IHMeth= 1 ICntrl=     0 DoSepK=T KAlg= 1 I1Cent= 0 FoldK=F
 E= -2905.43055293710     Delta-E=       -0.000058762544 Rises=F Damp=F
 DIIS: error= 8.44D-05 at cycle   2 NSaved=   2.
 NSaved= 2 IEnMin= 2 EnMin= -2905.43055293710     IErMin= 2 ErrMin= 8.44D-05
 ErrMax= 8.44D-05 EMaxC= 1.00D-01 BMatC= 2.36D-06 BMatP= 3.07D-04
 IDIUse=1 WtCom= 1.00D+00 WtEn= 0.00D+00
 Coeff-Com: -0.426D-02 0.100D+01
 Coeff:     -0.426D-02 0.100D+01
 Gap=     0.427 Goal=   None    Shift=    0.000
 RMSDP=1.28D-05 MaxDP=4.57D-04 DE=-5.88D-05 OVMax= 6.50D-04

 Cycle   3  Pass 1  IDiag  1:
 RMSU=  6.70D-06    CP:  1.00D+00  1.13D+00
 FoFJK:  IHMeth= 1 ICntrl=     0 DoSepK=T KAlg= 1 I1Cent= 0 FoldK=F
 E= -2905.43055444260     Delta-E=       -0.000001505494 Rises=F Damp=F
 DIIS: error= 7.33D-05 at cycle   3 NSaved=   3.
 NSaved= 3 IEnMin= 3 EnMin= -2905.43055444260     IErMin= 3 ErrMin= 7.33D-05
 ErrMax= 7.33D-05 EMaxC= 1.00D-01 BMatC= 2.05D-06 BMatP= 2.36D-06
 IDIUse=1 WtCom= 1.00D+00 WtEn= 0.00D+00
 Coeff-Com: -0.820D-02 0.485D+00 0.523D+00
 Coeff:     -0.820D-02 0.485D+00 0.523D+00
 Gap=     0.427 Goal=   None    Shift=    0.000
 RMSDP=4.15D-06 MaxDP=2.13D-04 DE=-1.51D-06 OVMax= 3.33D-04

 Cycle   4  Pass 1  IDiag  1:
 RMSU=  2.39D-06    CP:  1.00D+00  1.15D+00  7.72D-01
 FoFJK:  IHMeth= 1 ICntrl=     0 DoSepK=T KAlg= 1 I1Cent= 0 FoldK=F
 E= -2905.43055569560     Delta-E=       -0.000001253000 Rises=F Damp=F
 DIIS: error= 1.66D-05 at cycle   4 NSaved=   4.
 NSaved= 4 IEnMin= 4 EnMin= -2905.43055569560     IErMin= 4 ErrMin= 1.66D-05
 ErrMax= 1.66D-05 EMaxC= 1.00D-01 BMatC= 1.17D-07 BMatP= 2.05D-06
 IDIUse=1 WtCom= 1.00D+00 WtEn= 0.00D+00
 Coeff-Com: -0.208D-02 0.318D-01 0.180D+00 0.791D+00
 Coeff:     -0.208D-02 0.318D-01 0.180D+00 0.791D+00
 Gap=     0.427 Goal=   None    Shift=    0.000
 RMSDP=1.67D-06 MaxDP=5.87D-05 DE=-1.25D-06 OVMax= 1.03D-04

 Cycle   5  Pass 1  IDiag  1:
 RMSU=  7.95D-07    CP:  1.00D+00  1.16D+00  8.74D-01  1.06D+00
 FoFJK:  IHMeth= 1 ICntrl=     0 DoSepK=T KAlg= 1 I1Cent= 0 FoldK=F
 E= -2905.43055578593     Delta-E=       -0.000000090336 Rises=F Damp=F
 DIIS: error= 7.15D-06 at cycle   5 NSaved=   5.
 NSaved= 5 IEnMin= 5 EnMin= -2905.43055578593     IErMin= 5 ErrMin= 7.15D-06
 ErrMax= 7.15D-06 EMaxC= 1.00D-01 BMatC= 1.78D-08 BMatP= 1.17D-07
 IDIUse=1 WtCom= 1.00D+00 WtEn= 0.00D+00
 Coeff-Com:  0.247D-03-0.561D-01 0.127D-02 0.329D+00 0.725D+00
 Coeff:      0.247D-03-0.561D-01 0.127D-02 0.329D+00 0.725D+00
 Gap=     0.427 Goal=   None    Shift=    0.000
 RMSDP=7.30D-07 MaxDP=3.03D-05 DE=-9.03D-08 OVMax= 3.75D-05

 Cycle   6  Pass 1  IDiag  1:
 RMSU=  2.51D-07    CP:  1.00D+00  1.16D+00  9.14D-01  1.19D+00  9.27D-01
 FoFJK:  IHMeth= 1 ICntrl=     0 DoSepK=T KAlg= 1 I1Cent= 0 FoldK=F
 E= -2905.43055580078     Delta-E=       -0.000000014848 Rises=F Damp=F
 DIIS: error= 1.36D-06 at cycle   6 NSaved=   6.
 NSaved= 6 IEnMin= 6 EnMin= -2905.43055580078     IErMin= 6 ErrMin= 1.36D-06
 ErrMax= 1.36D-06 EMaxC= 1.00D-01 BMatC= 6.96D-10 BMatP= 1.78D-08
 IDIUse=1 WtCom= 1.00D+00 WtEn= 0.00D+00
 Coeff-Com:  0.179D-03-0.188D-01-0.893D-02 0.563D-01 0.218D+00 0.753D+00
 Coeff:      0.179D-03-0.188D-01-0.893D-02 0.563D-01 0.218D+00 0.753D+00
 Gap=     0.427 Goal=   None    Shift=    0.000
 RMSDP=1.48D-07 MaxDP=5.65D-06 DE=-1.48D-08 OVMax= 8.97D-06

 Cycle   7  Pass 1  IDiag  1:
 RMSU=  6.46D-08    CP:  1.00D+00  1.16D+00  9.21D-01  1.21D+00  9.87D-01
                    CP:  1.04D+00
 FoFJK:  IHMeth= 1 ICntrl=     0 DoSepK=T KAlg= 1 I1Cent= 0 FoldK=F
 E= -2905.43055580157     Delta-E=       -0.000000000792 Rises=F Damp=F
 DIIS: error= 3.41D-07 at cycle   7 NSaved=   7.
 NSaved= 7 IEnMin= 7 EnMin= -2905.43055580157     IErMin= 7 ErrMin= 3.41D-07
 ErrMax= 3.41D-07 EMaxC= 1.00D-01 BMatC= 4.41D-11 BMatP= 6.96D-10
 IDIUse=1 WtCom= 1.00D+00 WtEn= 0.00D+00
 Coeff-Com: -0.228D-04 0.651D-02 0.281D-05-0.400D-01-0.834D-01 0.316D-01
 Coeff-Com:  0.109D+01
 Coeff:     -0.228D-04 0.651D-02 0.281D-05-0.400D-01-0.834D-01 0.316D-01
 Coeff:      0.109D+01
 Gap=     0.427 Goal=   None    Shift=    0.000
 RMSDP=7.39D-08 MaxDP=2.76D-06 DE=-7.92D-10 OVMax= 5.31D-06

 Cycle   8  Pass 1  IDiag  1:
 RMSU=  2.34D-08    CP:  1.00D+00  1.16D+00  9.23D-01  1.21D+00  1.01D+00
                    CP:  1.17D+00  1.25D+00
 FoFJK:  IHMeth= 1 ICntrl=     0 DoSepK=T KAlg= 1 I1Cent= 0 FoldK=F
 E= -2905.43055580170     Delta-E=       -0.000000000124 Rises=F Damp=F
 DIIS: error= 6.93D-08 at cycle   8 NSaved=   8.
 NSaved= 8 IEnMin= 8 EnMin= -2905.43055580170     IErMin= 8 ErrMin= 6.93D-08
 ErrMax= 6.93D-08 EMaxC= 1.00D-01 BMatC= 2.03D-12 BMatP= 4.41D-11
 IDIUse=1 WtCom= 1.00D+00 WtEn= 0.00D+00
 Coeff-Com: -0.120D-04 0.185D-02 0.345D-03-0.895D-02-0.210D-01-0.243D-01
 Coeff-Com:  0.145D+00 0.907D+00
 Coeff:     -0.120D-04 0.185D-02 0.345D-03-0.895D-02-0.210D-01-0.243D-01
 Coeff:      0.145D+00 0.907D+00
 Gap=     0.427 Goal=   None    Shift=    0.000
 RMSDP=1.32D-08 MaxDP=2.96D-07 DE=-1.24D-10 OVMax= 1.22D-06

 Cycle   9  Pass 1  IDiag  1:
 RMSU=  5.10D-09    CP:  1.00D+00  1.16D+00  9.23D-01  1.21D+00  1.01D+00
                    CP:  1.18D+00  1.31D+00  1.27D+00
 FoFJK:  IHMeth= 1 ICntrl=     0 DoSepK=T KAlg= 1 I1Cent= 0 FoldK=F
 E= -2905.43055580170     Delta-E=       -0.000000000008 Rises=F Damp=F
 DIIS: error= 2.42D-08 at cycle   9 NSaved=   9.
 NSaved= 9 IEnMin= 9 EnMin= -2905.43055580170     IErMin= 9 ErrMin= 2.42D-08
 ErrMax= 2.42D-08 EMaxC= 1.00D-01 BMatC= 2.64D-13 BMatP= 2.03D-12
 IDIUse=1 WtCom= 1.00D+00 WtEn= 0.00D+00
 Coeff-Com:  0.296D-05-0.793D-03-0.190D-04 0.471D-02 0.105D-01-0.359D-02
 Coeff-Com: -0.131D+00 0.808D-02 0.111D+01
 Coeff:      0.296D-05-0.793D-03-0.190D-04 0.471D-02 0.105D-01-0.359D-02
 Coeff:     -0.131D+00 0.808D-02 0.111D+01
 Gap=     0.427 Goal=   None    Shift=    0.000
 RMSDP=7.64D-09 MaxDP=2.65D-07 DE=-8.19D-12 OVMax= 7.52D-07

 SCF Done:  E(RwB97XD) =  -2905.43055580     A.U. after    9 cycles
             Convg  =    0.7640D-08             -V/T =  2.0016
 KE= 2.900907428514D+03 PE=-7.216223396163D+03 EE= 1.270919586776D+03
 Leave Link  502 at Thu Apr 16 12:37:08 2020, MaxMem= 1073741824 cpu:     262.8
 (Enter /home/matheus/.gaussian/g09/l108.exe)
 Variable Step   Value    
 -------- ---- -----------
     1       4    6.425069
 Leave Link  108 at Thu Apr 16 12:37:08 2020, MaxMem= 1073741824 cpu:       0.0
 (Enter /home/matheus/.gaussian/g09/l202.exe)
 ---------------------------------------------------------------------------------------------------
                            Z-MATRIX (ANGSTROMS AND DEGREES)
   CD    Cent   Atom    N1       Length/X        N2       Alpha/Y        N3        Beta/Z          J
 ---------------------------------------------------------------------------------------------------
      1      1  O        0   0.000000          0.000000          0.725000
      2      2  O        0   0.000000          0.000000         -0.725000
      3      3  H        0  -0.795635         -0.459360          1.023510
      4      4  H        0   0.000000          0.918721         -1.023510
      5      5  Kr       0   0.000000          3.400000          0.000000
[...]
 RMSU=  1.98D-07    CP:  1.00D+00  1.13D+00  1.07D+00
 FoFJK:  IHMeth= 1 ICntrl=     0 DoSepK=T KAlg= 1 I1Cent= 0 FoldK=F
 E= -2905.43049781662     Delta-E=       -0.000000004314 Rises=F Damp=F
 DIIS: error= 1.90D-06 at cycle   4 NSaved=   4.
 NSaved= 4 IEnMin= 4 EnMin= -2905.43049781662     IErMin= 4 ErrMin= 1.90D-06
 ErrMax= 1.90D-06 EMaxC= 1.00D-01 BMatC= 1.19D-09 BMatP= 5.24D-09
 IDIUse=1 WtCom= 1.00D+00 WtEn= 0.00D+00
 Coeff-Com: -0.190D-02 0.286D-01 0.300D+00 0.674D+00
 Coeff:     -0.190D-02 0.286D-01 0.300D+00 0.674D+00
 Gap=     0.428 Goal=   None    Shift=    0.000
 RMSDP=1.85D-07 MaxDP=5.60D-06 DE=-4.31D-09 OVMax= 9.56D-06

 Cycle   5  Pass 1  IDiag  1:
 RMSU=  8.46D-08    CP:  1.00D+00  1.13D+00  1.15D+00  9.75D-01
 FoFJK:  IHMeth= 1 ICntrl=     0 DoSepK=T KAlg= 1 I1Cent= 0 FoldK=F
 E= -2905.43049781750     Delta-E=       -0.000000000885 Rises=F Damp=F
 DIIS: error= 8.91D-07 at cycle   5 NSaved=   5.
 NSaved= 5 IEnMin= 5 EnMin= -2905.43049781750     IErMin= 5 ErrMin= 8.91D-07
 ErrMax= 8.91D-07 EMaxC= 1.00D-01 BMatC= 2.34D-10 BMatP= 1.19D-09
 IDIUse=1 WtCom= 1.00D+00 WtEn= 0.00D+00
 Coeff-Com:  0.483D-03-0.538D-01-0.347D-01 0.319D+00 0.770D+00
 Coeff:      0.483D-03-0.538D-01-0.347D-01 0.319D+00 0.770D+00
 Gap=     0.428 Goal=   None    Shift=    0.000
 RMSDP=9.27D-08 MaxDP=2.68D-06 DE=-8.85D-10 OVMax= 5.26D-06

 Cycle   6  Pass 1  IDiag  1:
 RMSU=  3.11D-08    CP:  1.00D+00  1.13D+00  1.20D+00  1.12D+00  1.01D+00
 FoFJK:  IHMeth= 1 ICntrl=     0 DoSepK=T KAlg= 1 I1Cent= 0 FoldK=F
 E= -2905.43049781772     Delta-E=       -0.000000000212 Rises=F Damp=F
 DIIS: error= 1.34D-07 at cycle   6 NSaved=   6.
 NSaved= 6 IEnMin= 6 EnMin= -2905.43049781772     IErMin= 6 ErrMin= 1.34D-07
 ErrMax= 1.34D-07 EMaxC= 1.00D-01 BMatC= 5.98D-12 BMatP= 2.34D-10
 IDIUse=1 WtCom= 1.00D+00 WtEn= 0.00D+00
 Coeff-Com:  0.171D-03-0.105D-01-0.198D-01 0.261D-01 0.144D+00 0.860D+00
 Coeff:      0.171D-03-0.105D-01-0.198D-01 0.261D-01 0.144D+00 0.860D+00
 Gap=     0.428 Goal=   None    Shift=    0.000
 RMSDP=1.76D-08 MaxDP=5.92D-07 DE=-2.12D-10 OVMax= 1.56D-06

 Cycle   7  Pass 1  IDiag  1:
 RMSU=  9.03D-09    CP:  1.00D+00  1.13D+00  1.20D+00  1.13D+00  1.07D+00
                    CP:  1.19D+00
 FoFJK:  IHMeth= 1 ICntrl=     0 DoSepK=T KAlg= 1 I1Cent= 0 FoldK=F
 E= -2905.43049781774     Delta-E=       -0.000000000019 Rises=F Damp=F
 DIIS: error= 9.66D-08 at cycle   7 NSaved=   7.
 NSaved= 7 IEnMin= 7 EnMin= -2905.43049781774     IErMin= 7 ErrMin= 9.66D-08
 ErrMax= 9.66D-08 EMaxC= 1.00D-01 BMatC= 1.54D-12 BMatP= 5.98D-12
 IDIUse=1 WtCom= 1.00D+00 WtEn= 0.00D+00
 Coeff-Com: -0.349D-04 0.727D-02-0.766D-03-0.571D-01-0.105D+00 0.306D+00
 Coeff-Com:  0.850D+00
 Coeff:     -0.349D-04 0.727D-02-0.766D-03-0.571D-01-0.105D+00 0.306D+00
 Coeff:      0.850D+00
 Gap=     0.428 Goal=   None    Shift=    0.000
 RMSDP=1.02D-08 MaxDP=2.66D-07 DE=-1.86D-11 OVMax= 1.04D-06

 Cycle   8  Pass 1  IDiag  1:
 RMSU=  3.70D-09    CP:  1.00D+00  1.13D+00  1.20D+00  1.14D+00  1.10D+00
                    CP:  1.35D+00  1.18D+00
 FoFJK:  IHMeth= 1 ICntrl=     0 DoSepK=T KAlg= 1 I1Cent= 0 FoldK=F
 E= -2905.43049781773     Delta-E=        0.000000000001 Rises=F Damp=F
 DIIS: error= 1.93D-08 at cycle   8 NSaved=   8.
 NSaved= 8 IEnMin= 7 EnMin= -2905.43049781774     IErMin= 8 ErrMin= 1.93D-08
 ErrMax= 1.93D-08 EMaxC= 1.00D-01 BMatC= 5.45D-14 BMatP= 1.54D-12
 IDIUse=1 WtCom= 1.00D+00 WtEn= 0.00D+00
 Coeff-Com: -0.560D-05-0.361D-03 0.121D-02 0.607D-02 0.561D-02-0.938D-01
 Coeff-Com: -0.957D-01 0.118D+01
 Coeff:     -0.560D-05-0.361D-03 0.121D-02 0.607D-02 0.561D-02-0.938D-01
 Coeff:     -0.957D-01 0.118D+01
 Gap=     0.428 Goal=   None    Shift=    0.000
 RMSDP=3.82D-09 MaxDP=1.47D-07 DE= 9.09D-13 OVMax= 4.50D-07

 SCF Done:  E(RwB97XD) =  -2905.43049782     A.U. after    8 cycles
             Convg  =    0.3818D-08             -V/T =  2.0016
 KE= 2.900919467304D+03 PE=-7.150960902447D+03 EE= 1.238374427329D+03
 Leave Link  502 at Thu Apr 16 12:44:11 2020, MaxMem= 1073741824 cpu:     165.4
 (Enter /home/matheus/.gaussian/g09/l108.exe)
 Variable Step   Value    
 -------- ---- -----------
     1      20    9.448631
 Leave Link  108 at Thu Apr 16 12:44:11 2020, MaxMem= 1073741824 cpu:       0.0
 (Enter /home/matheus/.gaussian/g09/l202.exe)
 ---------------------------------------------------------------------------------------------------
                            Z-MATRIX (ANGSTROMS AND DEGREES)
   CD    Cent   Atom    N1       Length/X        N2       Alpha/Y        N3        Beta/Z          J
 ---------------------------------------------------------------------------------------------------
      1      1  O        0   0.000000          0.000000          0.725000
      2      2  O        0   0.000000          0.000000         -0.725000
      3      3  H        0  -0.795635         -0.459360          1.023510
      4      4  H        0   0.000000          0.918721         -1.023510
      5      5  Kr       0   0.000000          5.000000          0.000000
 ---------------------------------------------------------------------------------------------------
                         Z-Matrix orientation:                         
 ---------------------------------------------------------------------
 Center     Atomic      Atomic             Coordinates (Angstroms)
 Number     Number       Type             X           Y           Z
 ---------------------------------------------------------------------
      1          8           0        0.000000    0.000000    0.725000
      2          8           0        0.000000    0.000000   -0.725000
      3          1           0       -0.795635   -0.459360    1.023510
      4          1           0        0.000000    0.918721   -1.023510
      5         36           0        0.000000    5.000000    0.000000
 ---------------------------------------------------------------------
                    Distance matrix (angstroms):
                    1          2          3          4          5
     1  O    0.000000
     2  O    1.450000   0.000000
     3  H    0.966000   1.975180   0.000000
     4  H    1.975180   0.966000   2.592766   0.000000
     5  Kr   5.052289   5.052289   5.611170   4.207661   0.000000
 Stoichiometry    H2KrO2
 Framework group  C1[X(H2KrO2)]
 Deg. of freedom     9
 Full point group                 C1      NOp   1
 RotChk:  IX=0 Diff= 4.51D-04
 Largest Abelian subgroup         C1      NOp   1
 Largest concise Abelian subgroup C1      NOp   1
                         Standard orientation:                         
 ---------------------------------------------------------------------
 Center     Atomic      Atomic             Coordinates (Angstroms)
 Number     Number       Type             X           Y           Z
 ---------------------------------------------------------------------
      1          8           0       -3.345053   -0.702336   -0.105259
      2          8           0       -3.337899    0.743003    0.010688
      3          1           0       -3.813958   -1.060833    0.659439
      4          1           0       -2.417764    1.035288    0.043520
      5         36           0        1.658204   -0.008328    0.001489
 ---------------------------------------------------------------------
 Rotational constants (GHZ):     25.8664909      0.8376392      0.8128765
 Leave Link  202 at Thu Apr 16 12:44:11 2020, MaxMem= 1073741824 cpu:       0.0
 (Enter /home/matheus/.gaussian/g09/l301.exe)
 Standard basis: Aug-CC-pVTZ (5D, 7F)
 Ernie: Thresh=  0.10000D-02 Tol=  0.10000D-05 Strict=F.
 Ernie:  38 primitive shells out of 205 were deleted.
 There are   197 symmetry adapted basis functions of A   symmetry.
 Integral buffers will be    131072 words long.
 Raffenetti 2 integral format.
 Two-electron integral symmetry is turned on.
   197 basis functions,   415 primitive gaussians,   229 cartesian basis functions
    27 alpha electrons       27 beta electrons
       nuclear repulsion energy       104.8652577366 Hartrees.
 IExCor= 4639 DFT=T Ex+Corr=wB97XD ExCW=0 ScaHFX=  1.000000
 ScaDFX=  1.000000  1.000000  1.000000  1.000000 ScalE2=  1.000000  1.000000
 IRadAn=      5 IRanWt=     -1 IRanGd=            0 ICorTp=0
  HFx wShort=  0.000000 wLong=  0.250000 cFull=  0.222036 cShort=  0.000000 cLong=  0.777964
  DFx wShort=  0.000000 wLong=  0.250000 cFull=  0.000000 cShort=  0.000000 cLong=  1.000000
 NAtoms=    5 NActive=    5 NUniq=    5 SFac= 1.00D+00 NAtFMM=   60 NAOKFM=F Big=F
 R6Disp: Dispersion energy =        -0.0004595887 Hartrees.
 Nuclear repulsion after empirical dispersion term =      104.8647981479 Hartrees.
 Leave Link  301 at Thu Apr 16 12:44:11 2020, MaxMem= 1073741824 cpu:       0.2
 (Enter /home/matheus/.gaussian/g09/l302.exe)
 NPDir=0 NMtPBC=     1 NCelOv=     1 NCel=       1 NClECP=     1 NCelD=      1
         NCelK=      1 NCelE2=     1 NClLst=     1 CellRange=     0.0.
 One-electron integrals computed using PRISM.
 NBasis=   197 RedAO= T  NBF=   197
 NBsUse=   197 1.00D-06 NBFU=   197
 Precomputing XC quadrature grid using
 IXCGrd= 2 IRadAn=           5 IRanWt=          -1 IRanGd=           0 AccXCQ= 0.00D+00.
 NRdTot=     427 NPtTot=      124116 NUsed=      127183 NTot=      127215
 NSgBfM=   228   228   229   229   229 NAtAll=     5     5.
 Leave Link  302 at Thu Apr 16 12:44:11 2020, MaxMem= 1073741824 cpu:       1.0
 (Enter /home/matheus/.gaussian/g09/l303.exe)
 DipDrv:  MaxL=1.
 Leave Link  303 at Thu Apr 16 12:44:11 2020, MaxMem= 1073741824 cpu:       0.3
 (Enter /home/matheus/.gaussian/g09/l401.exe)
 Initial guess read from the read-write file.
 B after Tr=     0.000000    0.000000    0.000000
         Rot=    1.000000    0.000000    0.000000    0.000000 Ang=   0.00 deg.
 Guess basis will be translated and rotated to current coordinates.
 Initial guess orbital symmetries:
       Occupied  (A) (A) (A) (A) (A) (A) (A) (A) (A) (A) (A) (A)
                 (A) (A) (A) (A) (A) (A) (A) (A) (A) (A) (A) (A)
                 (A) (A) (A)
       Virtual   (A) (A) (A) (A) (A) (A) (A) (A) (A) (A) (A) (A)
                 (A) (A) (A) (A) (A) (A) (A) (A) (A) (A) (A) (A)
                 (A) (A) (A) (A) (A) (A) (A) (A) (A) (A) (A) (A)
                 (A) (A) (A) (A) (A) (A) (A) (A) (A) (A) (A) (A)
                 (A) (A) (A) (A) (A) (A) (A) (A) (A) (A) (A) (A)
                 (A) (A) (A) (A) (A) (A) (A) (A) (A) (A) (A) (A)
                 (A) (A) (A) (A) (A) (A) (A) (A) (A) (A) (A) (A)
                 (A) (A) (A) (A) (A) (A) (A) (A) (A) (A) (A) (A)
                 (A) (A) (A) (A) (A) (A) (A) (A) (A) (A) (A) (A)
                 (A) (A) (A) (A) (A) (A) (A) (A) (A) (A) (A) (A)
                 (A) (A) (A) (A) (A) (A) (A) (A) (A) (A) (A) (A)
                 (A) (A) (A) (A) (A) (A) (A) (A) (A) (A) (A) (A)
                 (A) (A) (A) (A) (A) (A) (A) (A) (A) (A) (A) (A)
                 (A) (A) (A) (A) (A) (A) (A) (A) (A) (A) (A) (A)
                 (A) (A)
 The electronic state of the initial guess is 1-A.
 Generating alternative initial guess.
 Harris functional with IExCor= 4639 diagonalized for initial guess.
 ExpMin= 2.53D-02 ExpMax= 1.17D+07 ExpMxC= 1.33D+04 IAcc=3 IRadAn=         5 AccDes= 0.00D+00
 HarFok:  IExCor= 4639 AccDes= 0.00D+00 IRadAn=         5 IDoV= 1
 ScaDFX=  1.000000  1.000000  1.000000  1.000000
 FoFCou: FMM=F IPFlag=           0 FMFlag=      100000 FMFlg1=           0
         NFxFlg=           0 DoJE=T BraDBF=F KetDBF=T FulRan=T
         Omega=  0.000000  0.000000  1.000000  0.000000  0.000000 ICntrl=     500 IOpCl=  0
         NMat0=    1 NMatS0=    1 NMatT0=    0 NMatD0=    1 NMtDS0=    0 NMtDT0=    0
         I1Cent=           4 NGrid=           0.
 Petite list used in FoFCou.
 Harris En= -2875.40500691908    
 Leave Link  401 at Thu Apr 16 12:44:12 2020, MaxMem= 1073741824 cpu:       4.3
 (Enter /home/matheus/.gaussian/g09/l502.exe)
 Closed shell SCF:
 Requested convergence on RMS density matrix=1.00D-08 within 128 cycles.
 Requested convergence on MAX density matrix=1.00D-06.
 Requested convergence on             energy=1.00D-06.
 No special actions if energy rises.
 Using DIIS extrapolation, IDIIS=  1040.
 Integral symmetry usage will be decided dynamically.
       127125 words used for storage of precomputed grid.
 IEnd=      306072 IEndB=      306072 NGot=  1073741824 MDV=  1073505063
 LenX=  1073505063 LenY=  1073452181
 Fock matrices will be formed incrementally for  20 cycles.

 Cycle   1  Pass 1  IDiag  1:
 FoFJK:  IHMeth= 1 ICntrl=     0 DoSepK=T KAlg= 1 I1Cent= 0 FoldK=F
 FoFCou: FMM=F IPFlag=           0 FMFlag=      100000 FMFlg1=           0
         NFxFlg=           0 DoJE=T BraDBF=F KetDBF=F FulRan=T
         Omega=  0.000000  0.000000  1.000000  0.000000  0.000000 ICntrl=     500 IOpCl=  0
         NMat0=    1 NMatS0=    1 NMatT0=    0 NMatD0=    1 NMtDS0=    0 NMtDT0=    0
         I1Cent=           0 NGrid=           0.
 Symmetry not used in FoFCou.
 E= -2905.43045024621    
 DIIS: error= 1.35D-04 at cycle   1 NSaved=   1.
 NSaved= 1 IEnMin= 1 EnMin= -2905.43045024621     IErMin= 1 ErrMin= 1.35D-04
 ErrMax= 1.35D-04 EMaxC= 1.00D-01 BMatC= 3.66D-06 BMatP= 3.66D-06
 IDIUse=3 WtCom= 9.99D-01 WtEn= 1.35D-03
 Coeff-Com:  0.100D+01
 Coeff-En:   0.100D+01
 Coeff:      0.100D+01
 Gap=     0.428 Goal=   None    Shift=    0.000
 RMSDP=1.79D-05 MaxDP=6.86D-04              OVMax= 3.90D-04

 Cycle   2  Pass 1  IDiag  1:
 RMSU=  1.26D-05    CP:  1.00D+00
 FoFJK:  IHMeth= 1 ICntrl=     0 DoSepK=T KAlg= 1 I1Cent= 0 FoldK=F
 E= -2905.43045109126     Delta-E=       -0.000000845057 Rises=F Damp=F
 DIIS: error= 1.05D-05 at cycle   2 NSaved=   2.
 NSaved= 2 IEnMin= 2 EnMin= -2905.43045109126     IErMin= 2 ErrMin= 1.05D-05
 ErrMax= 1.05D-05 EMaxC= 1.00D-01 BMatC= 1.95D-08 BMatP= 3.66D-06
 IDIUse=1 WtCom= 1.00D+00 WtEn= 0.00D+00
 Coeff-Com: -0.610D-02 0.101D+01
 Coeff:     -0.610D-02 0.101D+01
 Gap=     0.428 Goal=   None    Shift=    0.000
 RMSDP=2.22D-06 MaxDP=7.54D-05 DE=-8.45D-07 OVMax= 7.51D-05

 Cycle   3  Pass 1  IDiag  1:
 RMSU=  8.39D-07    CP:  1.00D+00  1.10D+00
 FoFJK:  IHMeth= 1 ICntrl=     0 DoSepK=T KAlg= 1 I1Cent= 0 FoldK=F
 E= -2905.43045111704     Delta-E=       -0.000000025775 Rises=F Damp=F
 DIIS: error= 5.13D-06 at cycle   3 NSaved=   3.
 NSaved= 3 IEnMin= 3 EnMin= -2905.43045111704     IErMin= 3 ErrMin= 5.13D-06
 ErrMax= 5.13D-06 EMaxC= 1.00D-01 BMatC= 4.19D-09 BMatP= 1.95D-08
 IDIUse=1 WtCom= 1.00D+00 WtEn= 0.00D+00
 Coeff-Com: -0.548D-02 0.273D+00 0.732D+00
 Coeff:     -0.548D-02 0.273D+00 0.732D+00
 Gap=     0.428 Goal=   None    Shift=    0.000
 RMSDP=3.25D-07 MaxDP=8.82D-06 DE=-2.58D-08 OVMax= 2.29D-05

 Cycle   4  Pass 1  IDiag  1:
 RMSU=  1.75D-07    CP:  1.00D+00  1.12D+00  1.06D+00
 FoFJK:  IHMeth= 1 ICntrl=     0 DoSepK=T KAlg= 1 I1Cent= 0 FoldK=F
 E= -2905.43045112052     Delta-E=       -0.000000003487 Rises=F Damp=F
 DIIS: error= 1.64D-06 at cycle   4 NSaved=   4.
 NSaved= 4 IEnMin= 4 EnMin= -2905.43045112052     IErMin= 4 ErrMin= 1.64D-06
 ErrMax= 1.64D-06 EMaxC= 1.00D-01 BMatC= 9.09D-10 BMatP= 4.19D-09
 IDIUse=1 WtCom= 1.00D+00 WtEn= 0.00D+00
 Coeff-Com: -0.172D-02 0.263D-01 0.292D+00 0.684D+00
 Coeff:     -0.172D-02 0.263D-01 0.292D+00 0.684D+00
 Gap=     0.428 Goal=   None    Shift=    0.000
 RMSDP=1.66D-07 MaxDP=5.23D-06 DE=-3.49D-09 OVMax= 8.58D-06

 Cycle   5  Pass 1  IDiag  1:
 RMSU=  7.60D-08    CP:  1.00D+00  1.12D+00  1.15D+00  9.92D-01
 FoFJK:  IHMeth= 1 ICntrl=     0 DoSepK=T KAlg= 1 I1Cent= 0 FoldK=F
 E= -2905.43045112120     Delta-E=       -0.000000000673 Rises=F Damp=F
 DIIS: error= 8.36D-07 at cycle   5 NSaved=   5.
 NSaved= 5 IEnMin= 5 EnMin= -2905.43045112120     IErMin= 5 ErrMin= 8.36D-07
 ErrMax= 8.36D-07 EMaxC= 1.00D-01 BMatC= 1.96D-10 BMatP= 9.09D-10
 IDIUse=1 WtCom= 1.00D+00 WtEn= 0.00D+00
 Coeff-Com:  0.456D-03-0.539D-01-0.348D-01 0.332D+00 0.756D+00
 Coeff:      0.456D-03-0.539D-01-0.348D-01 0.332D+00 0.756D+00
 Gap=     0.428 Goal=   None    Shift=    0.000
 RMSDP=7.99D-08 MaxDP=2.31D-06 DE=-6.73D-10 OVMax= 4.56D-06

 Cycle   6  Pass 1  IDiag  1:
 RMSU=  2.83D-08    CP:  1.00D+00  1.12D+00  1.19D+00  1.13D+00  9.95D-01
 FoFJK:  IHMeth= 1 ICntrl=     0 DoSepK=T KAlg= 1 I1Cent= 0 FoldK=F
 E= -2905.43045112139     Delta-E=       -0.000000000196 Rises=F Damp=F
 DIIS: error= 1.32D-07 at cycle   6 NSaved=   6.
 NSaved= 6 IEnMin= 6 EnMin= -2905.43045112139     IErMin= 6 ErrMin= 1.32D-07
 ErrMax= 1.32D-07 EMaxC= 1.00D-01 BMatC= 5.32D-12 BMatP= 1.96D-10
 IDIUse=1 WtCom= 1.00D+00 WtEn= 0.00D+00
 Coeff-Com:  0.171D-03-0.113D-01-0.207D-01 0.316D-01 0.154D+00 0.847D+00
 Coeff:      0.171D-03-0.113D-01-0.207D-01 0.316D-01 0.154D+00 0.847D+00
 Gap=     0.428 Goal=   None    Shift=    0.000
 RMSDP=1.62D-08 MaxDP=5.22D-07 DE=-1.96D-10 OVMax= 1.45D-06

 Cycle   7  Pass 1  IDiag  1:
 RMSU=  8.39D-09    CP:  1.00D+00  1.12D+00  1.19D+00  1.15D+00  1.06D+00
                    CP:  1.19D+00
 FoFJK:  IHMeth= 1 ICntrl=     0 DoSepK=T KAlg= 1 I1Cent= 0 FoldK=F
 E= -2905.43045112140     Delta-E=       -0.000000000008 Rises=F Damp=F
 DIIS: error= 8.89D-08 at cycle   7 NSaved=   7.
 NSaved= 7 IEnMin= 7 EnMin= -2905.43045112140     IErMin= 7 ErrMin= 8.89D-08
 ErrMax= 8.89D-08 EMaxC= 1.00D-01 BMatC= 1.29D-12 BMatP= 5.32D-12
 IDIUse=1 WtCom= 1.00D+00 WtEn= 0.00D+00
 Coeff-Com: -0.332D-04 0.729D-02-0.763D-03-0.595D-01-0.103D+00 0.292D+00
 Coeff-Com:  0.865D+00
 Coeff:     -0.332D-04 0.729D-02-0.763D-03-0.595D-01-0.103D+00 0.292D+00
 Coeff:      0.865D+00
 Gap=     0.428 Goal=   None    Shift=    0.000
 RMSDP=9.60D-09 MaxDP=2.66D-07 DE=-7.73D-12 OVMax= 9.96D-07

 SCF Done:  E(RwB97XD) =  -2905.43045112     A.U. after    7 cycles
             Convg  =    0.9597D-08             -V/T =  2.0016
 KE= 2.900919966656D+03 PE=-7.148224704645D+03 EE= 1.237009488720D+03
 Leave Link  502 at Thu Apr 16 12:44:32 2020, MaxMem= 1073741824 cpu:     161.6
 (Enter /home/matheus/.gaussian/g09/l108.exe)
 Scan completed.

 Summary of the potential surface scan:
   N      R1          SCF    
 ----  ---------  -----------
    1     3.0000  -2905.42696
    2     3.1000  -2905.42870
    3     3.2000  -2905.42983
    4     3.3000  -2905.43056
    5     3.4000  -2905.43098
    6     3.5000  -2905.43122
    7     3.6000  -2905.43132
    8     3.7000  -2905.43134
    9     3.8000  -2905.43131
   10     3.9000  -2905.43125
   11     4.0000  -2905.43117
   12     4.1000  -2905.43108
   13     4.2000  -2905.43099
   14     4.3000  -2905.43090
   15     4.4000  -2905.43082
   16     4.5000  -2905.43075
   17     4.6000  -2905.43067
   18     4.7000  -2905.43061
   19     4.8000  -2905.43055
   20     4.9000  -2905.43050
   21     5.0000  -2905.43045
 ----  ---------  -----------
  
 Leave Link  108 at Thu Apr 16 12:44:32 2020, MaxMem= 1073741824 cpu:       0.0
 (Enter /home/matheus/.gaussian/g09/l9999.exe)

 Test job not archived.
 1\1\GINC-REDGIANT\Scan\RwB97XD\Aug-CC-pVTZ\H2Kr1O2\ROOT\16-Apr-2020\1\
 \#p wb97xd/aug-cc-PVTz iop(3/107=0250000000) iop(3/108=0250000000) int
 =ultrafine Scan\\TCC\\0,1\O,0,0.,0.,0.725\O,0,0.,0.,-0.725\H,0,-0.7956
 35374,-0.4593602974,1.0235104166\H,0,0.,0.9187205947,-1.0235104166\Kr,
 0,0.,R1,0.\\R1=3.,s,20,0.1\\Version=EM64L-G09RevC.01\State=1-A\HF=-290
 5.4269618,-2905.4287009,-2905.4298338,-2905.4305558,-2905.4309834,-290
 5.431218,-2905.431318,-2905.4313409,-2905.4313096,-2905.4312458,-2905.
 4311662,-2905.4310804,-2905.4309923,-2905.4309035,-2905.4308223,-2905.
 4307455,-2905.4306733,-2905.4306083,-2905.4305508,-2905.4304978,-2905.
 4304511\RMSD=2.453e-09,7.126e-09,7.569e-09,7.640e-09,7.078e-09,6.355e-
 09,5.507e-09,4.430e-09,3.727e-09,3.657e-09,3.135e-09,8.594e-09,7.494e-
 09,6.767e-09,5.895e-09,5.438e-09,5.125e-09,4.731e-09,4.205e-09,3.818e-
 09,9.597e-09\PG=C01 [X(H2Kr1O2)]\\@


 GOOD SENSE ABOUT TRIVIALITIES IS BETTER THAN NONSENSE
 ABOUT THINGS THAT MATTER

                                       -- MAX BEERBOHM
 Job cpu time:  0 days  1 hours 19 minutes 42.2 seconds.
 File lengths (MBytes):  RWF=     33 Int=      0 D2E=      0 Chk=      4 Scr=      1
 Normal termination of Gaussian 09 at Thu Apr 16 12:44:32 2020.
