 Entering Gaussian System, Link 0=g09
 Input=/home/matheus/.tcc/Inputs-wb97xd/H2O2-Kr_13.com
 Output=/home/matheus/.tcc/Logs-wb97xd/H2O2-Kr_13.log
 Initial command:
 /home/matheus/.gaussian/g09/l1.exe /home/matheus/.gaussian/g09/scratch/Gau-3676.inp -scrdir=/home/matheus/.gaussian/g09/scratch/
 Entering Link 1 = /home/matheus/.gaussian/g09/l1.exe PID=      3679.
  
 Copyright (c) 1988,1990,1992,1993,1995,1998,2003,2009,2011,
            Gaussian, Inc.  All Rights Reserved.
  
 This is part of the Gaussian(R) 09 program.  It is based on
 the Gaussian(R) 03 system (copyright 2003, Gaussian, Inc.),
 the Gaussian(R) 98 system (copyright 1998, Gaussian, Inc.),
 the Gaussian(R) 94 system (copyright 1995, Gaussian, Inc.),
 the Gaussian 92(TM) system (copyright 1992, Gaussian, Inc.),
 the Gaussian 90(TM) system (copyright 1990, Gaussian, Inc.),
 the Gaussian 88(TM) system (copyright 1988, Gaussian, Inc.),
 the Gaussian 86(TM) system (copyright 1986, Carnegie Mellon
 University), and the Gaussian 82(TM) system (copyright 1983,
 Carnegie Mellon University). Gaussian is a federally registered
 trademark of Gaussian, Inc.
  
 This software contains proprietary and confidential information,
 including trade secrets, belonging to Gaussian, Inc.
  
 This software is provided under written license and may be
 used, copied, transmitted, or stored only in accord with that
 written license.
  
 The following legend is applicable only to US Government
 contracts under FAR:
  
                    RESTRICTED RIGHTS LEGEND
  
 Use, reproduction and disclosure by the US Government is
 subject to restrictions as set forth in subparagraphs (a)
 and (c) of the Commercial Computer Software - Restricted
 Rights clause in FAR 52.227-19.
  
 Gaussian, Inc.
 340 Quinnipiac St., Bldg. 40, Wallingford CT 06492
  
  
 ---------------------------------------------------------------
 Warning -- This program may not be used in any manner that
 competes with the business of Gaussian, Inc. or will provide
 assistance to any competitor of Gaussian, Inc.  The licensee
 of this program is prohibited from giving any competitor of
 Gaussian, Inc. access to this program.  By using this program,
 the user acknowledges that Gaussian, Inc. is engaged in the
 business of creating and licensing software in the field of
 computational chemistry and represents and warrants to the
 licensee that it is not a competitor of Gaussian, Inc. and that
 it will not use this program in any manner prohibited above.
 ---------------------------------------------------------------
  

 Cite this work as:
 Gaussian 09, Revision C.01,
 M. J. Frisch, G. W. Trucks, H. B. Schlegel, G. E. Scuseria, 
 M. A. Robb, J. R. Cheeseman, G. Scalmani, V. Barone, B. Mennucci, 
 G. A. Petersson, H. Nakatsuji, M. Caricato, X. Li, H. P. Hratchian, 
 A. F. Izmaylov, J. Bloino, G. Zheng, J. L. Sonnenberg, M. Hada, 
 M. Ehara, K. Toyota, R. Fukuda, J. Hasegawa, M. Ishida, T. Nakajima, 
 Y. Honda, O. Kitao, H. Nakai, T. Vreven, J. A. Montgomery, Jr., 
 J. E. Peralta, F. Ogliaro, M. Bearpark, J. J. Heyd, E. Brothers, 
 K. N. Kudin, V. N. Staroverov, T. Keith, R. Kobayashi, J. Normand, 
 K. Raghavachari, A. Rendell, J. C. Burant, S. S. Iyengar, J. Tomasi, 
 M. Cossi, N. Rega, J. M. Millam, M. Klene, J. E. Knox, J. B. Cross, 
 V. Bakken, C. Adamo, J. Jaramillo, R. Gomperts, R. E. Stratmann, 
 O. Yazyev, A. J. Austin, R. Cammi, C. Pomelli, J. W. Ochterski, 
 R. L. Martin, K. Morokuma, V. G. Zakrzewski, G. A. Voth, 
 P. Salvador, J. J. Dannenberg, S. Dapprich, A. D. Daniels, 
 O. Farkas, J. B. Foresman, J. V. Ortiz, J. Cioslowski, 
 and D. J. Fox, Gaussian, Inc., Wallingford CT, 2010.
 
 ******************************************
 Gaussian 09:  EM64L-G09RevC.01 23-Sep-2011
                16-Apr-2020 
 ******************************************
 %mem=8GB
 %nproc=8
 Will use up to    8 processors via shared memory.
 ----------------------------------------------------------------------
 #p wb97xd/aug-cc-PVTz iop(3/107=0250000000) iop(3/108=0250000000) int=
 ultrafine Scan
 ----------------------------------------------------------------------
 1/38=1,60=1/1,8;
 2/12=2,17=6,18=5,29=3,40=1/2;
 3/5=16,6=1,7=10,11=2,16=1,25=1,30=1,74=-58,75=-5,107=250000000,108=250000000/1,2,3;
 4//1;
 5/5=2,38=5/2;
 6/7=2,8=2,9=2,10=2,18=1,28=1/1;
 1/60=1/8(1);
 99/9=1/99;
 2/29=3/2;
 3/5=16,6=1,7=10,11=2,16=1,25=1,30=1,74=-58,75=-5,107=250000000,108=250000000/1,2,3;
 4/5=5,16=3/1;
 5/5=2,38=5/2;
 1/60=1/8(-4);
 99/9=1/99;
 Leave Link    1 at Thu Apr 16 10:40:49 2020, MaxMem= 1073741824 cpu:       0.1
 (Enter /home/matheus/.gaussian/g09/l101.exe)
 ---
 TCC
 ---
 Charge =  0 Multiplicity = 1
 Symbolic Z-Matrix:
 O                     0.        0.        0.725 
 O                     0.        0.       -0.725 
 H                     0.70378  -0.59054   1.02351 
 H                     0.        0.91872  -1.02351 
 Kr                    0.       R1        0. 
       Variables:
  R1                    3.     Scan 20    0.1    
 
 NAtoms=      5 NQM=        0 NQMF=       0 NMMI=      5 NMMIF=      0
                NMic=       0 NMicF=      0.
                    Isotopes and Nuclear Properties:
 (Nuclear quadrupole moments (NQMom) in fm**2, nuclear magnetic moments (NMagM)
  in nuclear magnetons)

  Atom         1           2           3           4           5
 IAtWgt=          16          16           1           1          84
 AtmWgt=  15.9949146  15.9949146   1.0078250   1.0078250  83.9115064
 NucSpn=           0           0           1           1           0
 AtZEff=   0.0000000   0.0000000   0.0000000   0.0000000   0.0000000
 NQMom=    0.0000000   0.0000000   0.0000000   0.0000000   0.0000000
 NMagM=    0.0000000   0.0000000   2.7928460   2.7928460   0.0000000
 Leave Link  101 at Thu Apr 16 10:40:49 2020, MaxMem= 1073741824 cpu:       0.3
 (Enter /home/matheus/.gaussian/g09/l108.exe)
 Scan the potential surface.
 Variable   Value     No. Steps Step-Size
 -------- ----------- --------- ---------
     1       3.000000      20      0.1000
 A total of     21 points will be computed.
 Leave Link  108 at Thu Apr 16 10:40:49 2020, MaxMem= 1073741824 cpu:       0.0
 (Enter /home/matheus/.gaussian/g09/l202.exe)
 ---------------------------------------------------------------------------------------------------
                            Z-MATRIX (ANGSTROMS AND DEGREES)
   CD    Cent   Atom    N1       Length/X        N2       Alpha/Y        N3        Beta/Z          J
 ---------------------------------------------------------------------------------------------------
      1      1  O        0   0.000000          0.000000          0.725000
      2      2  O        0   0.000000          0.000000         -0.725000
      3      3  H        0   0.703781         -0.590542          1.023510
      4      4  H        0   0.000000          0.918721         -1.023510
      5      5  Kr       0   0.000000          3.000000          0.000000
 ---------------------------------------------------------------------------------------------------
                         Z-Matrix orientation:                         
 ---------------------------------------------------------------------
 Center     Atomic      Atomic             Coordinates (Angstroms)
 Number     Number       Type             X           Y           Z
 ---------------------------------------------------------------------
      1          8           0        0.000000    0.000000    0.725000
      2          8           0        0.000000    0.000000   -0.725000
      3          1           0        0.703781   -0.590542    1.023510
      4          1           0        0.000000    0.918721   -1.023510
      5         36           0        0.000000    3.000000    0.000000
 ---------------------------------------------------------------------
                    Distance matrix (angstroms):
                    1          2          3          4          5
     1  O    0.000000
     2  O    1.450000   0.000000
     3  H    0.966000   1.975180   0.000000
     4  H    1.975180   0.966000   2.638840   0.000000
     5  Kr   3.086361   3.086361   3.799326   2.319331   0.000000
 Stoichiometry    H2KrO2
 Framework group  C1[X(H2KrO2)]
 Deg. of freedom     9
 Full point group                 C1      NOp   1
 Largest Abelian subgroup         C1      NOp   1
 Largest concise Abelian subgroup C1      NOp   1
                         Standard orientation:                         
 ---------------------------------------------------------------------
 Center     Atomic      Atomic             Coordinates (Angstroms)
 Number     Number       Type             X           Y           Z
 ---------------------------------------------------------------------
      1          8           0        2.016888   -0.687971   -0.094863
      2          8           0        1.993721    0.758416    0.004771
      3          1           0        2.624080   -1.023798    0.577220
      4          1           0        1.070483    1.040460    0.039958
      5         36           0       -0.993873   -0.016117    0.002877
 ---------------------------------------------------------------------
 Rotational constants (GHZ):     26.0617959      2.3176349      2.1364645
 Leave Link  202 at Thu Apr 16 10:40:49 2020, MaxMem= 1073741824 cpu:       0.0
 (Enter /home/matheus/.gaussian/g09/l301.exe)
 Standard basis: Aug-CC-pVTZ (5D, 7F)
 Ernie: Thresh=  0.10000D-02 Tol=  0.10000D-05 Strict=F.
 Ernie:  38 primitive shells out of 205 were deleted.
 There are   197 symmetry adapted basis functions of A   symmetry.
 Integral buffers will be    131072 words long.
 Raffenetti 2 integral format.
 Two-electron integral symmetry is turned on.
   197 basis functions,   415 primitive gaussians,   229 cartesian basis functions
    27 alpha electrons       27 beta electrons
       nuclear repulsion energy       148.5957046553 Hartrees.
 IExCor= 4639 DFT=T Ex+Corr=wB97XD ExCW=0 ScaHFX=  1.000000
 ScaDFX=  1.000000  1.000000  1.000000  1.000000 ScalE2=  1.000000  1.000000
 IRadAn=      5 IRanWt=     -1 IRanGd=            0 ICorTp=0
  HFx wShort=  0.000000 wLong=  0.250000 cFull=  0.222036 cShort=  0.000000 cLong=  0.777964
  DFx wShort=  0.000000 wLong=  0.250000 cFull=  0.000000 cShort=  0.000000 cLong=  1.000000
 NAtoms=    5 NActive=    5 NUniq=    5 SFac= 1.00D+00 NAtFMM=   60 NAOKFM=F Big=F
 R6Disp: Dispersion energy =        -0.0008261946 Hartrees.
 Nuclear repulsion after empirical dispersion term =      148.5948784608 Hartrees.
 Leave Link  301 at Thu Apr 16 10:40:49 2020, MaxMem= 1073741824 cpu:       0.2
 (Enter /home/matheus/.gaussian/g09/l302.exe)
 NPDir=0 NMtPBC=     1 NCelOv=     1 NCel=       1 NClECP=     1 NCelD=      1
         NCelK=      1 NCelE2=     1 NClLst=     1 CellRange=     0.0.
 One-electron integrals computed using PRISM.
 NBasis=   197 RedAO= T  NBF=   197
 NBsUse=   197 1.00D-06 NBFU=   197
 Precomputing XC quadrature grid using
 IXCGrd= 2 IRadAn=           5 IRanWt=          -1 IRanGd=           0 AccXCQ= 0.00D+00.
 NRdTot=     427 NPtTot=      123512 NUsed=      126579 NTot=      126611
 NSgBfM=   229   229   229   229   229 NAtAll=     5     5.
 Leave Link  302 at Thu Apr 16 10:40:50 2020, MaxMem= 1073741824 cpu:       1.0
 (Enter /home/matheus/.gaussian/g09/l303.exe)
 DipDrv:  MaxL=1.
 Leave Link  303 at Thu Apr 16 10:40:50 2020, MaxMem= 1073741824 cpu:       0.2
 (Enter /home/matheus/.gaussian/g09/l401.exe)
 Harris functional with IExCor= 4639 diagonalized for initial guess.
 ExpMin= 2.53D-02 ExpMax= 1.17D+07 ExpMxC= 1.33D+04 IAcc=3 IRadAn=         5 AccDes= 0.00D+00
 HarFok:  IExCor= 4639 AccDes= 0.00D+00 IRadAn=         5 IDoV= 1
 ScaDFX=  1.000000  1.000000  1.000000  1.000000
 FoFCou: FMM=F IPFlag=           0 FMFlag=      100000 FMFlg1=           0
         NFxFlg=           0 DoJE=T BraDBF=F KetDBF=T FulRan=T
         Omega=  0.000000  0.000000  1.000000  0.000000  0.000000 ICntrl=     500 IOpCl=  0
         NMat0=    1 NMatS0=    1 NMatT0=    0 NMatD0=    1 NMtDS0=    0 NMtDT0=    0
         I1Cent=           4 NGrid=           0.
 Petite list used in FoFCou.
 Harris En= -2875.39624311614    
 Initial guess orbital symmetries:
       Occupied  (A) (A) (A) (A) (A) (A) (A) (A) (A) (A) (A) (A)
                 (A) (A) (A) (A) (A) (A) (A) (A) (A) (A) (A) (A)
                 (A) (A) (A)
       Virtual   (A) (A) (A) (A) (A) (A) (A) (A) (A) (A) (A) (A)
                 (A) (A) (A) (A) (A) (A) (A) (A) (A) (A) (A) (A)
                 (A) (A) (A) (A) (A) (A) (A) (A) (A) (A) (A) (A)
                 (A) (A) (A) (A) (A) (A) (A) (A) (A) (A) (A) (A)
                 (A) (A) (A) (A) (A) (A) (A) (A) (A) (A) (A) (A)
                 (A) (A) (A) (A) (A) (A) (A) (A) (A) (A) (A) (A)
                 (A) (A) (A) (A) (A) (A) (A) (A) (A) (A) (A) (A)
                 (A) (A) (A) (A) (A) (A) (A) (A) (A) (A) (A) (A)
                 (A) (A) (A) (A) (A) (A) (A) (A) (A) (A) (A) (A)
                 (A) (A) (A) (A) (A) (A) (A) (A) (A) (A) (A) (A)
                 (A) (A) (A) (A) (A) (A) (A) (A) (A) (A) (A) (A)
                 (A) (A) (A) (A) (A) (A) (A) (A) (A) (A) (A) (A)
                 (A) (A) (A) (A) (A) (A) (A) (A) (A) (A) (A) (A)
                 (A) (A) (A) (A) (A) (A) (A) (A) (A) (A) (A) (A)
                 (A) (A)
 The electronic state of the initial guess is 1-A.
 Leave Link  401 at Thu Apr 16 10:40:50 2020, MaxMem= 1073741824 cpu:       3.8
 (Enter /home/matheus/.gaussian/g09/l502.exe)
 Closed shell SCF:
 Requested convergence on RMS density matrix=1.00D-08 within 128 cycles.
 Requested convergence on MAX density matrix=1.00D-06.
 Requested convergence on             energy=1.00D-06.
 No special actions if energy rises.
 Using DIIS extrapolation, IDIIS=  1040.
 Integral symmetry usage will be decided dynamically.
       126521 words used for storage of precomputed grid.
 IEnd=      305468 IEndB=      305468 NGot=  1073741824 MDV=  1073505667
 LenX=  1073505667 LenY=  1073452785
 Fock matrices will be formed incrementally for  20 cycles.

 Cycle   1  Pass 1  IDiag  1:
 FoFJK:  IHMeth= 1 ICntrl=     0 DoSepK=T KAlg= 1 I1Cent= 0 FoldK=F
 FoFCou: FMM=F IPFlag=           0 FMFlag=      100000 FMFlg1=           0
         NFxFlg=           0 DoJE=T BraDBF=F KetDBF=F FulRan=T
         Omega=  0.000000  0.000000  1.000000  0.000000  0.000000 ICntrl=     500 IOpCl=  0
         NMat0=    1 NMatS0=    1 NMatT0=    0 NMatD0=    1 NMtDS0=    0 NMtDT0=    0
         I1Cent=           0 NGrid=           0.
 Symmetry not used in FoFCou.
 E= -2904.90261583136    
 DIIS: error= 7.33D-02 at cycle   1 NSaved=   1.
 NSaved= 1 IEnMin= 1 EnMin= -2904.90261583136     IErMin= 1 ErrMin= 7.33D-02
 ErrMax= 7.33D-02 EMaxC= 1.00D-01 BMatC= 2.21D+00 BMatP= 2.21D+00
 IDIUse=3 WtCom= 2.67D-01 WtEn= 7.33D-01
 Coeff-Com:  0.100D+01
 Coeff-En:   0.100D+01
 Coeff:      0.100D+01
 Gap=     0.543 Goal=   None    Shift=    0.000
 GapD=    0.543 DampG=2.000 DampE=0.500 DampFc=1.0000 IDamp=-1.
 RMSDP=6.14D-03 MaxDP=3.66D-01              OVMax= 1.81D-01

 Cycle   2  Pass 1  IDiag  1:
 RMSU=  4.31D-03    CP:  1.03D+00
 FoFJK:  IHMeth= 1 ICntrl=     0 DoSepK=T KAlg= 1 I1Cent= 0 FoldK=F
 E= -2905.22192880569     Delta-E=       -0.319312974333 Rises=F Damp=F
 DIIS: error= 3.53D-02 at cycle   2 NSaved=   2.
 NSaved= 2 IEnMin= 2 EnMin= -2905.22192880569     IErMin= 2 ErrMin= 3.53D-02
 ErrMax= 3.53D-02 EMaxC= 1.00D-01 BMatC= 5.66D-01 BMatP= 2.21D+00
 IDIUse=3 WtCom= 6.47D-01 WtEn= 3.53D-01
 Coeff-Com:  0.328D+00 0.672D+00
 Coeff-En:   0.199D+00 0.801D+00
 Coeff:      0.283D+00 0.717D+00
 Gap=     0.485 Goal=   None    Shift=    0.000
 RMSDP=2.70D-03 MaxDP=1.58D-01 DE=-3.19D-01 OVMax= 7.44D-02

 Cycle   3  Pass 1  IDiag  1:
 RMSU=  5.72D-04    CP:  1.02D+00  5.80D-01
 FoFJK:  IHMeth= 1 ICntrl=     0 DoSepK=T KAlg= 1 I1Cent= 0 FoldK=F
 E= -2905.41617910749     Delta-E=       -0.194250301804 Rises=F Damp=F
 DIIS: error= 6.43D-03 at cycle   3 NSaved=   3.
 NSaved= 3 IEnMin= 3 EnMin= -2905.41617910749     IErMin= 3 ErrMin= 6.43D-03
 ErrMax= 6.43D-03 EMaxC= 1.00D-01 BMatC= 1.99D-02 BMatP= 5.66D-01
 IDIUse=3 WtCom= 9.36D-01 WtEn= 6.43D-02
 Coeff-Com:  0.337D-01 0.194D+00 0.773D+00
 Coeff-En:   0.000D+00 0.000D+00 0.100D+01
 Coeff:      0.315D-01 0.181D+00 0.787D+00
 Gap=     0.436 Goal=   None    Shift=    0.000
 RMSDP=4.88D-04 MaxDP=1.93D-02 DE=-1.94D-01 OVMax= 2.68D-02

 Cycle   4  Pass 1  IDiag  1:
 RMSU=  2.30D-04    CP:  1.02D+00  6.38D-01  9.01D-01
 FoFJK:  IHMeth= 1 ICntrl=     0 DoSepK=T KAlg= 1 I1Cent= 0 FoldK=F
 E= -2905.42522509673     Delta-E=       -0.009045989234 Rises=F Damp=F
 DIIS: error= 2.53D-03 at cycle   4 NSaved=   4.
 NSaved= 4 IEnMin= 4 EnMin= -2905.42522509673     IErMin= 4 ErrMin= 2.53D-03
 ErrMax= 2.53D-03 EMaxC= 1.00D-01 BMatC= 1.78D-03 BMatP= 1.99D-02
 IDIUse=3 WtCom= 9.75D-01 WtEn= 2.53D-02
 Coeff-Com: -0.254D-02 0.504D-01 0.367D+00 0.585D+00
 Coeff-En:   0.000D+00 0.000D+00 0.000D+00 0.100D+01
 Coeff:     -0.247D-02 0.491D-01 0.358D+00 0.596D+00
 Gap=     0.421 Goal=   None    Shift=    0.000
 RMSDP=1.16D-04 MaxDP=6.63D-03 DE=-9.05D-03 OVMax= 6.91D-03

 Cycle   5  Pass 1  IDiag  1:
 RMSU=  4.10D-05    CP:  1.02D+00  6.37D-01  9.48D-01  7.18D-01
 FoFJK:  IHMeth= 1 ICntrl=     0 DoSepK=T KAlg= 1 I1Cent= 0 FoldK=F
 E= -2905.42629084386     Delta-E=       -0.001065747127 Rises=F Damp=F
 DIIS: error= 2.60D-04 at cycle   5 NSaved=   5.
 NSaved= 5 IEnMin= 5 EnMin= -2905.42629084386     IErMin= 5 ErrMin= 2.60D-04
 ErrMax= 2.60D-04 EMaxC= 1.00D-01 BMatC= 2.62D-05 BMatP= 1.78D-03
 IDIUse=3 WtCom= 9.97D-01 WtEn= 2.60D-03
 Coeff-Com: -0.153D-02 0.114D-01 0.102D+00 0.187D+00 0.701D+00
 Coeff-En:   0.000D+00 0.000D+00 0.000D+00 0.000D+00 0.100D+01
 Coeff:     -0.153D-02 0.114D-01 0.102D+00 0.187D+00 0.702D+00
 Gap=     0.420 Goal=   None    Shift=    0.000
 RMSDP=2.33D-05 MaxDP=9.99D-04 DE=-1.07D-03 OVMax= 1.59D-03

 Cycle   6  Pass 1  IDiag  1:
 RMSU=  1.48D-05    CP:  1.02D+00  6.37D-01  9.56D-01  7.39D-01  1.08D+00
 FoFJK:  IHMeth= 1 ICntrl=     0 DoSepK=T KAlg= 1 I1Cent= 0 FoldK=F
 E= -2905.42630448671     Delta-E=       -0.000013642856 Rises=F Damp=F
 DIIS: error= 1.83D-04 at cycle   6 NSaved=   6.
 NSaved= 6 IEnMin= 6 EnMin= -2905.42630448671     IErMin= 6 ErrMin= 1.83D-04
 ErrMax= 1.83D-04 EMaxC= 1.00D-01 BMatC= 1.04D-05 BMatP= 2.62D-05
 IDIUse=3 WtCom= 9.98D-01 WtEn= 1.83D-03
 Coeff-Com: -0.242D-03-0.647D-02-0.344D-01-0.464D-01 0.392D+00 0.695D+00
 Coeff-En:   0.000D+00 0.000D+00 0.000D+00 0.000D+00 0.185D+00 0.815D+00
 Coeff:     -0.242D-03-0.646D-02-0.343D-01-0.463D-01 0.392D+00 0.695D+00
 Gap=     0.420 Goal=   None    Shift=    0.000
 RMSDP=1.32D-05 MaxDP=4.48D-04 DE=-1.36D-05 OVMax= 7.48D-04

 Cycle   7  Pass 1  IDiag  1:
 RMSU=  3.80D-06    CP:  1.02D+00  6.37D-01  9.63D-01  7.49D-01  1.24D+00
                    CP:  8.59D-01
 FoFJK:  IHMeth= 1 ICntrl=     0 DoSepK=T KAlg= 1 I1Cent= 0 FoldK=F
 E= -2905.42631210219     Delta-E=       -0.000007615479 Rises=F Damp=F
 DIIS: error= 1.26D-05 at cycle   7 NSaved=   7.
 NSaved= 7 IEnMin= 7 EnMin= -2905.42631210219     IErMin= 7 ErrMin= 1.26D-05
 ErrMax= 1.26D-05 EMaxC= 1.00D-01 BMatC= 6.39D-08 BMatP= 1.04D-05
 IDIUse=1 WtCom= 1.00D+00 WtEn= 0.00D+00
 Coeff-Com:  0.355D-04-0.915D-03-0.641D-02-0.955D-02-0.127D-01 0.403D-01
 Coeff-Com:  0.989D+00
 Coeff:      0.355D-04-0.915D-03-0.641D-02-0.955D-02-0.127D-01 0.403D-01
 Coeff:      0.989D+00
 Gap=     0.420 Goal=   None    Shift=    0.000
 RMSDP=2.77D-06 MaxDP=8.34D-05 DE=-7.62D-06 OVMax= 2.05D-04

 Cycle   8  Pass 1  IDiag  1:
 RMSU=  8.43D-07    CP:  1.02D+00  6.37D-01  9.64D-01  7.52D-01  1.26D+00
                    CP:  9.13D-01  1.21D+00
 FoFJK:  IHMeth= 1 ICntrl=     0 DoSepK=T KAlg= 1 I1Cent= 0 FoldK=F
 E= -2905.42631224368     Delta-E=       -0.000000141494 Rises=F Damp=F
 DIIS: error= 3.11D-06 at cycle   8 NSaved=   8.
 NSaved= 8 IEnMin= 8 EnMin= -2905.42631224368     IErMin= 8 ErrMin= 3.11D-06
 ErrMax= 3.11D-06 EMaxC= 1.00D-01 BMatC= 3.79D-09 BMatP= 6.39D-08
 IDIUse=1 WtCom= 1.00D+00 WtEn= 0.00D+00
 Coeff-Com:  0.120D-04 0.224D-03 0.113D-02 0.119D-02-0.197D-01-0.295D-01
 Coeff-Com:  0.396D-01 0.101D+01
 Coeff:      0.120D-04 0.224D-03 0.113D-02 0.119D-02-0.197D-01-0.295D-01
 Coeff:      0.396D-01 0.101D+01
 Gap=     0.420 Goal=   None    Shift=    0.000
 RMSDP=6.80D-07 MaxDP=1.72D-05 DE=-1.41D-07 OVMax= 6.28D-05

 Cycle   9  Pass 1  IDiag  1:
 RMSU=  2.05D-07    CP:  1.02D+00  6.37D-01  9.64D-01  7.52D-01  1.27D+00
                    CP:  9.23D-01  1.29D+00  1.26D+00
 FoFJK:  IHMeth= 1 ICntrl=     0 DoSepK=T KAlg= 1 I1Cent= 0 FoldK=F
 E= -2905.42631225412     Delta-E=       -0.000000010438 Rises=F Damp=F
 DIIS: error= 1.11D-06 at cycle   9 NSaved=   9.
 NSaved= 9 IEnMin= 9 EnMin= -2905.42631225412     IErMin= 9 ErrMin= 1.11D-06
 ErrMax= 1.11D-06 EMaxC= 1.00D-01 BMatC= 3.36D-10 BMatP= 3.79D-09
 IDIUse=1 WtCom= 1.00D+00 WtEn= 0.00D+00
 Coeff-Com: -0.207D-05 0.639D-04 0.438D-03 0.490D-03 0.604D-03-0.184D-02
 Coeff-Com: -0.606D-01-0.325D-01 0.109D+01
 Coeff:     -0.207D-05 0.639D-04 0.438D-03 0.490D-03 0.604D-03-0.184D-02
 Coeff:     -0.606D-01-0.325D-01 0.109D+01
 Gap=     0.420 Goal=   None    Shift=    0.000
 RMSDP=2.10D-07 MaxDP=5.55D-06 DE=-1.04D-08 OVMax= 2.61D-05

 Cycle  10  Pass 1  IDiag  1:
 RMSU=  7.45D-08    CP:  1.02D+00  6.37D-01  9.64D-01  7.52D-01  1.27D+00
                    CP:  9.24D-01  1.30D+00  1.35D+00  1.38D+00
 FoFJK:  IHMeth= 1 ICntrl=     0 DoSepK=T KAlg= 1 I1Cent= 0 FoldK=F
 E= -2905.42631225532     Delta-E=       -0.000000001192 Rises=F Damp=F
 DIIS: error= 3.99D-07 at cycle  10 NSaved=  10.
 NSaved=10 IEnMin=10 EnMin= -2905.42631225532     IErMin=10 ErrMin= 3.99D-07
 ErrMax= 3.99D-07 EMaxC= 1.00D-01 BMatC= 3.94D-11 BMatP= 3.36D-10
 IDIUse=1 WtCom= 1.00D+00 WtEn= 0.00D+00
 Coeff-Com: -0.416D-06-0.141D-04-0.801D-04-0.689D-04 0.155D-02 0.245D-02
 Coeff-Com:  0.126D-03-0.105D+00 0.626D-01 0.104D+01
 Coeff:     -0.416D-06-0.141D-04-0.801D-04-0.689D-04 0.155D-02 0.245D-02
 Coeff:      0.126D-03-0.105D+00 0.626D-01 0.104D+01
 Gap=     0.420 Goal=   None    Shift=    0.000
 RMSDP=7.26D-08 MaxDP=1.53D-06 DE=-1.19D-09 OVMax= 1.06D-05

 Cycle  11  Pass 1  IDiag  1:
 RMSU=  2.07D-08    CP:  1.02D+00  6.37D-01  9.64D-01  7.52D-01  1.27D+00
                    CP:  9.24D-01  1.30D+00  1.37D+00  1.55D+00  1.36D+00
 FoFJK:  IHMeth= 1 ICntrl=     0 DoSepK=T KAlg= 1 I1Cent= 0 FoldK=F
 E= -2905.42631225545     Delta-E=       -0.000000000132 Rises=F Damp=F
 DIIS: error= 1.55D-07 at cycle  11 NSaved=  11.
 NSaved=11 IEnMin=11 EnMin= -2905.42631225545     IErMin=11 ErrMin= 1.55D-07
 ErrMax= 1.55D-07 EMaxC= 1.00D-01 BMatC= 5.49D-12 BMatP= 3.94D-11
 IDIUse=1 WtCom= 1.00D+00 WtEn= 0.00D+00
 Coeff-Com:  0.439D-06-0.667D-05-0.506D-04-0.416D-04-0.284D-03-0.443D-04
 Coeff-Com:  0.916D-02 0.473D-02-0.122D+00-0.123D+00 0.123D+01
 Coeff:      0.439D-06-0.667D-05-0.506D-04-0.416D-04-0.284D-03-0.443D-04
 Coeff:      0.916D-02 0.473D-02-0.122D+00-0.123D+00 0.123D+01
 Gap=     0.420 Goal=   None    Shift=    0.000
 RMSDP=3.48D-08 MaxDP=7.65D-07 DE=-1.32D-10 OVMax= 5.33D-06

 Cycle  12  Pass 1  IDiag  1:
 RMSU=  7.32D-09    CP:  1.02D+00  6.37D-01  9.64D-01  7.52D-01  1.27D+00
                    CP:  9.24D-01  1.30D+00  1.37D+00  1.61D+00  1.58D+00
                    CP:  1.50D+00
 FoFJK:  IHMeth= 1 ICntrl=     0 DoSepK=T KAlg= 1 I1Cent= 0 FoldK=F
 E= -2905.42631225547     Delta-E=       -0.000000000026 Rises=F Damp=F
 DIIS: error= 4.97D-08 at cycle  12 NSaved=  12.
 NSaved=12 IEnMin=12 EnMin= -2905.42631225547     IErMin=12 ErrMin= 4.97D-08
 ErrMax= 4.97D-08 EMaxC= 1.00D-01 BMatC= 3.80D-13 BMatP= 5.49D-12
 IDIUse=1 WtCom= 1.00D+00 WtEn= 0.00D+00
 Coeff-Com: -0.471D-07 0.104D-05 0.798D-05-0.139D-05-0.118D-03-0.187D-03
 Coeff-Com: -0.332D-03 0.707D-02 0.989D-02-0.799D-01-0.157D+00 0.122D+01
 Coeff:     -0.471D-07 0.104D-05 0.798D-05-0.139D-05-0.118D-03-0.187D-03
 Coeff:     -0.332D-03 0.707D-02 0.989D-02-0.799D-01-0.157D+00 0.122D+01
 Gap=     0.420 Goal=   None    Shift=    0.000
 RMSDP=1.13D-08 MaxDP=2.29D-07 DE=-2.64D-11 OVMax= 1.58D-06

 Cycle  13  Pass 1  IDiag  1:
 RMSU=  2.00D-09    CP:  1.02D+00  6.37D-01  9.64D-01  7.52D-01  1.27D+00
                    CP:  9.24D-01  1.30D+00  1.37D+00  1.62D+00  1.62D+00
                    CP:  1.69D+00  1.58D+00
 FoFJK:  IHMeth= 1 ICntrl=     0 DoSepK=T KAlg= 1 I1Cent= 0 FoldK=F
 E= -2905.42631225547     Delta-E=       -0.000000000001 Rises=F Damp=F
 DIIS: error= 8.78D-09 at cycle  13 NSaved=  13.
 NSaved=13 IEnMin=13 EnMin= -2905.42631225547     IErMin=13 ErrMin= 8.78D-09
 ErrMax= 8.78D-09 EMaxC= 1.00D-01 BMatC= 2.70D-14 BMatP= 3.80D-13
 IDIUse=1 WtCom= 1.00D+00 WtEn= 0.00D+00
 Coeff-Com: -0.385D-07 0.457D-06 0.367D-05 0.741D-06 0.146D-04 0.524D-05
 Coeff-Com: -0.557D-03-0.304D-03 0.914D-02 0.460D-02-0.101D+00 0.894D-01
 Coeff-Com:  0.999D+00
 Coeff:     -0.385D-07 0.457D-06 0.367D-05 0.741D-06 0.146D-04 0.524D-05
 Coeff:     -0.557D-03-0.304D-03 0.914D-02 0.460D-02-0.101D+00 0.894D-01
 Coeff:      0.999D+00
 Gap=     0.420 Goal=   None    Shift=    0.000
 RMSDP=2.62D-09 MaxDP=6.64D-08 DE=-9.09D-13 OVMax= 2.65D-07

 SCF Done:  E(RwB97XD) =  -2905.42631226     A.U. after   13 cycles
             Convg  =    0.2621D-08             -V/T =  2.0015
 KE= 2.900931124437D+03 PE=-7.235506230319D+03 EE= 1.280553915166D+03
 Leave Link  502 at Thu Apr 16 10:41:29 2020, MaxMem= 1073741824 cpu:     314.1
 (Enter /home/matheus/.gaussian/g09/l601.exe)
 Copying SCF densities to generalized density rwf, IOpCl= 0 IROHF=0.

 **********************************************************************

            Population analysis using the SCF density.

 **********************************************************************

 Orbital symmetries:
       Occupied  (A) (A) (A) (A) (A) (A) (A) (A) (A) (A) (A) (A)
                 (A) (A) (A) (A) (A) (A) (A) (A) (A) (A) (A) (A)
                 (A) (A) (A)
       Virtual   (A) (A) (A) (A) (A) (A) (A) (A) (A) (A) (A) (A)
                 (A) (A) (A) (A) (A) (A) (A) (A) (A) (A) (A) (A)
                 (A) (A) (A) (A) (A) (A) (A) (A) (A) (A) (A) (A)
                 (A) (A) (A) (A) (A) (A) (A) (A) (A) (A) (A) (A)
                 (A) (A) (A) (A) (A) (A) (A) (A) (A) (A) (A) (A)
                 (A) (A) (A) (A) (A) (A) (A) (A) (A) (A) (A) (A)
                 (A) (A) (A) (A) (A) (A) (A) (A) (A) (A) (A) (A)
                 (A) (A) (A) (A) (A) (A) (A) (A) (A) (A) (A) (A)
                 (A) (A) (A) (A) (A) (A) (A) (A) (A) (A) (A) (A)
                 (A) (A) (A) (A) (A) (A) (A) (A) (A) (A) (A) (A)
                 (A) (A) (A) (A) (A) (A) (A) (A) (A) (A) (A) (A)
                 (A) (A) (A) (A) (A) (A) (A) (A) (A) (A) (A) (A)
                 (A) (A) (A) (A) (A) (A) (A) (A) (A) (A) (A) (A)
                 (A) (A) (A) (A) (A) (A) (A) (A) (A) (A) (A) (A)
                 (A) (A)
 The electronic state is 1-A.
 Alpha  occ. eigenvalues -- -513.09030 -67.35856 -60.90737 -60.90724 -60.90716
 Alpha  occ. eigenvalues --  -19.33898 -19.33509  -9.81184  -7.50521  -7.50476
 Alpha  occ. eigenvalues --   -7.50451  -3.37202  -3.37193  -3.37174  -3.37137
 Alpha  occ. eigenvalues --   -3.37135  -1.24403  -1.03310  -1.01853  -0.65704
 Alpha  occ. eigenvalues --   -0.60933  -0.52871  -0.49652  -0.49182  -0.48482
 Alpha  occ. eigenvalues --   -0.43841  -0.38356
 Alpha virt. eigenvalues --    0.03598   0.04340   0.08207   0.09939   0.10666
 Alpha virt. eigenvalues --    0.11757   0.13634   0.14181   0.16882   0.17867
 Alpha virt. eigenvalues --    0.18542   0.19124   0.20683   0.22364   0.23722
 Alpha virt. eigenvalues --    0.24380   0.25913   0.28404   0.31358   0.33394
 Alpha virt. eigenvalues --    0.33858   0.34768   0.35858   0.38705   0.39544
 Alpha virt. eigenvalues --    0.41042   0.41710   0.47617   0.51841   0.55080
 Alpha virt. eigenvalues --    0.55981   0.58273   0.61439   0.66020   0.67008
 Alpha virt. eigenvalues --    0.69974   0.70779   0.71428   0.73484   0.74897
 Alpha virt. eigenvalues --    0.75293   0.77351   0.77622   0.79716   0.81140
 Alpha virt. eigenvalues --    0.84274   0.84885   0.86905   0.89022   0.89426
 Alpha virt. eigenvalues --    0.92115   0.93284   0.95380   0.96415   0.98743
 Alpha virt. eigenvalues --    1.00908   1.01758   1.03759   1.06831   1.07840
 Alpha virt. eigenvalues --    1.09319   1.13268   1.14381   1.17199   1.21878
 Alpha virt. eigenvalues --    1.24871   1.31085   1.32143   1.36846   1.39916
 Alpha virt. eigenvalues --    1.40901   1.48981   1.52381   1.53846   1.59076
 Alpha virt. eigenvalues --    1.63509   1.73454   1.82190   1.84150   1.92705
 Alpha virt. eigenvalues --    1.96642   1.99563   2.07435   2.11823   2.14141
 Alpha virt. eigenvalues --    2.14756   2.17731   2.19939   2.20988   2.23277
 Alpha virt. eigenvalues --    2.24587   2.29400   2.30128   2.30898   2.34781
 Alpha virt. eigenvalues --    2.35729   2.38097   2.42870   2.44973   2.47503
 Alpha virt. eigenvalues --    2.47548   2.49419   2.52286   2.54239   2.56981
 Alpha virt. eigenvalues --    2.59016   2.60899   2.63403   2.64725   2.69904
 Alpha virt. eigenvalues --    2.71901   2.74724   2.80191   2.84957   2.85896
 Alpha virt. eigenvalues --    2.90840   3.03856   3.09404   3.12860   3.61536
 Alpha virt. eigenvalues --    3.65675   3.86901   3.97406   4.01434   4.03597
 Alpha virt. eigenvalues --    4.09643   4.13954   4.19942   4.24140   4.26805
 Alpha virt. eigenvalues --    4.44510   4.48793   4.51003   4.53664   4.70243
 Alpha virt. eigenvalues --    4.88845   4.97393   5.05532   5.09628   5.10006
 Alpha virt. eigenvalues --    5.23568   5.43112   5.83465   6.05805   6.07970
 Alpha virt. eigenvalues --    6.11182   6.30955   6.35112   6.40630   6.52743
 Alpha virt. eigenvalues --    6.62401   6.75330   6.77031   6.81792   6.84714
 Alpha virt. eigenvalues --    6.86037   6.88907   6.90080   6.96616   7.02518
 Alpha virt. eigenvalues --    7.03671   7.19501   7.25786   7.40639   7.76756
 Alpha virt. eigenvalues --    7.77917   8.06478   8.11619  13.97040  14.65849
          Condensed to atoms (all electrons):
              1          2          3          4          5
     1  O    8.149105  -0.161773   0.232792   0.001147  -0.022582
     2  O   -0.161773   8.233022   0.008103   0.206510  -0.016929
     3  H    0.232792   0.008103   0.541174   0.003063   0.002860
     4  H    0.001147   0.206510   0.003063   0.545149  -0.004248
     5  Kr  -0.022582  -0.016929   0.002860  -0.004248  36.033662
 Mulliken atomic charges:
              1
     1  O   -0.198689
     2  O   -0.268933
     3  H    0.212007
     4  H    0.248378
     5  Kr   0.007237
 Sum of Mulliken atomic charges =   0.00000
 Mulliken charges with hydrogens summed into heavy atoms:
              1
     1  O    0.013318
     2  O   -0.020555
     5  Kr   0.007237
 Sum of Mulliken charges with hydrogens summed into heavy atoms =   0.00000
 Electronic spatial extent (au):  <R**2>=            489.5406
 Charge=              0.0000 electrons
 Dipole moment (field-independent basis, Debye):
    X=             -0.7102    Y=             -0.3699    Z=              1.1774  Tot=              1.4239
 Quadrupole moment (field-independent basis, Debye-Ang):
   XX=            -29.6444   YY=            -28.1217   ZZ=            -29.7289
   XY=             -3.4364   XZ=              3.3847   YZ=             -1.3283
 Traceless Quadrupole moment (field-independent basis, Debye-Ang):
   XX=             -0.4795   YY=              1.0433   ZZ=             -0.5639
   XY=             -3.4364   XZ=              3.3847   YZ=             -1.3283
 Octapole moment (field-independent basis, Debye-Ang**2):
  XXX=            -14.8003  YYY=             -0.9185  ZZZ=              0.7221  XYY=             -4.2323
  XXY=            -13.2364  XXZ=              9.1882  XZZ=             -6.3418  YZZ=             -1.2053
  YYZ=              1.5997  XYZ=             -3.7225
 Hexadecapole moment (field-independent basis, Debye-Ang**3):
 XXXX=           -395.4887 YYYY=            -63.5375 ZZZZ=            -30.0013 XXXY=            -37.3958
 XXXZ=             25.7225 YYYX=             -5.5096 YYYZ=             -1.7721 ZZZX=              2.3053
 ZZZY=             -1.0940 XXYY=            -76.2591 XXZZ=            -73.7885 YYZZ=            -16.7022
 XXYZ=            -10.2651 YYXZ=              4.2771 ZZXY=             -2.6428
 N-N= 1.485948784608D+02 E-N=-7.235506229956D+03  KE= 2.900931124437D+03
 No NMR shielding tensors so no spin-rotation constants.
 Leave Link  601 at Thu Apr 16 10:41:30 2020, MaxMem= 1073741824 cpu:       0.8
 (Enter /home/matheus/.gaussian/g09/l108.exe)
 Variable Step   Value    
 -------- ---- -----------
     1       1    5.858151
 Leave Link  108 at Thu Apr 16 10:41:30 2020, MaxMem= 1073741824 cpu:       0.0
 (Enter /home/matheus/.gaussian/g09/l202.exe)
 ---------------------------------------------------------------------------------------------------
                            Z-MATRIX (ANGSTROMS AND DEGREES)
   CD    Cent   Atom    N1       Length/X        N2       Alpha/Y        N3        Beta/Z          J
 ---------------------------------------------------------------------------------------------------
      1      1  O        0   0.000000          0.000000          0.725000
      2      2  O        0   0.000000          0.000000         -0.725000
      3      3  H        0   0.703781         -0.590542          1.023510
      4      4  H        0   0.000000          0.918721         -1.023510
      5      5  Kr       0   0.000000          3.100000          0.000000
 ---------------------------------------------------------------------------------------------------
                         Z-Matrix orientation:                         
 ---------------------------------------------------------------------
 Center     Atomic      Atomic             Coordinates (Angstroms)
 Number     Number       Type             X           Y           Z
 ---------------------------------------------------------------------
      1          8           0        0.000000    0.000000    0.725000
      2          8           0        0.000000    0.000000   -0.725000
      3          1           0        0.703781   -0.590542    1.023510
      4          1           0        0.000000    0.918721   -1.023510
      5         36           0        0.000000    3.100000    0.000000
 ---------------------------------------------------------------------
                    Distance matrix (angstroms):
                    1          2          3          4          5
     1  O    0.000000
     2  O    1.450000   0.000000
     3  H    0.966000   1.975180   0.000000
     4  H    1.975180   0.966000   2.638840   0.000000
     5  Kr   3.183650   3.183650   3.893967   2.409472   0.000000
 Stoichiometry    H2KrO2
 Framework group  C1[X(H2KrO2)]
 Deg. of freedom     9
 Full point group                 C1      NOp   1
 RotChk:  IX=0 Diff= 1.85D-03
 Largest Abelian subgroup         C1      NOp   1
 Largest concise Abelian subgroup C1      NOp   1
                         Standard orientation:                         
 ---------------------------------------------------------------------
 Center     Atomic      Atomic             Coordinates (Angstroms)
 Number     Number       Type             X           Y           Z
 ---------------------------------------------------------------------
      1          8           0        2.082797   -0.689234   -0.094740
      2          8           0        2.061246    0.757168    0.005032
      3          1           0        2.689192   -1.025834    0.577674
      4          1           0        1.138314    1.040279    0.039690
      5         36           0       -1.027218   -0.015498    0.002786
 ---------------------------------------------------------------------
 Rotational constants (GHZ):     26.0603273      2.1711389      2.0113529
 Leave Link  202 at Thu Apr 16 10:41:30 2020, MaxMem= 1073741824 cpu:       0.0
 (Enter /home/matheus/.gaussian/g09/l301.exe)
 Standard basis: Aug-CC-pVTZ (5D, 7F)
 Ernie: Thresh=  0.10000D-02 Tol=  0.10000D-05 Strict=F.
 Ernie:  38 primitive shells out of 205 were deleted.
 There are   197 symmetry adapted basis functions of A   symmetry.
 Integral buffers will be    131072 words long.
 Raffenetti 2 integral format.
 Two-electron integral symmetry is turned on.
   197 basis functions,   415 primitive gaussians,   229 cartesian basis functions
    27 alpha electrons       27 beta electrons
       nuclear repulsion energy       145.1485964360 Hartrees.
 IExCor= 4639 DFT=T Ex+Corr=wB97XD ExCW=0 ScaHFX=  1.000000
 ScaDFX=  1.000000  1.000000  1.000000  1.000000 ScalE2=  1.000000  1.000000
 IRadAn=      5 IRanWt=     -1 IRanGd=            0 ICorTp=0
  HFx wShort=  0.000000 wLong=  0.250000 cFull=  0.222036 cShort=  0.000000 cLong=  0.777964
  DFx wShort=  0.000000 wLong=  0.250000 cFull=  0.000000 cShort=  0.000000 cLong=  1.000000
 NAtoms=    5 NActive=    5 NUniq=    5 SFac= 1.00D+00 NAtFMM=   60 NAOKFM=F Big=F
 R6Disp: Dispersion energy =        -0.0008764050 Hartrees.
 Nuclear repulsion after empirical dispersion term =      145.1477200310 Hartrees.
 Leave Link  301 at Thu Apr 16 10:41:30 2020, MaxMem= 1073741824 cpu:       0.2
 (Enter /home/matheus/.gaussian/g09/l302.exe)
 NPDir=0 NMtPBC=     1 NCelOv=     1 NCel=       1 NClECP=     1 NCelD=      1
         NCelK=      1 NCelE2=     1 NClLst=     1 CellRange=     0.0.
 One-electron integrals computed using PRISM.
 NBasis=   197 RedAO= T  NBF=   197
 NBsUse=   197 1.00D-06 NBFU=   197
 Precomputing XC quadrature grid using
 IXCGrd= 2 IRadAn=           5 IRanWt=          -1 IRanGd=           0 AccXCQ= 0.00D+00.
 NRdTot=     427 NPtTot=      123814 NUsed=      126881 NTot=      126913
 NSgBfM=   229   229   229   229   229 NAtAll=     5     5.
 Leave Link  302 at Thu Apr 16 10:41:30 2020, MaxMem= 1073741824 cpu:       1.1
 (Enter /home/matheus/.gaussian/g09/l303.exe)
 DipDrv:  MaxL=1.
 Leave Link  303 at Thu Apr 16 10:41:30 2020, MaxMem= 1073741824 cpu:       0.2
 (Enter /home/matheus/.gaussian/g09/l401.exe)
 Initial guess read from the read-write file.
 B after Tr=     0.000000    0.000000    0.000000
         Rot=    1.000000    0.000000    0.000000    0.000000 Ang=   0.00 deg.
 Guess basis will be translated and rotated to current coordinates.
 Initial guess orbital symmetries:
       Occupied  (A) (A) (A) (A) (A) (A) (A) (A) (A) (A) (A) (A)
                 (A) (A) (A) (A) (A) (A) (A) (A) (A) (A) (A) (A)
                 (A) (A) (A)
       Virtual   (A) (A) (A) (A) (A) (A) (A) (A) (A) (A) (A) (A)
                 (A) (A) (A) (A) (A) (A) (A) (A) (A) (A) (A) (A)
                 (A) (A) (A) (A) (A) (A) (A) (A) (A) (A) (A) (A)
                 (A) (A) (A) (A) (A) (A) (A) (A) (A) (A) (A) (A)
                 (A) (A) (A) (A) (A) (A) (A) (A) (A) (A) (A) (A)
                 (A) (A) (A) (A) (A) (A) (A) (A) (A) (A) (A) (A)
                 (A) (A) (A) (A) (A) (A) (A) (A) (A) (A) (A) (A)
                 (A) (A) (A) (A) (A) (A) (A) (A) (A) (A) (A) (A)
                 (A) (A) (A) (A) (A) (A) (A) (A) (A) (A) (A) (A)
                 (A) (A) (A) (A) (A) (A) (A) (A) (A) (A) (A) (A)
                 (A) (A) (A) (A) (A) (A) (A) (A) (A) (A) (A) (A)
                 (A) (A) (A) (A) (A) (A) (A) (A) (A) (A) (A) (A)
                 (A) (A) (A) (A) (A) (A) (A) (A) (A) (A) (A) (A)
                 (A) (A) (A) (A) (A) (A) (A) (A) (A) (A) (A) (A)
                 (A) (A)
 The electronic state of the initial guess is 1-A.
 Generating alternative initial guess.
 Harris functional with IExCor= 4639 diagonalized for initial guess.
 ExpMin= 2.53D-02 ExpMax= 1.17D+07 ExpMxC= 1.33D+04 IAcc=3 IRadAn=         5 AccDes= 0.00D+00
 HarFok:  IExCor= 4639 AccDes= 0.00D+00 IRadAn=         5 IDoV= 1
 ScaDFX=  1.000000  1.000000  1.000000  1.000000
 FoFCou: FMM=F IPFlag=           0 FMFlag=      100000 FMFlg1=           0
         NFxFlg=           0 DoJE=T BraDBF=F KetDBF=T FulRan=T
         Omega=  0.000000  0.000000  1.000000  0.000000  0.000000 ICntrl=     500 IOpCl=  0
         NMat0=    1 NMatS0=    1 NMatT0=    0 NMatD0=    1 NMtDS0=    0 NMtDT0=    0
         I1Cent=           4 NGrid=           0.
 Petite list used in FoFCou.
 Harris En= -2875.39942009134    
 Leave Link  401 at Thu Apr 16 10:41:30 2020, MaxMem= 1073741824 cpu:       4.7
 (Enter /home/matheus/.gaussian/g09/l502.exe)
 Closed shell SCF:
 Requested convergence on RMS density matrix=1.00D-08 within 128 cycles.
 Requested convergence on MAX density matrix=1.00D-06.
 Requested convergence on             energy=1.00D-06.
 No special actions if energy rises.
 Using DIIS extrapolation, IDIIS=  1040.
 Integral symmetry usage will be decided dynamically.
       126823 words used for storage of precomputed grid.
 IEnd=      305770 IEndB=      305770 NGot=  1073741824 MDV=  1073505365
 LenX=  1073505365 LenY=  1073452483
 Fock matrices will be formed incrementally for  20 cycles.

 Cycle   1  Pass 1  IDiag  1:
 FoFJK:  IHMeth= 1 ICntrl=     0 DoSepK=T KAlg= 1 I1Cent= 0 FoldK=F
 FoFCou: FMM=F IPFlag=           0 FMFlag=      100000 FMFlg1=           0
         NFxFlg=           0 DoJE=T BraDBF=F KetDBF=F FulRan=T
         Omega=  0.000000  0.000000  1.000000  0.000000  0.000000 ICntrl=     500 IOpCl=  0
         NMat0=    1 NMatS0=    1 NMatT0=    0 NMatD0=    1 NMtDS0=    0 NMtDT0=    0
         I1Cent=           0 NGrid=           0.
 Symmetry not used in FoFCou.
 E= -2905.42792833648    
 DIIS: error= 1.10D-03 at cycle   1 NSaved=   1.
 NSaved= 1 IEnMin= 1 EnMin= -2905.42792833648     IErMin= 1 ErrMin= 1.10D-03
 ErrMax= 1.10D-03 EMaxC= 1.00D-01 BMatC= 5.23D-04 BMatP= 5.23D-04
 IDIUse=3 WtCom= 9.89D-01 WtEn= 1.10D-02
 Coeff-Com:  0.100D+01
 Coeff-En:   0.100D+01
 Coeff:      0.100D+01
 Gap=     0.421 Goal=   None    Shift=    0.000
 GapD=    0.421 DampG=2.000 DampE=1.000 DampFc=2.0000 IDamp=-1.
 RMSDP=7.80D-05 MaxDP=2.34D-03              OVMax= 3.43D-03

 Cycle   2  Pass 1  IDiag  1:
 RMSU=  5.51D-05    CP:  1.00D+00
 FoFJK:  IHMeth= 1 ICntrl=     0 DoSepK=T KAlg= 1 I1Cent= 0 FoldK=F
 E= -2905.42802911868     Delta-E=       -0.000100782199 Rises=F Damp=F
 DIIS: error= 1.25D-04 at cycle   2 NSaved=   2.
 NSaved= 2 IEnMin= 2 EnMin= -2905.42802911868     IErMin= 2 ErrMin= 1.25D-04
 ErrMax= 1.25D-04 EMaxC= 1.00D-01 BMatC= 5.23D-06 BMatP= 5.23D-04
 IDIUse=3 WtCom= 9.99D-01 WtEn= 1.25D-03
 Coeff-Com: -0.265D-03 0.100D+01
 Coeff-En:   0.000D+00 0.100D+01
 Coeff:     -0.265D-03 0.100D+01
 Gap=     0.419 Goal=   None    Shift=    0.000
 RMSDP=1.73D-05 MaxDP=7.35D-04 DE=-1.01D-04 OVMax= 7.77D-04

 Cycle   3  Pass 1  IDiag  1:
 RMSU=  9.95D-06    CP:  1.00D+00  1.13D+00
 FoFJK:  IHMeth= 1 ICntrl=     0 DoSepK=T KAlg= 1 I1Cent= 0 FoldK=F
 E= -2905.42803164165     Delta-E=       -0.000002522966 Rises=F Damp=F
 DIIS: error= 1.07D-04 at cycle   3 NSaved=   3.
 NSaved= 3 IEnMin= 3 EnMin= -2905.42803164165     IErMin= 3 ErrMin= 1.07D-04
 ErrMax= 1.07D-04 EMaxC= 1.00D-01 BMatC= 4.79D-06 BMatP= 5.23D-06
 IDIUse=3 WtCom= 9.99D-01 WtEn= 1.07D-03
 Coeff-Com: -0.844D-02 0.492D+00 0.516D+00
 Coeff-En:   0.000D+00 0.241D+00 0.759D+00
 Coeff:     -0.843D-02 0.492D+00 0.516D+00
 Gap=     0.420 Goal=   None    Shift=    0.000
 RMSDP=6.09D-06 MaxDP=3.18D-04 DE=-2.52D-06 OVMax= 5.03D-04

 Cycle   4  Pass 1  IDiag  1:
 RMSU=  3.26D-06    CP:  1.00D+00  1.15D+00  7.32D-01
 FoFJK:  IHMeth= 1 ICntrl=     0 DoSepK=T KAlg= 1 I1Cent= 0 FoldK=F
 E= -2905.42803455533     Delta-E=       -0.000002913676 Rises=F Damp=F
 DIIS: error= 2.54D-05 at cycle   4 NSaved=   4.
 NSaved= 4 IEnMin= 4 EnMin= -2905.42803455533     IErMin= 4 ErrMin= 2.54D-05
 ErrMax= 2.54D-05 EMaxC= 1.00D-01 BMatC= 2.24D-07 BMatP= 4.79D-06
 IDIUse=1 WtCom= 1.00D+00 WtEn= 0.00D+00
 Coeff-Com: -0.269D-02 0.618D-01 0.179D+00 0.762D+00
 Coeff:     -0.269D-02 0.618D-01 0.179D+00 0.762D+00
 Gap=     0.420 Goal=   None    Shift=    0.000
 RMSDP=2.05D-06 MaxDP=6.60D-05 DE=-2.91D-06 OVMax= 1.23D-04

 Cycle   5  Pass 1  IDiag  1:
 RMSU=  1.10D-06    CP:  1.00D+00  1.16D+00  8.10D-01  1.03D+00
 FoFJK:  IHMeth= 1 ICntrl=     0 DoSepK=T KAlg= 1 I1Cent= 0 FoldK=F
 E= -2905.42803472174     Delta-E=       -0.000000166410 Rises=F Damp=F
 DIIS: error= 1.19D-05 at cycle   5 NSaved=   5.
 NSaved= 5 IEnMin= 5 EnMin= -2905.42803472174     IErMin= 5 ErrMin= 1.19D-05
 ErrMax= 1.19D-05 EMaxC= 1.00D-01 BMatC= 3.65D-08 BMatP= 2.24D-07
 IDIUse=1 WtCom= 1.00D+00 WtEn= 0.00D+00
 Coeff-Com:  0.197D-03-0.548D-01-0.921D-02 0.317D+00 0.747D+00
 Coeff:      0.197D-03-0.548D-01-0.921D-02 0.317D+00 0.747D+00
 Gap=     0.420 Goal=   None    Shift=    0.000
 RMSDP=1.03D-06 MaxDP=4.62D-05 DE=-1.66D-07 OVMax= 5.03D-05

 Cycle   6  Pass 1  IDiag  1:
 RMSU=  3.64D-07    CP:  1.00D+00  1.16D+00  8.47D-01  1.16D+00  9.44D-01
 FoFJK:  IHMeth= 1 ICntrl=     0 DoSepK=T KAlg= 1 I1Cent= 0 FoldK=F
 E= -2905.42803475225     Delta-E=       -0.000000030519 Rises=F Damp=F
 DIIS: error= 1.83D-06 at cycle   6 NSaved=   6.
 NSaved= 6 IEnMin= 6 EnMin= -2905.42803475225     IErMin= 6 ErrMin= 1.83D-06
 ErrMax= 1.83D-06 EMaxC= 1.00D-01 BMatC= 1.41D-09 BMatP= 3.65D-08
 IDIUse=1 WtCom= 1.00D+00 WtEn= 0.00D+00
 Coeff-Com:  0.189D-03-0.203D-01-0.119D-01 0.586D-01 0.230D+00 0.743D+00
 Coeff:      0.189D-03-0.203D-01-0.119D-01 0.586D-01 0.230D+00 0.743D+00
 Gap=     0.420 Goal=   None    Shift=    0.000
 RMSDP=2.00D-07 MaxDP=6.34D-06 DE=-3.05D-08 OVMax= 1.08D-05

 Cycle   7  Pass 1  IDiag  1:
 RMSU=  9.08D-08    CP:  1.00D+00  1.16D+00  8.53D-01  1.18D+00  1.00D+00
                    CP:  1.06D+00
 FoFJK:  IHMeth= 1 ICntrl=     0 DoSepK=T KAlg= 1 I1Cent= 0 FoldK=F
 E= -2905.42803475377     Delta-E=       -0.000000001512 Rises=F Damp=F
 DIIS: error= 5.02D-07 at cycle   7 NSaved=   7.
 NSaved= 7 IEnMin= 7 EnMin= -2905.42803475377     IErMin= 7 ErrMin= 5.02D-07
 ErrMax= 5.02D-07 EMaxC= 1.00D-01 BMatC= 7.50D-11 BMatP= 1.41D-09
 IDIUse=1 WtCom= 1.00D+00 WtEn= 0.00D+00
 Coeff-Com: -0.162D-04 0.590D-02 0.121D-02-0.354D-01-0.804D-01 0.186D-01
 Coeff-Com:  0.109D+01
 Coeff:     -0.162D-04 0.590D-02 0.121D-02-0.354D-01-0.804D-01 0.186D-01
 Coeff:      0.109D+01
 Gap=     0.420 Goal=   None    Shift=    0.000
 RMSDP=1.04D-07 MaxDP=4.03D-06 DE=-1.51D-09 OVMax= 6.49D-06

 Cycle   8  Pass 1  IDiag  1:
 RMSU=  2.96D-08    CP:  1.00D+00  1.16D+00  8.55D-01  1.19D+00  1.03D+00
                    CP:  1.19D+00  1.21D+00
 FoFJK:  IHMeth= 1 ICntrl=     0 DoSepK=T KAlg= 1 I1Cent= 0 FoldK=F
 E= -2905.42803475394     Delta-E=       -0.000000000173 Rises=F Damp=F
 DIIS: error= 7.09D-08 at cycle   8 NSaved=   8.
 NSaved= 8 IEnMin= 8 EnMin= -2905.42803475394     IErMin= 8 ErrMin= 7.09D-08
 ErrMax= 7.09D-08 EMaxC= 1.00D-01 BMatC= 3.57D-12 BMatP= 7.50D-11
 IDIUse=1 WtCom= 1.00D+00 WtEn= 0.00D+00
 Coeff-Com: -0.125D-04 0.208D-02 0.749D-03-0.972D-02-0.247D-01-0.262D-01
 Coeff-Com:  0.180D+00 0.877D+00
 Coeff:     -0.125D-04 0.208D-02 0.749D-03-0.972D-02-0.247D-01-0.262D-01
 Coeff:      0.180D+00 0.877D+00
 Gap=     0.420 Goal=   None    Shift=    0.000
 RMSDP=1.50D-08 MaxDP=4.81D-07 DE=-1.73D-10 OVMax= 1.13D-06

 Cycle   9  Pass 1  IDiag  1:
 RMSU=  6.31D-09    CP:  1.00D+00  1.16D+00  8.55D-01  1.19D+00  1.03D+00
                    CP:  1.20D+00  1.26D+00  1.22D+00
 FoFJK:  IHMeth= 1 ICntrl=     0 DoSepK=T KAlg= 1 I1Cent= 0 FoldK=F
 E= -2905.42803475395     Delta-E=       -0.000000000009 Rises=F Damp=F
 DIIS: error= 2.60D-08 at cycle   9 NSaved=   9.
 NSaved= 9 IEnMin= 9 EnMin= -2905.42803475395     IErMin= 9 ErrMin= 2.60D-08
 ErrMax= 2.60D-08 EMaxC= 1.00D-01 BMatC= 2.89D-13 BMatP= 3.57D-12
 IDIUse=1 WtCom= 1.00D+00 WtEn= 0.00D+00
 Coeff-Com:  0.132D-05-0.471D-03-0.109D-03 0.275D-02 0.677D-02-0.149D-02
 Coeff-Com: -0.925D-01 0.250D-01 0.106D+01
 Coeff:      0.132D-05-0.471D-03-0.109D-03 0.275D-02 0.677D-02-0.149D-02
 Coeff:     -0.925D-01 0.250D-01 0.106D+01
 Gap=     0.420 Goal=   None    Shift=    0.000
 RMSDP=7.35D-09 MaxDP=2.43D-07 DE=-9.09D-12 OVMax= 5.45D-07

 SCF Done:  E(RwB97XD) =  -2905.42803475     A.U. after    9 cycles
             Convg  =    0.7345D-08             -V/T =  2.0016
 KE= 2.900918525007D+03 PE=-7.228608505934D+03 EE= 1.277114226142D+03
 Leave Link  502 at Thu Apr 16 10:41:58 2020, MaxMem= 1073741824 cpu:     221.7
 (Enter /home/matheus/.gaussian/g09/l108.exe)
 Variable Step   Value    
 -------- ---- -----------
     1       2    6.047124
 Leave Link  108 at Thu Apr 16 10:41:58 2020, MaxMem= 1073741824 cpu:       0.0
 (Enter /home/matheus/.gaussian/g09/l202.exe)
 ---------------------------------------------------------------------------------------------------
                            Z-MATRIX (ANGSTROMS AND DEGREES)
   CD    Cent   Atom    N1       Length/X        N2       Alpha/Y        N3        Beta/Z          J
 ---------------------------------------------------------------------------------------------------
      1      1  O        0   0.000000          0.000000          0.725000
      2      2  O        0   0.000000          0.000000         -0.725000
      3      3  H        0   0.703781         -0.590542          1.023510
      4      4  H        0   0.000000          0.918721         -1.023510
      5      5  Kr       0   0.000000          3.200000          0.000000
 ---------------------------------------------------------------------------------------------------
                         Z-Matrix orientation:                         
 ---------------------------------------------------------------------
 Center     Atomic      Atomic             Coordinates (Angstroms)
 Number     Number       Type             X           Y           Z
 ---------------------------------------------------------------------
      1          8           0        0.000000    0.000000    0.725000
      2          8           0        0.000000    0.000000   -0.725000
      3          1           0        0.703781   -0.590542    1.023510
      4          1           0        0.000000    0.918721   -1.023510
      5         36           0        0.000000    3.200000    0.000000
 ---------------------------------------------------------------------
                    Distance matrix (angstroms):
                    1          2          3          4          5
     1  O    0.000000
     2  O    1.450000   0.000000
     3  H    0.966000   1.975180   0.000000
     4  H    1.975180   0.966000   2.638840   0.000000
     5  Kr   3.281101   3.281101   3.988871   2.500362   0.000000
 Stoichiometry    H2KrO2
 Framework group  C1[X(H2KrO2)]
 Deg. of freedom     9
 Full point group                 C1      NOp   1
 RotChk:  IX=0 Diff= 1.68D-03
 Largest Abelian subgroup         C1      NOp   1
 Largest concise Abelian subgroup C1      NOp   1
                         Standard orientation:                         
 ---------------------------------------------------------------------
 Center     Atomic      Atomic             Coordinates (Angstroms)
 Number     Number       Type             X           Y           Z
 ---------------------------------------------------------------------
      1          8           0        2.148784   -0.690397   -0.094624
      2          8           0        2.128681    0.756018    0.005276
      3          1           0        2.754451   -1.027692    0.578098
      4          1           0        1.206025    1.040085    0.039443
      5         36           0       -1.060561   -0.014927    0.002701
 ---------------------------------------------------------------------
 Rotational constants (GHZ):     26.0589985      2.0380753      1.8966325
 Leave Link  202 at Thu Apr 16 10:41:58 2020, MaxMem= 1073741824 cpu:       0.0
 (Enter /home/matheus/.gaussian/g09/l301.exe)
 Standard basis: Aug-CC-pVTZ (5D, 7F)
 Ernie: Thresh=  0.10000D-02 Tol=  0.10000D-05 Strict=F.
 Ernie:  38 primitive shells out of 205 were deleted.
 There are   197 symmetry adapted basis functions of A   symmetry.
 Integral buffers will be    131072 words long.
 Raffenetti 2 integral format.
 Two-electron integral symmetry is turned on.
   197 basis functions,   415 primitive gaussians,   229 cartesian basis functions
    27 alpha electrons       27 beta electrons
       nuclear repulsion energy       141.9011995255 Hartrees.
 IExCor= 4639 DFT=T Ex+Corr=wB97XD ExCW=0 ScaHFX=  1.000000
 ScaDFX=  1.000000  1.000000  1.000000  1.000000 ScalE2=  1.000000  1.000000
 IRadAn=      5 IRanWt=     -1 IRanGd=            0 ICorTp=0
  HFx wShort=  0.000000 wLong=  0.250000 cFull=  0.222036 cShort=  0.000000 cLong=  0.777964
  DFx wShort=  0.000000 wLong=  0.250000 cFull=  0.000000 cShort=  0.000000 cLong=  1.000000
 NAtoms=    5 NActive=    5 NUniq=    5 SFac= 1.00D+00 NAtFMM=   60 NAOKFM=F Big=F
 R6Disp: Dispersion energy =        -0.0009250275 Hartrees.
 Nuclear repulsion after empirical dispersion term =      141.9002744980 Hartrees.
 Leave Link  301 at Thu Apr 16 10:41:58 2020, MaxMem= 1073741824 cpu:       0.2
 (Enter /home/matheus/.gaussian/g09/l302.exe)
 NPDir=0 NMtPBC=     1 NCelOv=     1 NCel=       1 NClECP=     1 NCelD=      1
         NCelK=      1 NCelE2=     1 NClLst=     1 CellRange=     0.0.
 One-electron integrals computed using PRISM.
 NBasis=   197 RedAO= T  NBF=   197
 NBsUse=   197 1.00D-06 NBFU=   197
 Precomputing XC quadrature grid using
 IXCGrd= 2 IRadAn=           5 IRanWt=          -1 IRanGd=           0 AccXCQ= 0.00D+00.
 NRdTot=     427 NPtTot=      123814 NUsed=      126881 NTot=      126913
 NSgBfM=   229   229   229   229   229 NAtAll=     5     5.
 Leave Link  302 at Thu Apr 16 10:41:58 2020, MaxMem= 1073741824 cpu:       1.0
 (Enter /home/matheus/.gaussian/g09/l303.exe)
 DipDrv:  MaxL=1.
 Leave Link  303 at Thu Apr 16 10:41:58 2020, MaxMem= 1073741824 cpu:       0.2
 (Enter /home/matheus/.gaussian/g09/l401.exe)
 Initial guess read from the read-write file.
 B after Tr=     0.000000    0.000000    0.000000
         Rot=    1.000000    0.000000    0.000000    0.000000 Ang=   0.00 deg.
 Guess basis will be translated and rotated to current coordinates.
 Initial guess orbital symmetries:
       Occupied  (A) (A) (A) (A) (A) (A) (A) (A) (A) (A) (A) (A)
                 (A) (A) (A) (A) (A) (A) (A) (A) (A) (A) (A) (A)
                 (A) (A) (A)
       Virtual   (A) (A) (A) (A) (A) (A) (A) (A) (A) (A) (A) (A)
                 (A) (A) (A) (A) (A) (A) (A) (A) (A) (A) (A) (A)
                 (A) (A) (A) (A) (A) (A) (A) (A) (A) (A) (A) (A)
                 (A) (A) (A) (A) (A) (A) (A) (A) (A) (A) (A) (A)
                 (A) (A) (A) (A) (A) (A) (A) (A) (A) (A) (A) (A)
                 (A) (A) (A) (A) (A) (A) (A) (A) (A) (A) (A) (A)
                 (A) (A) (A) (A) (A) (A) (A) (A) (A) (A) (A) (A)
                 (A) (A) (A) (A) (A) (A) (A) (A) (A) (A) (A) (A)
                 (A) (A) (A) (A) (A) (A) (A) (A) (A) (A) (A) (A)
                 (A) (A) (A) (A) (A) (A) (A) (A) (A) (A) (A) (A)
                 (A) (A) (A) (A) (A) (A) (A) (A) (A) (A) (A) (A)
                 (A) (A) (A) (A) (A) (A) (A) (A) (A) (A) (A) (A)
                 (A) (A) (A) (A) (A) (A) (A) (A) (A) (A) (A) (A)
                 (A) (A) (A) (A) (A) (A) (A) (A) (A) (A) (A) (A)
                 (A) (A)
 The electronic state of the initial guess is 1-A.
 Generating alternative initial guess.
 Harris functional with IExCor= 4639 diagonalized for initial guess.
 ExpMin= 2.53D-02 ExpMax= 1.17D+07 ExpMxC= 1.33D+04 IAcc=3 IRadAn=         5 AccDes= 0.00D+00
 HarFok:  IExCor= 4639 AccDes= 0.00D+00 IRadAn=         5 IDoV= 1
 ScaDFX=  1.000000  1.000000  1.000000  1.000000
 FoFCou: FMM=F IPFlag=           0 FMFlag=      100000 FMFlg1=           0
         NFxFlg=           0 DoJE=T BraDBF=F KetDBF=T FulRan=T
         Omega=  0.000000  0.000000  1.000000  0.000000  0.000000 ICntrl=     500 IOpCl=  0
         NMat0=    1 NMatS0=    1 NMatT0=    0 NMatD0=    1 NMtDS0=    0 NMtDT0=    0
         I1Cent=           4 NGrid=           0.
 Petite list used in FoFCou.
 Harris En= -2875.40169836993    
 Leave Link  401 at Thu Apr 16 10:41:59 2020, MaxMem= 1073741824 cpu:       4.5
 (Enter /home/matheus/.gaussian/g09/l502.exe)
 Closed shell SCF:
 Requested convergence on RMS density matrix=1.00D-08 within 128 cycles.
 Requested convergence on MAX density matrix=1.00D-06.
 Requested convergence on             energy=1.00D-06.
 No special actions if energy rises.
 Using DIIS extrapolation, IDIIS=  1040.
 Integral symmetry usage will be decided dynamically.
       126823 words used for storage of precomputed grid.
 IEnd=      305770 IEndB=      305770 NGot=  1073741824 MDV=  1073505365
 LenX=  1073505365 LenY=  1073452483
 Fock matrices will be formed incrementally for  20 cycles.

 Cycle   1  Pass 1  IDiag  1:
 FoFJK:  IHMeth= 1 ICntrl=     0 DoSepK=T KAlg= 1 I1Cent= 0 FoldK=F
 FoFCou: FMM=F IPFlag=           0 FMFlag=      100000 FMFlg1=           0
         NFxFlg=           0 DoJE=T BraDBF=F KetDBF=F FulRan=T
         Omega=  0.000000  0.000000  1.000000  0.000000  0.000000 ICntrl=     500 IOpCl=  0
         NMat0=    1 NMatS0=    1 NMatT0=    0 NMatD0=    1 NMtDS0=    0 NMtDT0=    0
         I1Cent=           0 NGrid=           0.
 Symmetry not used in FoFCou.
 E= -2905.42907575189    
 DIIS: error= 1.05D-03 at cycle   1 NSaved=   1.
 NSaved= 1 IEnMin= 1 EnMin= -2905.42907575189     IErMin= 1 ErrMin= 1.05D-03
 ErrMax= 1.05D-03 EMaxC= 1.00D-01 BMatC= 4.02D-04 BMatP= 4.02D-04
 IDIUse=3 WtCom= 9.90D-01 WtEn= 1.05D-02
 Coeff-Com:  0.100D+01
 Coeff-En:   0.100D+01
 Coeff:      0.100D+01
 Gap=     0.422 Goal=   None    Shift=    0.000
 GapD=    0.422 DampG=2.000 DampE=1.000 DampFc=2.0000 IDamp=-1.
 RMSDP=7.14D-05 MaxDP=2.00D-03              OVMax= 3.14D-03

 Cycle   2  Pass 1  IDiag  1:
 RMSU=  5.05D-05    CP:  1.00D+00
 FoFJK:  IHMeth= 1 ICntrl=     0 DoSepK=T KAlg= 1 I1Cent= 0 FoldK=F
 E= -2905.42915221438     Delta-E=       -0.000076462491 Rises=F Damp=F
 DIIS: error= 9.69D-05 at cycle   2 NSaved=   2.
 NSaved= 2 IEnMin= 2 EnMin= -2905.42915221438     IErMin= 2 ErrMin= 9.69D-05
 ErrMax= 9.69D-05 EMaxC= 1.00D-01 BMatC= 3.51D-06 BMatP= 4.02D-04
 IDIUse=1 WtCom= 1.00D+00 WtEn= 0.00D+00
 Coeff-Com: -0.232D-02 0.100D+01
 Coeff:     -0.232D-02 0.100D+01
 Gap=     0.420 Goal=   None    Shift=    0.000
 RMSDP=1.51D-05 MaxDP=5.75D-04 DE=-7.65D-05 OVMax= 7.14D-04

 Cycle   3  Pass 1  IDiag  1:
 RMSU=  8.19D-06    CP:  1.00D+00  1.13D+00
 FoFJK:  IHMeth= 1 ICntrl=     0 DoSepK=T KAlg= 1 I1Cent= 0 FoldK=F
 E= -2905.42915412383     Delta-E=       -0.000001909449 Rises=F Damp=F
 DIIS: error= 9.28D-05 at cycle   3 NSaved=   3.
 NSaved= 3 IEnMin= 3 EnMin= -2905.42915412383     IErMin= 3 ErrMin= 9.28D-05
 ErrMax= 9.28D-05 EMaxC= 1.00D-01 BMatC= 3.19D-06 BMatP= 3.51D-06
 IDIUse=1 WtCom= 1.00D+00 WtEn= 0.00D+00
 Coeff-Com: -0.828D-02 0.491D+00 0.517D+00
 Coeff:     -0.828D-02 0.491D+00 0.517D+00
 Gap=     0.420 Goal=   None    Shift=    0.000
 RMSDP=5.05D-06 MaxDP=2.59D-04 DE=-1.91D-06 OVMax= 4.17D-04

 Cycle   4  Pass 1  IDiag  1:
 RMSU=  2.78D-06    CP:  1.00D+00  1.15D+00  7.50D-01
 FoFJK:  IHMeth= 1 ICntrl=     0 DoSepK=T KAlg= 1 I1Cent= 0 FoldK=F
 E= -2905.42915606866     Delta-E=       -0.000001944834 Rises=F Damp=F
 DIIS: error= 1.93D-05 at cycle   4 NSaved=   4.
 NSaved= 4 IEnMin= 4 EnMin= -2905.42915606866     IErMin= 4 ErrMin= 1.93D-05
 ErrMax= 1.93D-05 EMaxC= 1.00D-01 BMatC= 1.59D-07 BMatP= 3.19D-06
 IDIUse=1 WtCom= 1.00D+00 WtEn= 0.00D+00
 Coeff-Com: -0.236D-02 0.465D-01 0.176D+00 0.780D+00
 Coeff:     -0.236D-02 0.465D-01 0.176D+00 0.780D+00
 Gap=     0.420 Goal=   None    Shift=    0.000
 RMSDP=1.86D-06 MaxDP=6.41D-05 DE=-1.94D-06 OVMax= 1.14D-04

 Cycle   5  Pass 1  IDiag  1:
 RMSU=  9.33D-07    CP:  1.00D+00  1.16D+00  8.39D-01  1.05D+00
 FoFJK:  IHMeth= 1 ICntrl=     0 DoSepK=T KAlg= 1 I1Cent= 0 FoldK=F
 E= -2905.42915619026     Delta-E=       -0.000000121604 Rises=F Damp=F
 DIIS: error= 9.27D-06 at cycle   5 NSaved=   5.
 NSaved= 5 IEnMin= 5 EnMin= -2905.42915619026     IErMin= 5 ErrMin= 9.27D-06
 ErrMax= 9.27D-06 EMaxC= 1.00D-01 BMatC= 2.51D-08 BMatP= 1.59D-07
 IDIUse=1 WtCom= 1.00D+00 WtEn= 0.00D+00
 Coeff-Com:  0.227D-03-0.557D-01-0.492D-02 0.323D+00 0.738D+00
 Coeff:      0.227D-03-0.557D-01-0.492D-02 0.323D+00 0.738D+00
 Gap=     0.420 Goal=   None    Shift=    0.000
 RMSDP=8.85D-07 MaxDP=4.04D-05 DE=-1.22D-07 OVMax= 4.37D-05

 Cycle   6  Pass 1  IDiag  1:
 RMSU=  3.05D-07    CP:  1.00D+00  1.17D+00  8.79D-01  1.18D+00  9.42D-01
 FoFJK:  IHMeth= 1 ICntrl=     0 DoSepK=T KAlg= 1 I1Cent= 0 FoldK=F
 E= -2905.42915621134     Delta-E=       -0.000000021073 Rises=F Damp=F
 DIIS: error= 1.50D-06 at cycle   6 NSaved=   6.
 NSaved= 6 IEnMin= 6 EnMin= -2905.42915621134     IErMin= 6 ErrMin= 1.50D-06
 ErrMax= 1.50D-06 EMaxC= 1.00D-01 BMatC= 9.77D-10 BMatP= 2.51D-08
 IDIUse=1 WtCom= 1.00D+00 WtEn= 0.00D+00
 Coeff-Com:  0.182D-03-0.195D-01-0.104D-01 0.569D-01 0.224D+00 0.749D+00
 Coeff:      0.182D-03-0.195D-01-0.104D-01 0.569D-01 0.224D+00 0.749D+00
 Gap=     0.420 Goal=   None    Shift=    0.000
 RMSDP=1.72D-07 MaxDP=6.11D-06 DE=-2.11D-08 OVMax= 9.78D-06

 Cycle   7  Pass 1  IDiag  1:
 RMSU=  7.64D-08    CP:  1.00D+00  1.17D+00  8.84D-01  1.20D+00  1.00D+00
                    CP:  1.06D+00
 FoFJK:  IHMeth= 1 ICntrl=     0 DoSepK=T KAlg= 1 I1Cent= 0 FoldK=F
 E= -2905.42915621244     Delta-E=       -0.000000001099 Rises=F Damp=F
 DIIS: error= 4.04D-07 at cycle   7 NSaved=   7.
 NSaved= 7 IEnMin= 7 EnMin= -2905.42915621244     IErMin= 7 ErrMin= 4.04D-07
 ErrMax= 4.04D-07 EMaxC= 1.00D-01 BMatC= 5.86D-11 BMatP= 9.77D-10
 IDIUse=1 WtCom= 1.00D+00 WtEn= 0.00D+00
 Coeff-Com: -0.197D-04 0.629D-02 0.722D-03-0.381D-01-0.830D-01 0.263D-01
 Coeff-Com:  0.109D+01
 Coeff:     -0.197D-04 0.629D-02 0.722D-03-0.381D-01-0.830D-01 0.263D-01
 Coeff:      0.109D+01
 Gap=     0.420 Goal=   None    Shift=    0.000
 RMSDP=8.90D-08 MaxDP=3.52D-06 DE=-1.10D-09 OVMax= 5.92D-06

 Cycle   8  Pass 1  IDiag  1:
 RMSU=  2.65D-08    CP:  1.00D+00  1.17D+00  8.87D-01  1.21D+00  1.02D+00
                    CP:  1.19D+00  1.23D+00
 FoFJK:  IHMeth= 1 ICntrl=     0 DoSepK=T KAlg= 1 I1Cent= 0 FoldK=F
 E= -2905.42915621259     Delta-E=       -0.000000000155 Rises=F Damp=F
 DIIS: error= 7.55D-08 at cycle   8 NSaved=   8.
 NSaved= 8 IEnMin= 8 EnMin= -2905.42915621259     IErMin= 8 ErrMin= 7.55D-08
 ErrMax= 7.55D-08 EMaxC= 1.00D-01 BMatC= 2.75D-12 BMatP= 5.86D-11
 IDIUse=1 WtCom= 1.00D+00 WtEn= 0.00D+00
 Coeff-Com: -0.125D-04 0.201D-02 0.565D-03-0.957D-02-0.233D-01-0.254D-01
 Coeff-Com:  0.165D+00 0.891D+00
 Coeff:     -0.125D-04 0.201D-02 0.565D-03-0.957D-02-0.233D-01-0.254D-01
 Coeff:      0.165D+00 0.891D+00
 Gap=     0.420 Goal=   None    Shift=    0.000
 RMSDP=1.41D-08 MaxDP=3.91D-07 DE=-1.55D-10 OVMax= 1.20D-06

 Cycle   9  Pass 1  IDiag  1:
 RMSU=  5.79D-09    CP:  1.00D+00  1.17D+00  8.87D-01  1.21D+00  1.02D+00
                    CP:  1.19D+00  1.28D+00  1.24D+00
 FoFJK:  IHMeth= 1 ICntrl=     0 DoSepK=T KAlg= 1 I1Cent= 0 FoldK=F
 E= -2905.42915621259     Delta-E=        0.000000000006 Rises=F Damp=F
 DIIS: error= 2.43D-08 at cycle   9 NSaved=   9.
 NSaved= 9 IEnMin= 8 EnMin= -2905.42915621259     IErMin= 9 ErrMin= 2.43D-08
 ErrMax= 2.43D-08 EMaxC= 1.00D-01 BMatC= 2.90D-13 BMatP= 2.75D-12
 IDIUse=1 WtCom= 1.00D+00 WtEn= 0.00D+00
 Coeff-Com:  0.220D-05-0.647D-03-0.909D-04 0.377D-02 0.886D-02-0.242D-02
 Coeff-Com: -0.112D+00 0.133D-01 0.109D+01
 Coeff:      0.220D-05-0.647D-03-0.909D-04 0.377D-02 0.886D-02-0.242D-02
 Coeff:     -0.112D+00 0.133D-01 0.109D+01
 Gap=     0.420 Goal=   None    Shift=    0.000
 RMSDP=7.71D-09 MaxDP=2.64D-07 DE= 5.91D-12 OVMax= 7.22D-07

 SCF Done:  E(RwB97XD) =  -2905.42915621     A.U. after    9 cycles
             Convg  =    0.7713D-08             -V/T =  2.0016
 KE= 2.900910498605D+03 PE=-7.222116536097D+03 EE= 1.273876606782D+03
 Leave Link  502 at Thu Apr 16 10:42:26 2020, MaxMem= 1073741824 cpu:     213.2
 (Enter /home/matheus/.gaussian/g09/l108.exe)
 Variable Step   Value    
 -------- ---- -----------
     1       3    6.236096
 Leave Link  108 at Thu Apr 16 10:42:26 2020, MaxMem= 1073741824 cpu:       0.0
 (Enter /home/matheus/.gaussian/g09/l202.exe)
 ---------------------------------------------------------------------------------------------------
                            Z-MATRIX (ANGSTROMS AND DEGREES)
   CD    Cent   Atom    N1       Length/X        N2       Alpha/Y        N3        Beta/Z          J
 ---------------------------------------------------------------------------------------------------
      1      1  O        0   0.000000          0.000000          0.725000
      2      2  O        0   0.000000          0.000000         -0.725000
      3      3  H        0   0.703781         -0.590542          1.023510
      4      4  H        0   0.000000          0.918721         -1.023510
      5      5  Kr       0   0.000000          3.300000          0.000000
 ---------------------------------------------------------------------------------------------------
                         Z-Matrix orientation:                         
 ---------------------------------------------------------------------
 Center     Atomic      Atomic             Coordinates (Angstroms)
 Number     Number       Type             X           Y           Z
 ---------------------------------------------------------------------
      1          8           0        0.000000    0.000000    0.725000
      2          8           0        0.000000    0.000000   -0.725000
      3          1           0        0.703781   -0.590542    1.023510
      4          1           0        0.000000    0.918721   -1.023510
      5         36           0        0.000000    3.300000    0.000000
 ---------------------------------------------------------------------
                    Distance matrix (angstroms):
                    1          2          3          4          5
     1  O    0.000000
     2  O    1.450000   0.000000
     3  H    0.966000   1.975180   0.000000
     4  H    1.975180   0.966000   2.638840   0.000000
     5  Kr   3.378702   3.378702   4.084018   2.591923   0.000000
 Stoichiometry    H2KrO2
 Framework group  C1[X(H2KrO2)]
 Deg. of freedom     9
 Full point group                 C1      NOp   1
 RotChk:  IX=0 Diff= 1.52D-03
 Largest Abelian subgroup         C1      NOp   1
 Largest concise Abelian subgroup C1      NOp   1
                         Standard orientation:                         
 ---------------------------------------------------------------------
 Center     Atomic      Atomic             Coordinates (Angstroms)
 Number     Number       Type             X           Y           Z
 ---------------------------------------------------------------------
      1          8           0        2.214838   -0.691471   -0.094515
      2          8           0        2.196039    0.754953    0.005504
      3          1           0        2.819837   -1.029394    0.578494
      4          1           0        1.273632    1.039882    0.039215
      5         36           0       -1.093902   -0.014398    0.002621
 ---------------------------------------------------------------------
 Rotational constants (GHZ):     26.0577914      1.9168543      1.7912146
 Leave Link  202 at Thu Apr 16 10:42:26 2020, MaxMem= 1073741824 cpu:       0.0
 (Enter /home/matheus/.gaussian/g09/l301.exe)
 Standard basis: Aug-CC-pVTZ (5D, 7F)
 Ernie: Thresh=  0.10000D-02 Tol=  0.10000D-05 Strict=F.
 Ernie:  38 primitive shells out of 205 were deleted.
 There are   197 symmetry adapted basis functions of A   symmetry.
 Integral buffers will be    131072 words long.
 Raffenetti 2 integral format.
 Two-electron integral symmetry is turned on.
   197 basis functions,   415 primitive gaussians,   229 cartesian basis functions
    27 alpha electrons       27 beta electrons
       nuclear repulsion energy       138.8372588181 Hartrees.
 IExCor= 4639 DFT=T Ex+Corr=wB97XD ExCW=0 ScaHFX=  1.000000
 ScaDFX=  1.000000  1.000000  1.000000  1.000000 ScalE2=  1.000000  1.000000
 IRadAn=      5 IRanWt=     -1 IRanGd=            0 ICorTp=0
  HFx wShort=  0.000000 wLong=  0.250000 cFull=  0.222036 cShort=  0.000000 cLong=  0.777964
  DFx wShort=  0.000000 wLong=  0.250000 cFull=  0.000000 cShort=  0.000000 cLong=  1.000000
 NAtoms=    5 NActive=    5 NUniq=    5 SFac= 1.00D+00 NAtFMM=   60 NAOKFM=F Big=F
 R6Disp: Dispersion energy =        -0.0009678116 Hartrees.
 Nuclear repulsion after empirical dispersion term =      138.8362910065 Hartrees.
 Leave Link  301 at Thu Apr 16 10:42:26 2020, MaxMem= 1073741824 cpu:       0.2
 (Enter /home/matheus/.gaussian/g09/l302.exe)
 NPDir=0 NMtPBC=     1 NCelOv=     1 NCel=       1 NClECP=     1 NCelD=      1
         NCelK=      1 NCelE2=     1 NClLst=     1 CellRange=     0.0.
 One-electron integrals computed using PRISM.
 NBasis=   197 RedAO= T  NBF=   197
 NBsUse=   197 1.00D-06 NBFU=   197
 Precomputing XC quadrature grid using
 IXCGrd= 2 IRadAn=           5 IRanWt=          -1 IRanGd=           0 AccXCQ= 0.00D+00.
 NRdTot=     427 NPtTot=      123814 NUsed=      126881 NTot=      126913
 NSgBfM=   229   229   229   229   229 NAtAll=     5     5.
 Leave Link  302 at Thu Apr 16 10:42:26 2020, MaxMem= 1073741824 cpu:       1.0
 (Enter /home/matheus/.gaussian/g09/l303.exe)
 DipDrv:  MaxL=1.
 Leave Link  303 at Thu Apr 16 10:42:26 2020, MaxMem= 1073741824 cpu:       0.2
 (Enter /home/matheus/.gaussian/g09/l401.exe)
 Initial guess read from the read-write file.
 B after Tr=     0.000000    0.000000    0.000000
         Rot=    1.000000    0.000000    0.000000    0.000000 Ang=   0.00 deg.
 Guess basis will be translated and rotated to current coordinates.
 Initial guess orbital symmetries:
       Occupied  (A) (A) (A) (A) (A) (A) (A) (A) (A) (A) (A) (A)
                 (A) (A) (A) (A) (A) (A) (A) (A) (A) (A) (A) (A)
                 (A) (A) (A)
       Virtual   (A) (A) (A) (A) (A) (A) (A) (A) (A) (A) (A) (A)
                 (A) (A) (A) (A) (A) (A) (A) (A) (A) (A) (A) (A)
                 (A) (A) (A) (A) (A) (A) (A) (A) (A) (A) (A) (A)
                 (A) (A) (A) (A) (A) (A) (A) (A) (A) (A) (A) (A)
                 (A) (A) (A) (A) (A) (A) (A) (A) (A) (A) (A) (A)
                 (A) (A) (A) (A) (A) (A) (A) (A) (A) (A) (A) (A)
                 (A) (A) (A) (A) (A) (A) (A) (A) (A) (A) (A) (A)
                 (A) (A) (A) (A) (A) (A) (A) (A) (A) (A) (A) (A)
                 (A) (A) (A) (A) (A) (A) (A) (A) (A) (A) (A) (A)
                 (A) (A) (A) (A) (A) (A) (A) (A) (A) (A) (A) (A)
                 (A) (A) (A) (A) (A) (A) (A) (A) (A) (A) (A) (A)
                 (A) (A) (A) (A) (A) (A) (A) (A) (A) (A) (A) (A)
                 (A) (A) (A) (A) (A) (A) (A) (A) (A) (A) (A) (A)
                 (A) (A) (A) (A) (A) (A) (A) (A) (A) (A) (A) (A)
                 (A) (A)
 The electronic state of the initial guess is 1-A.
 Generating alternative initial guess.
 Harris functional with IExCor= 4639 diagonalized for initial guess.
 ExpMin= 2.53D-02 ExpMax= 1.17D+07 ExpMxC= 1.33D+04 IAcc=3 IRadAn=         5 AccDes= 0.00D+00
 HarFok:  IExCor= 4639 AccDes= 0.00D+00 IRadAn=         5 IDoV= 1
 ScaDFX=  1.000000  1.000000  1.000000  1.000000
 FoFCou: FMM=F IPFlag=           0 FMFlag=      100000 FMFlg1=           0
         NFxFlg=           0 DoJE=T BraDBF=F KetDBF=T FulRan=T
         Omega=  0.000000  0.000000  1.000000  0.000000  0.000000 ICntrl=     500 IOpCl=  0
         NMat0=    1 NMatS0=    1 NMatT0=    0 NMatD0=    1 NMtDS0=    0 NMtDT0=    0
         I1Cent=           4 NGrid=           0.
 Petite list used in FoFCou.
 Harris En= -2875.40331412183    
 Leave Link  401 at Thu Apr 16 10:42:26 2020, MaxMem= 1073741824 cpu:       4.2
 (Enter /home/matheus/.gaussian/g09/l502.exe)
 Closed shell SCF:
 Requested convergence on RMS density matrix=1.00D-08 within 128 cycles.
 Requested convergence on MAX density matrix=1.00D-06.
 Requested convergence on             energy=1.00D-06.
 No special actions if energy rises.
 Using DIIS extrapolation, IDIIS=  1040.
 Integral symmetry usage will be decided dynamically.
       126823 words used for storage of precomputed grid.
 IEnd=      305770 IEndB=      305770 NGot=  1073741824 MDV=  1073505365
 LenX=  1073505365 LenY=  1073452483
 Fock matrices will be formed incrementally for  20 cycles.

 Cycle   1  Pass 1  IDiag  1:
 FoFJK:  IHMeth= 1 ICntrl=     0 DoSepK=T KAlg= 1 I1Cent= 0 FoldK=F
 FoFCou: FMM=F IPFlag=           0 FMFlag=      100000 FMFlg1=           0
         NFxFlg=           0 DoJE=T BraDBF=F KetDBF=F FulRan=T
         Omega=  0.000000  0.000000  1.000000  0.000000  0.000000 ICntrl=     500 IOpCl=  0
         NMat0=    1 NMatS0=    1 NMatT0=    0 NMatD0=    1 NMtDS0=    0 NMtDT0=    0
         I1Cent=           0 NGrid=           0.
 Symmetry not used in FoFCou.
 E= -2905.42981015290    
 DIIS: error= 8.74D-04 at cycle   1 NSaved=   1.
 NSaved= 1 IEnMin= 1 EnMin= -2905.42981015290     IErMin= 1 ErrMin= 8.74D-04
 ErrMax= 8.74D-04 EMaxC= 1.00D-01 BMatC= 3.00D-04 BMatP= 3.00D-04
 IDIUse=3 WtCom= 9.91D-01 WtEn= 8.74D-03
 Coeff-Com:  0.100D+01
 Coeff-En:   0.100D+01
 Coeff:      0.100D+01
 Gap=     0.422 Goal=   None    Shift=    0.000
 RMSDP=6.62D-05 MaxDP=1.94D-03              OVMax= 2.88D-03

 Cycle   2  Pass 1  IDiag  1:
 RMSU=  4.68D-05    CP:  1.00D+00
 FoFJK:  IHMeth= 1 ICntrl=     0 DoSepK=T KAlg= 1 I1Cent= 0 FoldK=F
 E= -2905.42986860738     Delta-E=       -0.000058454481 Rises=F Damp=F
 DIIS: error= 9.79D-05 at cycle   2 NSaved=   2.
 NSaved= 2 IEnMin= 2 EnMin= -2905.42986860738     IErMin= 2 ErrMin= 9.79D-05
 ErrMax= 9.79D-05 EMaxC= 1.00D-01 BMatC= 2.37D-06 BMatP= 3.00D-04
 IDIUse=1 WtCom= 1.00D+00 WtEn= 0.00D+00
 Coeff-Com: -0.422D-02 0.100D+01
 Coeff:     -0.422D-02 0.100D+01
 Gap=     0.420 Goal=   None    Shift=    0.000
 RMSDP=1.30D-05 MaxDP=4.62D-04 DE=-5.85D-05 OVMax= 6.57D-04

 Cycle   3  Pass 1  IDiag  1:
 RMSU=  6.70D-06    CP:  1.00D+00  1.14D+00
 FoFJK:  IHMeth= 1 ICntrl=     0 DoSepK=T KAlg= 1 I1Cent= 0 FoldK=F
 E= -2905.42987009184     Delta-E=       -0.000001484464 Rises=F Damp=F
 DIIS: error= 8.02D-05 at cycle   3 NSaved=   3.
 NSaved= 3 IEnMin= 3 EnMin= -2905.42987009184     IErMin= 3 ErrMin= 8.02D-05
 ErrMax= 8.02D-05 EMaxC= 1.00D-01 BMatC= 2.09D-06 BMatP= 2.37D-06
 IDIUse=1 WtCom= 1.00D+00 WtEn= 0.00D+00
 Coeff-Com: -0.836D-02 0.488D+00 0.521D+00
 Coeff:     -0.836D-02 0.488D+00 0.521D+00
 Gap=     0.420 Goal=   None    Shift=    0.000
 RMSDP=4.19D-06 MaxDP=2.11D-04 DE=-1.48D-06 OVMax= 3.44D-04

 Cycle   4  Pass 1  IDiag  1:
 RMSU=  2.41D-06    CP:  1.00D+00  1.15D+00  7.70D-01
 FoFJK:  IHMeth= 1 ICntrl=     0 DoSepK=T KAlg= 1 I1Cent= 0 FoldK=F
 E= -2905.42987137224     Delta-E=       -0.000001280394 Rises=F Damp=F
 DIIS: error= 1.80D-05 at cycle   4 NSaved=   4.
 NSaved= 4 IEnMin= 4 EnMin= -2905.42987137224     IErMin= 4 ErrMin= 1.80D-05
 ErrMax= 1.80D-05 EMaxC= 1.00D-01 BMatC= 1.16D-07 BMatP= 2.09D-06
 IDIUse=1 WtCom= 1.00D+00 WtEn= 0.00D+00
 Coeff-Com: -0.211D-02 0.309D-01 0.178D+00 0.794D+00
 Coeff:     -0.211D-02 0.309D-01 0.178D+00 0.794D+00
 Gap=     0.420 Goal=   None    Shift=    0.000
 RMSDP=1.69D-06 MaxDP=5.96D-05 DE=-1.28D-06 OVMax= 1.06D-04

 Cycle   5  Pass 1  IDiag  1:
 RMSU=  7.94D-07    CP:  1.00D+00  1.16D+00  8.73D-01  1.07D+00
 FoFJK:  IHMeth= 1 ICntrl=     0 DoSepK=T KAlg= 1 I1Cent= 0 FoldK=F
 E= -2905.42987146327     Delta-E=       -0.000000091030 Rises=F Damp=F
 DIIS: error= 7.02D-06 at cycle   5 NSaved=   5.
 NSaved= 5 IEnMin= 5 EnMin= -2905.42987146327     IErMin= 5 ErrMin= 7.02D-06
 ErrMax= 7.02D-06 EMaxC= 1.00D-01 BMatC= 1.71D-08 BMatP= 1.16D-07
 IDIUse=1 WtCom= 1.00D+00 WtEn= 0.00D+00
 Coeff-Com:  0.254D-03-0.562D-01 0.459D-03 0.325D+00 0.731D+00
 Coeff:      0.254D-03-0.562D-01 0.459D-03 0.325D+00 0.731D+00
 Gap=     0.420 Goal=   None    Shift=    0.000
 RMSDP=7.46D-07 MaxDP=3.34D-05 DE=-9.10D-08 OVMax= 3.80D-05

 Cycle   6  Pass 1  IDiag  1:
 RMSU=  2.52D-07    CP:  1.00D+00  1.17D+00  9.14D-01  1.19D+00  9.39D-01
 FoFJK:  IHMeth= 1 ICntrl=     0 DoSepK=T KAlg= 1 I1Cent= 0 FoldK=F
 E= -2905.42987147778     Delta-E=       -0.000000014509 Rises=F Damp=F
 DIIS: error= 1.41D-06 at cycle   6 NSaved=   6.
 NSaved= 6 IEnMin= 6 EnMin= -2905.42987147778     IErMin= 6 ErrMin= 1.41D-06
 ErrMax= 1.41D-06 EMaxC= 1.00D-01 BMatC= 6.98D-10 BMatP= 1.71D-08
 IDIUse=1 WtCom= 1.00D+00 WtEn= 0.00D+00
 Coeff-Com:  0.182D-03-0.186D-01-0.907D-02 0.544D-01 0.220D+00 0.753D+00
 Coeff:      0.182D-03-0.186D-01-0.907D-02 0.544D-01 0.220D+00 0.753D+00
 Gap=     0.420 Goal=   None    Shift=    0.000
 RMSDP=1.49D-07 MaxDP=5.75D-06 DE=-1.45D-08 OVMax= 8.88D-06

 Cycle   7  Pass 1  IDiag  1:
 RMSU=  6.49D-08    CP:  1.00D+00  1.17D+00  9.20D-01  1.21D+00  1.00D+00
                    CP:  1.05D+00
 FoFJK:  IHMeth= 1 ICntrl=     0 DoSepK=T KAlg= 1 I1Cent= 0 FoldK=F
 E= -2905.42987147856     Delta-E=       -0.000000000785 Rises=F Damp=F
 DIIS: error= 3.66D-07 at cycle   7 NSaved=   7.
 NSaved= 7 IEnMin= 7 EnMin= -2905.42987147856     IErMin= 7 ErrMin= 3.66D-07
 ErrMax= 3.66D-07 EMaxC= 1.00D-01 BMatC= 4.48D-11 BMatP= 6.98D-10
 IDIUse=1 WtCom= 1.00D+00 WtEn= 0.00D+00
 Coeff-Com: -0.244D-04 0.669D-02 0.958D-04-0.406D-01-0.860D-01 0.305D-01
 Coeff-Com:  0.109D+01
 Coeff:     -0.244D-04 0.669D-02 0.958D-04-0.406D-01-0.860D-01 0.305D-01
 Coeff:      0.109D+01
 Gap=     0.420 Goal=   None    Shift=    0.000
 RMSDP=7.66D-08 MaxDP=3.06D-06 DE=-7.85D-10 OVMax= 5.40D-06

 Cycle   8  Pass 1  IDiag  1:
 RMSU=  2.38D-08    CP:  1.00D+00  1.17D+00  9.23D-01  1.22D+00  1.02D+00
                    CP:  1.18D+00  1.26D+00
 FoFJK:  IHMeth= 1 ICntrl=     0 DoSepK=T KAlg= 1 I1Cent= 0 FoldK=F
 E= -2905.42987147869     Delta-E=       -0.000000000126 Rises=F Damp=F
 DIIS: error= 7.40D-08 at cycle   8 NSaved=   8.
 NSaved= 8 IEnMin= 8 EnMin= -2905.42987147869     IErMin= 8 ErrMin= 7.40D-08
 ErrMax= 7.40D-08 EMaxC= 1.00D-01 BMatC= 1.97D-12 BMatP= 4.48D-11
 IDIUse=1 WtCom= 1.00D+00 WtEn= 0.00D+00
 Coeff-Com: -0.118D-04 0.178D-02 0.356D-03-0.848D-02-0.204D-01-0.242D-01
 Coeff-Com:  0.137D+00 0.914D+00
 Coeff:     -0.118D-04 0.178D-02 0.356D-03-0.848D-02-0.204D-01-0.242D-01
 Coeff:      0.137D+00 0.914D+00
 Gap=     0.420 Goal=   None    Shift=    0.000
 RMSDP=1.34D-08 MaxDP=3.07D-07 DE=-1.26D-10 OVMax= 1.28D-06

 Cycle   9  Pass 1  IDiag  1:
 RMSU=  5.09D-09    CP:  1.00D+00  1.17D+00  9.23D-01  1.22D+00  1.02D+00
                    CP:  1.19D+00  1.32D+00  1.27D+00
 FoFJK:  IHMeth= 1 ICntrl=     0 DoSepK=T KAlg= 1 I1Cent= 0 FoldK=F
 E= -2905.42987147868     Delta-E=        0.000000000005 Rises=F Damp=F
 DIIS: error= 2.63D-08 at cycle   9 NSaved=   9.
 NSaved= 9 IEnMin= 8 EnMin= -2905.42987147869     IErMin= 9 ErrMin= 2.63D-08
 ErrMax= 2.63D-08 EMaxC= 1.00D-01 BMatC= 2.66D-13 BMatP= 1.97D-12
 IDIUse=1 WtCom= 1.00D+00 WtEn= 0.00D+00
 Coeff-Com:  0.307D-05-0.807D-03-0.217D-04 0.476D-02 0.107D-01-0.395D-02
 Coeff-Com: -0.131D+00 0.209D-01 0.110D+01
 Coeff:      0.307D-05-0.807D-03-0.217D-04 0.476D-02 0.107D-01-0.395D-02
 Coeff:     -0.131D+00 0.209D-01 0.110D+01
 Gap=     0.420 Goal=   None    Shift=    0.000
 RMSDP=7.69D-09 MaxDP=2.70D-07 DE= 4.55D-12 OVMax= 7.91D-07

 SCF Done:  E(RwB97XD) =  -2905.42987148     A.U. after    9 cycles
             Convg  =    0.7688D-08             -V/T =  2.0016
 KE= 2.900905754264D+03 PE=-7.215995773624D+03 EE= 1.270823856875D+03
 Leave Link  502 at Thu Apr 16 10:42:53 2020, MaxMem= 1073741824 cpu:     208.1
 (Enter /home/matheus/.gaussian/g09/l108.exe)
 Variable Step   Value    
 -------- ---- -----------
     1       4    6.425069
 Leave Link  108 at Thu Apr 16 10:42:53 2020, MaxMem= 1073741824 cpu:       0.0
 (Enter /home/matheus/.gaussian/g09/l202.exe)
 ---------------------------------------------------------------------------------------------------
                            Z-MATRIX (ANGSTROMS AND DEGREES)
   CD    Cent   Atom    N1       Length/X        N2       Alpha/Y        N3        Beta/Z          J
 ---------------------------------------------------------------------------------------------------
      1      1  O        0   0.000000          0.000000          0.725000
      2      2  O        0   0.000000          0.000000         -0.725000
      3      3  H        0   0.703781         -0.590542          1.023510
      4      4  H        0   0.000000          0.918721         -1.023510
      5      5  Kr       0   0.000000          3.400000          0.000000
[...]
 E= -2905.42983661074     Delta-E=       -0.000000000938 Rises=F Damp=F
 DIIS: error= 9.11D-07 at cycle   5 NSaved=   5.
 NSaved= 5 IEnMin= 5 EnMin= -2905.42983661074     IErMin= 5 ErrMin= 9.11D-07
 ErrMax= 9.11D-07 EMaxC= 1.00D-01 BMatC= 2.29D-10 BMatP= 1.27D-09
 IDIUse=1 WtCom= 1.00D+00 WtEn= 0.00D+00
 Coeff-Com:  0.467D-03-0.547D-01-0.353D-01 0.306D+00 0.783D+00
 Coeff:      0.467D-03-0.547D-01-0.353D-01 0.306D+00 0.783D+00
 Gap=     0.421 Goal=   None    Shift=    0.000
 RMSDP=9.39D-08 MaxDP=2.89D-06 DE=-9.38D-10 OVMax= 5.41D-06

 Cycle   6  Pass 1  IDiag  1:
 RMSU=  3.17D-08    CP:  1.00D+00  1.13D+00  1.18D+00  1.11D+00  1.01D+00
 FoFJK:  IHMeth= 1 ICntrl=     0 DoSepK=T KAlg= 1 I1Cent= 0 FoldK=F
 E= -2905.42983661098     Delta-E=       -0.000000000237 Rises=F Damp=F
 DIIS: error= 1.48D-07 at cycle   6 NSaved=   6.
 NSaved= 6 IEnMin= 6 EnMin= -2905.42983661098     IErMin= 6 ErrMin= 1.48D-07
 ErrMax= 1.48D-07 EMaxC= 1.00D-01 BMatC= 6.90D-12 BMatP= 2.29D-10
 IDIUse=1 WtCom= 1.00D+00 WtEn= 0.00D+00
 Coeff-Com:  0.189D-03-0.132D-01-0.215D-01 0.379D-01 0.181D+00 0.815D+00
 Coeff:      0.189D-03-0.132D-01-0.215D-01 0.379D-01 0.181D+00 0.815D+00
 Gap=     0.421 Goal=   None    Shift=    0.000
 RMSDP=1.70D-08 MaxDP=5.92D-07 DE=-2.37D-10 OVMax= 1.45D-06

 Cycle   7  Pass 1  IDiag  1:
 RMSU=  9.12D-09    CP:  1.00D+00  1.13D+00  1.18D+00  1.12D+00  1.07D+00
                    CP:  1.16D+00
 FoFJK:  IHMeth= 1 ICntrl=     0 DoSepK=T KAlg= 1 I1Cent= 0 FoldK=F
 E= -2905.42983661098     Delta-E=       -0.000000000006 Rises=F Damp=F
 DIIS: error= 9.62D-08 at cycle   7 NSaved=   7.
 NSaved= 7 IEnMin= 7 EnMin= -2905.42983661098     IErMin= 7 ErrMin= 9.62D-08
 ErrMax= 9.62D-08 EMaxC= 1.00D-01 BMatC= 1.48D-12 BMatP= 6.90D-12
 IDIUse=1 WtCom= 1.00D+00 WtEn= 0.00D+00
 Coeff-Com: -0.336D-04 0.720D-02-0.378D-03-0.533D-01-0.105D+00 0.263D+00
 Coeff-Com:  0.888D+00
 Coeff:     -0.336D-04 0.720D-02-0.378D-03-0.533D-01-0.105D+00 0.263D+00
 Coeff:      0.888D+00
 Gap=     0.421 Goal=   None    Shift=    0.000
 RMSDP=1.08D-08 MaxDP=2.94D-07 DE=-6.37D-12 OVMax= 1.06D-06

 Cycle   8  Pass 1  IDiag  1:
 RMSU=  3.73D-09    CP:  1.00D+00  1.13D+00  1.18D+00  1.13D+00  1.10D+00
                    CP:  1.33D+00  1.20D+00
 FoFJK:  IHMeth= 1 ICntrl=     0 DoSepK=T KAlg= 1 I1Cent= 0 FoldK=F
 E= -2905.42983661099     Delta-E=       -0.000000000010 Rises=F Damp=F
 DIIS: error= 1.75D-08 at cycle   8 NSaved=   8.
 NSaved= 8 IEnMin= 8 EnMin= -2905.42983661099     IErMin= 8 ErrMin= 1.75D-08
 ErrMax= 1.75D-08 EMaxC= 1.00D-01 BMatC= 5.33D-14 BMatP= 1.48D-12
 IDIUse=1 WtCom= 1.00D+00 WtEn= 0.00D+00
 Coeff-Com: -0.532D-05-0.366D-03 0.113D-02 0.582D-02 0.572D-02-0.844D-01
 Coeff-Com: -0.115D+00 0.119D+01
 Coeff:     -0.532D-05-0.366D-03 0.113D-02 0.582D-02 0.572D-02-0.844D-01
 Coeff:     -0.115D+00 0.119D+01
 Gap=     0.421 Goal=   None    Shift=    0.000
 RMSDP=3.80D-09 MaxDP=1.28D-07 DE=-9.55D-12 OVMax= 4.63D-07

 SCF Done:  E(RwB97XD) =  -2905.42983661     A.U. after    8 cycles
             Convg  =    0.3799D-08             -V/T =  2.0016
 KE= 2.900918040003D+03 PE=-7.150836240909D+03 EE= 1.238326214521D+03
 Leave Link  502 at Thu Apr 16 10:48:53 2020, MaxMem= 1073741824 cpu:     143.0
 (Enter /home/matheus/.gaussian/g09/l108.exe)
 Variable Step   Value    
 -------- ---- -----------
     1      20    9.448631
 Leave Link  108 at Thu Apr 16 10:48:53 2020, MaxMem= 1073741824 cpu:       0.0
 (Enter /home/matheus/.gaussian/g09/l202.exe)
 ---------------------------------------------------------------------------------------------------
                            Z-MATRIX (ANGSTROMS AND DEGREES)
   CD    Cent   Atom    N1       Length/X        N2       Alpha/Y        N3        Beta/Z          J
 ---------------------------------------------------------------------------------------------------
      1      1  O        0   0.000000          0.000000          0.725000
      2      2  O        0   0.000000          0.000000         -0.725000
      3      3  H        0   0.703781         -0.590542          1.023510
      4      4  H        0   0.000000          0.918721         -1.023510
      5      5  Kr       0   0.000000          5.000000          0.000000
 ---------------------------------------------------------------------------------------------------
                         Z-Matrix orientation:                         
 ---------------------------------------------------------------------
 Center     Atomic      Atomic             Coordinates (Angstroms)
 Number     Number       Type             X           Y           Z
 ---------------------------------------------------------------------
      1          8           0        0.000000    0.000000    0.725000
      2          8           0        0.000000    0.000000   -0.725000
      3          1           0        0.703781   -0.590542    1.023510
      4          1           0        0.000000    0.918721   -1.023510
      5         36           0        0.000000    5.000000    0.000000
 ---------------------------------------------------------------------
                    Distance matrix (angstroms):
                    1          2          3          4          5
     1  O    0.000000
     2  O    1.450000   0.000000
     3  H    0.966000   1.975180   0.000000
     4  H    1.975180   0.966000   2.638840   0.000000
     5  Kr   5.052289   5.052289   5.726870   4.207661   0.000000
 Stoichiometry    H2KrO2
 Framework group  C1[X(H2KrO2)]
 Deg. of freedom     9
 Full point group                 C1      NOp   1
 RotChk:  IX=0 Diff= 4.53D-04
 Largest Abelian subgroup         C1      NOp   1
 Largest concise Abelian subgroup C1      NOp   1
                         Standard orientation:                         
 ---------------------------------------------------------------------
 Center     Atomic      Atomic             Coordinates (Angstroms)
 Number     Number       Type             X           Y           Z
 ---------------------------------------------------------------------
      1          8           0        3.342996   -0.702237   -0.093274
      2          8           0        3.335200    0.744203    0.007973
      3          1           0        3.941638   -1.045570    0.582674
      4          1           0        2.414927    1.036458    0.036974
      5         36           0       -1.660615   -0.009073    0.001743
 ---------------------------------------------------------------------
 Rotational constants (GHZ):     26.0470012      0.8363201      0.8114805
 Leave Link  202 at Thu Apr 16 10:48:53 2020, MaxMem= 1073741824 cpu:       0.0
 (Enter /home/matheus/.gaussian/g09/l301.exe)
 Standard basis: Aug-CC-pVTZ (5D, 7F)
 Ernie: Thresh=  0.10000D-02 Tol=  0.10000D-05 Strict=F.
 Ernie:  38 primitive shells out of 205 were deleted.
 There are   197 symmetry adapted basis functions of A   symmetry.
 Integral buffers will be    131072 words long.
 Raffenetti 2 integral format.
 Two-electron integral symmetry is turned on.
   197 basis functions,   415 primitive gaussians,   229 cartesian basis functions
    27 alpha electrons       27 beta electrons
       nuclear repulsion energy       104.7931029570 Hartrees.
 IExCor= 4639 DFT=T Ex+Corr=wB97XD ExCW=0 ScaHFX=  1.000000
 ScaDFX=  1.000000  1.000000  1.000000  1.000000 ScalE2=  1.000000  1.000000
 IRadAn=      5 IRanWt=     -1 IRanGd=            0 ICorTp=0
  HFx wShort=  0.000000 wLong=  0.250000 cFull=  0.222036 cShort=  0.000000 cLong=  0.777964
  DFx wShort=  0.000000 wLong=  0.250000 cFull=  0.000000 cShort=  0.000000 cLong=  1.000000
 NAtoms=    5 NActive=    5 NUniq=    5 SFac= 1.00D+00 NAtFMM=   60 NAOKFM=F Big=F
 R6Disp: Dispersion energy =        -0.0004491469 Hartrees.
 Nuclear repulsion after empirical dispersion term =      104.7926538102 Hartrees.
 Leave Link  301 at Thu Apr 16 10:48:53 2020, MaxMem= 1073741824 cpu:       0.2
 (Enter /home/matheus/.gaussian/g09/l302.exe)
 NPDir=0 NMtPBC=     1 NCelOv=     1 NCel=       1 NClECP=     1 NCelD=      1
         NCelK=      1 NCelE2=     1 NClLst=     1 CellRange=     0.0.
 One-electron integrals computed using PRISM.
 NBasis=   197 RedAO= T  NBF=   197
 NBsUse=   197 1.00D-06 NBFU=   197
 Precomputing XC quadrature grid using
 IXCGrd= 2 IRadAn=           5 IRanWt=          -1 IRanGd=           0 AccXCQ= 0.00D+00.
 NRdTot=     428 NPtTot=      124116 NUsed=      127190 NTot=      127222
 NSgBfM=   228   228   229   229   229 NAtAll=     5     5.
 Leave Link  302 at Thu Apr 16 10:48:53 2020, MaxMem= 1073741824 cpu:       1.0
 (Enter /home/matheus/.gaussian/g09/l303.exe)
 DipDrv:  MaxL=1.
 Leave Link  303 at Thu Apr 16 10:48:53 2020, MaxMem= 1073741824 cpu:       0.2
 (Enter /home/matheus/.gaussian/g09/l401.exe)
 Initial guess read from the read-write file.
 B after Tr=     0.000000    0.000000    0.000000
         Rot=    1.000000    0.000000    0.000000    0.000000 Ang=   0.00 deg.
 Guess basis will be translated and rotated to current coordinates.
 Initial guess orbital symmetries:
       Occupied  (A) (A) (A) (A) (A) (A) (A) (A) (A) (A) (A) (A)
                 (A) (A) (A) (A) (A) (A) (A) (A) (A) (A) (A) (A)
                 (A) (A) (A)
       Virtual   (A) (A) (A) (A) (A) (A) (A) (A) (A) (A) (A) (A)
                 (A) (A) (A) (A) (A) (A) (A) (A) (A) (A) (A) (A)
                 (A) (A) (A) (A) (A) (A) (A) (A) (A) (A) (A) (A)
                 (A) (A) (A) (A) (A) (A) (A) (A) (A) (A) (A) (A)
                 (A) (A) (A) (A) (A) (A) (A) (A) (A) (A) (A) (A)
                 (A) (A) (A) (A) (A) (A) (A) (A) (A) (A) (A) (A)
                 (A) (A) (A) (A) (A) (A) (A) (A) (A) (A) (A) (A)
                 (A) (A) (A) (A) (A) (A) (A) (A) (A) (A) (A) (A)
                 (A) (A) (A) (A) (A) (A) (A) (A) (A) (A) (A) (A)
                 (A) (A) (A) (A) (A) (A) (A) (A) (A) (A) (A) (A)
                 (A) (A) (A) (A) (A) (A) (A) (A) (A) (A) (A) (A)
                 (A) (A) (A) (A) (A) (A) (A) (A) (A) (A) (A) (A)
                 (A) (A) (A) (A) (A) (A) (A) (A) (A) (A) (A) (A)
                 (A) (A) (A) (A) (A) (A) (A) (A) (A) (A) (A) (A)
                 (A) (A)
 The electronic state of the initial guess is 1-A.
 Generating alternative initial guess.
 Harris functional with IExCor= 4639 diagonalized for initial guess.
 ExpMin= 2.53D-02 ExpMax= 1.17D+07 ExpMxC= 1.33D+04 IAcc=3 IRadAn=         5 AccDes= 0.00D+00
 HarFok:  IExCor= 4639 AccDes= 0.00D+00 IRadAn=         5 IDoV= 1
 ScaDFX=  1.000000  1.000000  1.000000  1.000000
 FoFCou: FMM=F IPFlag=           0 FMFlag=      100000 FMFlg1=           0
         NFxFlg=           0 DoJE=T BraDBF=F KetDBF=T FulRan=T
         Omega=  0.000000  0.000000  1.000000  0.000000  0.000000 ICntrl=     500 IOpCl=  0
         NMat0=    1 NMatS0=    1 NMatT0=    0 NMatD0=    1 NMtDS0=    0 NMtDT0=    0
         I1Cent=           4 NGrid=           0.
 Petite list used in FoFCou.
 Harris En= -2875.40423487371    
 Leave Link  401 at Thu Apr 16 10:48:53 2020, MaxMem= 1073741824 cpu:       3.8
 (Enter /home/matheus/.gaussian/g09/l502.exe)
 Closed shell SCF:
 Requested convergence on RMS density matrix=1.00D-08 within 128 cycles.
 Requested convergence on MAX density matrix=1.00D-06.
 Requested convergence on             energy=1.00D-06.
 No special actions if energy rises.
 Using DIIS extrapolation, IDIIS=  1040.
 Integral symmetry usage will be decided dynamically.
       127132 words used for storage of precomputed grid.
 IEnd=      306079 IEndB=      306079 NGot=  1073741824 MDV=  1073505056
 LenX=  1073505056 LenY=  1073452174
 Fock matrices will be formed incrementally for  20 cycles.

 Cycle   1  Pass 1  IDiag  1:
 FoFJK:  IHMeth= 1 ICntrl=     0 DoSepK=T KAlg= 1 I1Cent= 0 FoldK=F
 FoFCou: FMM=F IPFlag=           0 FMFlag=      100000 FMFlg1=           0
         NFxFlg=           0 DoJE=T BraDBF=F KetDBF=F FulRan=T
         Omega=  0.000000  0.000000  1.000000  0.000000  0.000000 ICntrl=     500 IOpCl=  0
         NMat0=    1 NMatS0=    1 NMatT0=    0 NMatD0=    1 NMtDS0=    0 NMtDT0=    0
         I1Cent=           0 NGrid=           0.
 Symmetry not used in FoFCou.
 E= -2905.42978963368    
 DIIS: error= 1.37D-04 at cycle   1 NSaved=   1.
 NSaved= 1 IEnMin= 1 EnMin= -2905.42978963368     IErMin= 1 ErrMin= 1.37D-04
 ErrMax= 1.37D-04 EMaxC= 1.00D-01 BMatC= 3.71D-06 BMatP= 3.71D-06
 IDIUse=3 WtCom= 9.99D-01 WtEn= 1.37D-03
 Coeff-Com:  0.100D+01
 Coeff-En:   0.100D+01
 Coeff:      0.100D+01
 Gap=     0.421 Goal=   None    Shift=    0.000
 RMSDP=1.80D-05 MaxDP=6.95D-04              OVMax= 3.90D-04

 Cycle   2  Pass 1  IDiag  1:
 RMSU=  1.27D-05    CP:  1.00D+00
 FoFJK:  IHMeth= 1 ICntrl=     0 DoSepK=T KAlg= 1 I1Cent= 0 FoldK=F
 E= -2905.42979046151     Delta-E=       -0.000000827835 Rises=F Damp=F
 DIIS: error= 1.06D-05 at cycle   2 NSaved=   2.
 NSaved= 2 IEnMin= 2 EnMin= -2905.42979046151     IErMin= 2 ErrMin= 1.06D-05
 ErrMax= 1.06D-05 EMaxC= 1.00D-01 BMatC= 1.97D-08 BMatP= 3.71D-06
 IDIUse=1 WtCom= 1.00D+00 WtEn= 0.00D+00
 Coeff-Com: -0.568D-02 0.101D+01
 Coeff:     -0.568D-02 0.101D+01
 Gap=     0.421 Goal=   None    Shift=    0.000
 RMSDP=2.19D-06 MaxDP=7.06D-05 DE=-8.28D-07 OVMax= 7.51D-05

 Cycle   3  Pass 1  IDiag  1:
 RMSU=  8.23D-07    CP:  1.00D+00  1.10D+00
 FoFJK:  IHMeth= 1 ICntrl=     0 DoSepK=T KAlg= 1 I1Cent= 0 FoldK=F
 E= -2905.42979048711     Delta-E=       -0.000000025595 Rises=F Damp=F
 DIIS: error= 5.20D-06 at cycle   3 NSaved=   3.
 NSaved= 3 IEnMin= 3 EnMin= -2905.42979048711     IErMin= 3 ErrMin= 5.20D-06
 ErrMax= 5.20D-06 EMaxC= 1.00D-01 BMatC= 4.48D-09 BMatP= 1.97D-08
 IDIUse=1 WtCom= 1.00D+00 WtEn= 0.00D+00
 Coeff-Com: -0.540D-02 0.281D+00 0.725D+00
 Coeff:     -0.540D-02 0.281D+00 0.725D+00
 Gap=     0.421 Goal=   None    Shift=    0.000
 RMSDP=3.21D-07 MaxDP=8.69D-06 DE=-2.56D-08 OVMax= 2.27D-05

 Cycle   4  Pass 1  IDiag  1:
 RMSU=  1.76D-07    CP:  1.00D+00  1.11D+00  1.05D+00
 FoFJK:  IHMeth= 1 ICntrl=     0 DoSepK=T KAlg= 1 I1Cent= 0 FoldK=F
 E= -2905.42979049074     Delta-E=       -0.000000003633 Rises=F Damp=F
 DIIS: error= 1.80D-06 at cycle   4 NSaved=   4.
 NSaved= 4 IEnMin= 4 EnMin= -2905.42979049074     IErMin= 4 ErrMin= 1.80D-06
 ErrMax= 1.80D-06 EMaxC= 1.00D-01 BMatC= 9.85D-10 BMatP= 4.48D-09
 IDIUse=1 WtCom= 1.00D+00 WtEn= 0.00D+00
 Coeff-Com: -0.176D-02 0.296D-01 0.296D+00 0.676D+00
 Coeff:     -0.176D-02 0.296D-01 0.296D+00 0.676D+00
 Gap=     0.421 Goal=   None    Shift=    0.000
 RMSDP=1.66D-07 MaxDP=5.41D-06 DE=-3.63D-09 OVMax= 8.08D-06

 Cycle   5  Pass 1  IDiag  1:
 RMSU=  7.63D-08    CP:  1.00D+00  1.12D+00  1.14D+00  9.77D-01
 FoFJK:  IHMeth= 1 ICntrl=     0 DoSepK=T KAlg= 1 I1Cent= 0 FoldK=F
 E= -2905.42979049147     Delta-E=       -0.000000000731 Rises=F Damp=F
 DIIS: error= 8.47D-07 at cycle   5 NSaved=   5.
 NSaved= 5 IEnMin= 5 EnMin= -2905.42979049147     IErMin= 5 ErrMin= 8.47D-07
 ErrMax= 8.47D-07 EMaxC= 1.00D-01 BMatC= 1.92D-10 BMatP= 9.85D-10
 IDIUse=1 WtCom= 1.00D+00 WtEn= 0.00D+00
 Coeff-Com:  0.442D-03-0.546D-01-0.350D-01 0.317D+00 0.772D+00
 Coeff:      0.442D-03-0.546D-01-0.350D-01 0.317D+00 0.772D+00
 Gap=     0.421 Goal=   None    Shift=    0.000
 RMSDP=8.04D-08 MaxDP=2.51D-06 DE=-7.31D-10 OVMax= 4.70D-06

 Cycle   6  Pass 1  IDiag  1:
 RMSU=  2.88D-08    CP:  1.00D+00  1.12D+00  1.18D+00  1.12D+00  1.00D+00
 FoFJK:  IHMeth= 1 ICntrl=     0 DoSepK=T KAlg= 1 I1Cent= 0 FoldK=F
 E= -2905.42979049163     Delta-E=       -0.000000000164 Rises=F Damp=F
 DIIS: error= 1.41D-07 at cycle   6 NSaved=   6.
 NSaved= 6 IEnMin= 6 EnMin= -2905.42979049163     IErMin= 6 ErrMin= 1.41D-07
 ErrMax= 1.41D-07 EMaxC= 1.00D-01 BMatC= 6.06D-12 BMatP= 1.92D-10
 IDIUse=1 WtCom= 1.00D+00 WtEn= 0.00D+00
 Coeff-Com:  0.185D-03-0.137D-01-0.221D-01 0.417D-01 0.187D+00 0.807D+00
 Coeff:      0.185D-03-0.137D-01-0.221D-01 0.417D-01 0.187D+00 0.807D+00
 Gap=     0.421 Goal=   None    Shift=    0.000
 RMSDP=1.57D-08 MaxDP=5.26D-07 DE=-1.64D-10 OVMax= 1.35D-06

 Cycle   7  Pass 1  IDiag  1:
 RMSU=  8.45D-09    CP:  1.00D+00  1.12D+00  1.18D+00  1.13D+00  1.06D+00
                    CP:  1.16D+00
 FoFJK:  IHMeth= 1 ICntrl=     0 DoSepK=T KAlg= 1 I1Cent= 0 FoldK=F
 E= -2905.42979049165     Delta-E=       -0.000000000014 Rises=F Damp=F
 DIIS: error= 8.81D-08 at cycle   7 NSaved=   7.
 NSaved= 7 IEnMin= 7 EnMin= -2905.42979049165     IErMin= 7 ErrMin= 8.81D-08
 ErrMax= 8.81D-08 EMaxC= 1.00D-01 BMatC= 1.24D-12 BMatP= 6.06D-12
 IDIUse=1 WtCom= 1.00D+00 WtEn= 0.00D+00
 Coeff-Com: -0.320D-04 0.720D-02-0.432D-03-0.552D-01-0.103D+00 0.253D+00
 Coeff-Com:  0.899D+00
 Coeff:     -0.320D-04 0.720D-02-0.432D-03-0.552D-01-0.103D+00 0.253D+00
 Coeff:      0.899D+00
 Gap=     0.421 Goal=   None    Shift=    0.000
 RMSDP=1.01D-08 MaxDP=2.77D-07 DE=-1.41D-11 OVMax= 1.01D-06

 Cycle   8  Pass 1  IDiag  1:
 RMSU=  3.39D-09    CP:  1.00D+00  1.12D+00  1.18D+00  1.14D+00  1.09D+00
                    CP:  1.34D+00  1.20D+00
 FoFJK:  IHMeth= 1 ICntrl=     0 DoSepK=T KAlg= 1 I1Cent= 0 FoldK=F
 E= -2905.42979049165     Delta-E=        0.000000000001 Rises=F Damp=F
 DIIS: error= 1.64D-08 at cycle   8 NSaved=   8.
 NSaved= 8 IEnMin= 7 EnMin= -2905.42979049165     IErMin= 8 ErrMin= 1.64D-08
 ErrMax= 1.64D-08 EMaxC= 1.00D-01 BMatC= 4.74D-14 BMatP= 1.24D-12
 IDIUse=1 WtCom= 1.00D+00 WtEn= 0.00D+00
 Coeff-Com: -0.642D-05-0.156D-03 0.119D-02 0.469D-02 0.271D-02-0.784D-01
 Coeff-Com: -0.970D-01 0.117D+01
 Coeff:     -0.642D-05-0.156D-03 0.119D-02 0.469D-02 0.271D-02-0.784D-01
 Coeff:     -0.970D-01 0.117D+01
 Gap=     0.421 Goal=   None    Shift=    0.000
 RMSDP=3.50D-09 MaxDP=1.17D-07 DE= 1.36D-12 OVMax= 4.29D-07

 SCF Done:  E(RwB97XD) =  -2905.42979049     A.U. after    8 cycles
             Convg  =    0.3504D-08             -V/T =  2.0016
 KE= 2.900918546468D+03 PE=-7.148104040817D+03 EE= 1.236963050047D+03
 Leave Link  502 at Thu Apr 16 10:49:11 2020, MaxMem= 1073741824 cpu:     141.3
 (Enter /home/matheus/.gaussian/g09/l108.exe)
 Scan completed.

 Summary of the potential surface scan:
   N      R1          SCF    
 ----  ---------  -----------
    1     3.0000  -2905.42631
    2     3.1000  -2905.42803
    3     3.2000  -2905.42916
    4     3.3000  -2905.42987
    5     3.4000  -2905.43030
    6     3.5000  -2905.43053
    7     3.6000  -2905.43063
    8     3.7000  -2905.43066
    9     3.8000  -2905.43063
   10     3.9000  -2905.43057
   11     4.0000  -2905.43049
   12     4.1000  -2905.43041
   13     4.2000  -2905.43032
   14     4.3000  -2905.43024
   15     4.4000  -2905.43016
   16     4.5000  -2905.43008
   17     4.6000  -2905.43001
   18     4.7000  -2905.42995
   19     4.8000  -2905.42989
   20     4.9000  -2905.42984
   21     5.0000  -2905.42979
 ----  ---------  -----------
  
 Leave Link  108 at Thu Apr 16 10:49:11 2020, MaxMem= 1073741824 cpu:       0.0
 (Enter /home/matheus/.gaussian/g09/l9999.exe)

 Test job not archived.
 1\1\GINC-REDGIANT\Scan\RwB97XD\Aug-CC-pVTZ\H2Kr1O2\ROOT\16-Apr-2020\1\
 \#p wb97xd/aug-cc-PVTz iop(3/107=0250000000) iop(3/108=0250000000) int
 =ultrafine Scan\\TCC\\0,1\O,0,0.,0.,0.725\O,0,0.,0.,-0.725\H,0,0.70378
 08064,-0.5905422151,1.0235104166\H,0,0.,0.9187205947,-1.0235104166\Kr,
 0,0.,R1,0.\\R1=3.,s,20,0.1\\Version=EM64L-G09RevC.01\State=1-A\HF=-290
 5.4263123,-2905.4280348,-2905.4291562,-2905.4298715,-2905.430298,-2905
 .4305326,-2905.4306337,-2905.4306586,-2905.4306307,-2905.4305693,-2905
 .4304922,-2905.4304089,-2905.4303228,-2905.4302357,-2905.4301561,-2905
 .4300805,-2905.4300094,-2905.4299455,-2905.4298888,-2905.4298366,-2905
 .4297905\RMSD=2.621e-09,7.345e-09,7.713e-09,7.688e-09,7.118e-09,6.298e
 -09,5.453e-09,4.474e-09,3.770e-09,3.674e-09,3.160e-09,8.659e-09,7.598e
 -09,6.850e-09,5.979e-09,5.483e-09,5.116e-09,4.714e-09,4.209e-09,3.799e
 -09,3.504e-09\PG=C01 [X(H2Kr1O2)]\\@


 BREAD HAS TO MOLD IN ORDER TO GET PENICILLIN.
          -- JERRY BOATZ
 Job cpu time:  0 days  1 hours  6 minutes 35.2 seconds.
 File lengths (MBytes):  RWF=     33 Int=      0 D2E=      0 Chk=      4 Scr=      1
 Normal termination of Gaussian 09 at Thu Apr 16 10:49:11 2020.
