 Entering Gaussian System, Link 0=g09
 Input=/home/matheus/.tcc/Inputs-wb97xd/H2O2-Kr_35.com
 Output=/home/matheus/.tcc/Logs-wb97xd/H2O2-Kr_35.log
 Initial command:
 /home/matheus/.gaussian/g09/l1.exe /home/matheus/.gaussian/g09/scratch/Gau-1658.inp -scrdir=/home/matheus/.gaussian/g09/scratch/
 Entering Link 1 = /home/matheus/.gaussian/g09/l1.exe PID=      1661.
  
 Copyright (c) 1988,1990,1992,1993,1995,1998,2003,2009,2011,
            Gaussian, Inc.  All Rights Reserved.
  
 This is part of the Gaussian(R) 09 program.  It is based on
 the Gaussian(R) 03 system (copyright 2003, Gaussian, Inc.),
 the Gaussian(R) 98 system (copyright 1998, Gaussian, Inc.),
 the Gaussian(R) 94 system (copyright 1995, Gaussian, Inc.),
 the Gaussian 92(TM) system (copyright 1992, Gaussian, Inc.),
 the Gaussian 90(TM) system (copyright 1990, Gaussian, Inc.),
 the Gaussian 88(TM) system (copyright 1988, Gaussian, Inc.),
 the Gaussian 86(TM) system (copyright 1986, Carnegie Mellon
 University), and the Gaussian 82(TM) system (copyright 1983,
 Carnegie Mellon University). Gaussian is a federally registered
 trademark of Gaussian, Inc.
  
 This software contains proprietary and confidential information,
 including trade secrets, belonging to Gaussian, Inc.
  
 This software is provided under written license and may be
 used, copied, transmitted, or stored only in accord with that
 written license.
  
 The following legend is applicable only to US Government
 contracts under FAR:
  
                    RESTRICTED RIGHTS LEGEND
  
 Use, reproduction and disclosure by the US Government is
 subject to restrictions as set forth in subparagraphs (a)
 and (c) of the Commercial Computer Software - Restricted
 Rights clause in FAR 52.227-19.
  
 Gaussian, Inc.
 340 Quinnipiac St., Bldg. 40, Wallingford CT 06492
  
  
 ---------------------------------------------------------------
 Warning -- This program may not be used in any manner that
 competes with the business of Gaussian, Inc. or will provide
 assistance to any competitor of Gaussian, Inc.  The licensee
 of this program is prohibited from giving any competitor of
 Gaussian, Inc. access to this program.  By using this program,
 the user acknowledges that Gaussian, Inc. is engaged in the
 business of creating and licensing software in the field of
 computational chemistry and represents and warrants to the
 licensee that it is not a competitor of Gaussian, Inc. and that
 it will not use this program in any manner prohibited above.
 ---------------------------------------------------------------
  

 Cite this work as:
 Gaussian 09, Revision C.01,
 M. J. Frisch, G. W. Trucks, H. B. Schlegel, G. E. Scuseria, 
 M. A. Robb, J. R. Cheeseman, G. Scalmani, V. Barone, B. Mennucci, 
 G. A. Petersson, H. Nakatsuji, M. Caricato, X. Li, H. P. Hratchian, 
 A. F. Izmaylov, J. Bloino, G. Zheng, J. L. Sonnenberg, M. Hada, 
 M. Ehara, K. Toyota, R. Fukuda, J. Hasegawa, M. Ishida, T. Nakajima, 
 Y. Honda, O. Kitao, H. Nakai, T. Vreven, J. A. Montgomery, Jr., 
 J. E. Peralta, F. Ogliaro, M. Bearpark, J. J. Heyd, E. Brothers, 
 K. N. Kudin, V. N. Staroverov, T. Keith, R. Kobayashi, J. Normand, 
 K. Raghavachari, A. Rendell, J. C. Burant, S. S. Iyengar, J. Tomasi, 
 M. Cossi, N. Rega, J. M. Millam, M. Klene, J. E. Knox, J. B. Cross, 
 V. Bakken, C. Adamo, J. Jaramillo, R. Gomperts, R. E. Stratmann, 
 O. Yazyev, A. J. Austin, R. Cammi, C. Pomelli, J. W. Ochterski, 
 R. L. Martin, K. Morokuma, V. G. Zakrzewski, G. A. Voth, 
 P. Salvador, J. J. Dannenberg, S. Dapprich, A. D. Daniels, 
 O. Farkas, J. B. Foresman, J. V. Ortiz, J. Cioslowski, 
 and D. J. Fox, Gaussian, Inc., Wallingford CT, 2010.
 
 ******************************************
 Gaussian 09:  EM64L-G09RevC.01 23-Sep-2011
                16-Apr-2020 
 ******************************************
 %mem=8GB
 %nproc=8
 Will use up to    8 processors via shared memory.
 ----------------------------------------------------------------------
 #p wb97xd/aug-cc-PVTz iop(3/107=0250000000) iop(3/108=0250000000) int=
 ultrafine Scan
 ----------------------------------------------------------------------
 1/38=1,60=1/1,8;
 2/12=2,17=6,18=5,29=3,40=1/2;
 3/5=16,6=1,7=10,11=2,16=1,25=1,30=1,74=-58,75=-5,107=250000000,108=250000000/1,2,3;
 4//1;
 5/5=2,38=5/2;
 6/7=2,8=2,9=2,10=2,18=1,28=1/1;
 1/60=1/8(1);
 99/9=1/99;
 2/29=3/2;
 3/5=16,6=1,7=10,11=2,16=1,25=1,30=1,74=-58,75=-5,107=250000000,108=250000000/1,2,3;
 4/5=5,16=3/1;
 5/5=2,38=5/2;
 1/60=1/8(-4);
 99/9=1/99;
 Leave Link    1 at Thu Apr 16 14:08:55 2020, MaxMem= 1073741824 cpu:       0.1
 (Enter /home/matheus/.gaussian/g09/l101.exe)
 ---
 TCC
 ---
 Charge =  0 Multiplicity = 1
 Symbolic Z-Matrix:
 O                     0.        0.        0.725 
 O                     0.        0.       -0.725 
 H                    -0.15953   0.90476   1.02351 
 H                     0.        0.91872  -1.02351 
 Kr                    0.       R1        0. 
       Variables:
  R1                    3.     Scan 20    0.1    
 
 NAtoms=      5 NQM=        0 NQMF=       0 NMMI=      5 NMMIF=      0
                NMic=       0 NMicF=      0.
                    Isotopes and Nuclear Properties:
 (Nuclear quadrupole moments (NQMom) in fm**2, nuclear magnetic moments (NMagM)
  in nuclear magnetons)

  Atom         1           2           3           4           5
 IAtWgt=          16          16           1           1          84
 AtmWgt=  15.9949146  15.9949146   1.0078250   1.0078250  83.9115064
 NucSpn=           0           0           1           1           0
 AtZEff=   0.0000000   0.0000000   0.0000000   0.0000000   0.0000000
 NQMom=    0.0000000   0.0000000   0.0000000   0.0000000   0.0000000
 NMagM=    0.0000000   0.0000000   2.7928460   2.7928460   0.0000000
 Leave Link  101 at Thu Apr 16 14:08:55 2020, MaxMem= 1073741824 cpu:       0.3
 (Enter /home/matheus/.gaussian/g09/l108.exe)
 Scan the potential surface.
 Variable   Value     No. Steps Step-Size
 -------- ----------- --------- ---------
     1       3.000000      20      0.1000
 A total of     21 points will be computed.
 Leave Link  108 at Thu Apr 16 14:08:55 2020, MaxMem= 1073741824 cpu:       0.0
 (Enter /home/matheus/.gaussian/g09/l202.exe)
 ---------------------------------------------------------------------------------------------------
                            Z-MATRIX (ANGSTROMS AND DEGREES)
   CD    Cent   Atom    N1       Length/X        N2       Alpha/Y        N3        Beta/Z          J
 ---------------------------------------------------------------------------------------------------
      1      1  O        0   0.000000          0.000000          0.725000
      2      2  O        0   0.000000          0.000000         -0.725000
      3      3  H        0  -0.159534          0.904763          1.023510
      4      4  H        0   0.000000          0.918721         -1.023510
      5      5  Kr       0   0.000000          3.000000          0.000000
 ---------------------------------------------------------------------------------------------------
                         Z-Matrix orientation:                         
 ---------------------------------------------------------------------
 Center     Atomic      Atomic             Coordinates (Angstroms)
 Number     Number       Type             X           Y           Z
 ---------------------------------------------------------------------
      1          8           0        0.000000    0.000000    0.725000
      2          8           0        0.000000    0.000000   -0.725000
      3          1           0       -0.159534    0.904763    1.023510
      4          1           0        0.000000    0.918721   -1.023510
      5         36           0        0.000000    3.000000    0.000000
 ---------------------------------------------------------------------
                    Distance matrix (angstroms):
                    1          2          3          4          5
     1  O    0.000000
     2  O    1.450000   0.000000
     3  H    0.966000   1.975180   0.000000
     4  H    1.975180   0.966000   2.053275   0.000000
     5  Kr   3.086361   3.086361   2.337315   2.319331   0.000000
 Stoichiometry    H2KrO2
 Framework group  C1[X(H2KrO2)]
 Deg. of freedom     9
 Full point group                 C1      NOp   1
 Largest Abelian subgroup         C1      NOp   1
 Largest concise Abelian subgroup C1      NOp   1
                         Standard orientation:                         
 ---------------------------------------------------------------------
 Center     Atomic      Atomic             Coordinates (Angstroms)
 Number     Number       Type             X           Y           Z
 ---------------------------------------------------------------------
      1          8           0       -2.033875   -0.724487   -0.017820
      2          8           0       -2.033645    0.725337    0.004759
      3          1           0       -1.129442   -1.025614    0.138637
      4          1           0       -1.114878    1.023640    0.011023
      5         36           0        0.966235   -0.000134   -0.001255
 ---------------------------------------------------------------------
 Rotational constants (GHZ):     26.6670558      2.3882151      2.1923671
 Leave Link  202 at Thu Apr 16 14:08:55 2020, MaxMem= 1073741824 cpu:       0.0
 (Enter /home/matheus/.gaussian/g09/l301.exe)
 Standard basis: Aug-CC-pVTZ (5D, 7F)
 Ernie: Thresh=  0.10000D-02 Tol=  0.10000D-05 Strict=F.
 Ernie:  38 primitive shells out of 205 were deleted.
 There are   197 symmetry adapted basis functions of A   symmetry.
 Integral buffers will be    131072 words long.
 Raffenetti 2 integral format.
 Two-electron integral symmetry is turned on.
   197 basis functions,   415 primitive gaussians,   229 cartesian basis functions
    27 alpha electrons       27 beta electrons
       nuclear repulsion energy       151.7892858201 Hartrees.
 IExCor= 4639 DFT=T Ex+Corr=wB97XD ExCW=0 ScaHFX=  1.000000
 ScaDFX=  1.000000  1.000000  1.000000  1.000000 ScalE2=  1.000000  1.000000
 IRadAn=      5 IRanWt=     -1 IRanGd=            0 ICorTp=0
  HFx wShort=  0.000000 wLong=  0.250000 cFull=  0.222036 cShort=  0.000000 cLong=  0.777964
  DFx wShort=  0.000000 wLong=  0.250000 cFull=  0.000000 cShort=  0.000000 cLong=  1.000000
 NAtoms=    5 NActive=    5 NUniq=    5 SFac= 1.00D+00 NAtFMM=   60 NAOKFM=F Big=F
 R6Disp: Dispersion energy =        -0.0007570347 Hartrees.
 Nuclear repulsion after empirical dispersion term =      151.7885287854 Hartrees.
 Leave Link  301 at Thu Apr 16 14:08:55 2020, MaxMem= 1073741824 cpu:       0.2
 (Enter /home/matheus/.gaussian/g09/l302.exe)
 NPDir=0 NMtPBC=     1 NCelOv=     1 NCel=       1 NClECP=     1 NCelD=      1
         NCelK=      1 NCelE2=     1 NClLst=     1 CellRange=     0.0.
 One-electron integrals computed using PRISM.
 NBasis=   197 RedAO= T  NBF=   197
 NBsUse=   197 1.00D-06 NBFU=   197
 Precomputing XC quadrature grid using
 IXCGrd= 2 IRadAn=           5 IRanWt=          -1 IRanGd=           0 AccXCQ= 0.00D+00.
 NRdTot=     427 NPtTot=      123512 NUsed=      126579 NTot=      126611
 NSgBfM=   229   229   229   229   229 NAtAll=     5     5.
 Leave Link  302 at Thu Apr 16 14:08:56 2020, MaxMem= 1073741824 cpu:       1.1
 (Enter /home/matheus/.gaussian/g09/l303.exe)
 DipDrv:  MaxL=1.
 Leave Link  303 at Thu Apr 16 14:08:56 2020, MaxMem= 1073741824 cpu:       0.2
 (Enter /home/matheus/.gaussian/g09/l401.exe)
 Harris functional with IExCor= 4639 diagonalized for initial guess.
 ExpMin= 2.53D-02 ExpMax= 1.17D+07 ExpMxC= 1.33D+04 IAcc=3 IRadAn=         5 AccDes= 0.00D+00
 HarFok:  IExCor= 4639 AccDes= 0.00D+00 IRadAn=         5 IDoV= 1
 ScaDFX=  1.000000  1.000000  1.000000  1.000000
 FoFCou: FMM=F IPFlag=           0 FMFlag=      100000 FMFlg1=           0
         NFxFlg=           0 DoJE=T BraDBF=F KetDBF=T FulRan=T
         Omega=  0.000000  0.000000  1.000000  0.000000  0.000000 ICntrl=     500 IOpCl=  0
         NMat0=    1 NMatS0=    1 NMatT0=    0 NMatD0=    1 NMtDS0=    0 NMtDT0=    0
         I1Cent=           4 NGrid=           0.
 Petite list used in FoFCou.
 Harris En= -2875.38633007773    
 Initial guess orbital symmetries:
       Occupied  (A) (A) (A) (A) (A) (A) (A) (A) (A) (A) (A) (A)
                 (A) (A) (A) (A) (A) (A) (A) (A) (A) (A) (A) (A)
                 (A) (A) (A)
       Virtual   (A) (A) (A) (A) (A) (A) (A) (A) (A) (A) (A) (A)
                 (A) (A) (A) (A) (A) (A) (A) (A) (A) (A) (A) (A)
                 (A) (A) (A) (A) (A) (A) (A) (A) (A) (A) (A) (A)
                 (A) (A) (A) (A) (A) (A) (A) (A) (A) (A) (A) (A)
                 (A) (A) (A) (A) (A) (A) (A) (A) (A) (A) (A) (A)
                 (A) (A) (A) (A) (A) (A) (A) (A) (A) (A) (A) (A)
                 (A) (A) (A) (A) (A) (A) (A) (A) (A) (A) (A) (A)
                 (A) (A) (A) (A) (A) (A) (A) (A) (A) (A) (A) (A)
                 (A) (A) (A) (A) (A) (A) (A) (A) (A) (A) (A) (A)
                 (A) (A) (A) (A) (A) (A) (A) (A) (A) (A) (A) (A)
                 (A) (A) (A) (A) (A) (A) (A) (A) (A) (A) (A) (A)
                 (A) (A) (A) (A) (A) (A) (A) (A) (A) (A) (A) (A)
                 (A) (A) (A) (A) (A) (A) (A) (A) (A) (A) (A) (A)
                 (A) (A) (A) (A) (A) (A) (A) (A) (A) (A) (A) (A)
                 (A) (A)
 The electronic state of the initial guess is 1-A.
 Leave Link  401 at Thu Apr 16 14:08:56 2020, MaxMem= 1073741824 cpu:       3.9
 (Enter /home/matheus/.gaussian/g09/l502.exe)
 Closed shell SCF:
 Requested convergence on RMS density matrix=1.00D-08 within 128 cycles.
 Requested convergence on MAX density matrix=1.00D-06.
 Requested convergence on             energy=1.00D-06.
 No special actions if energy rises.
 Using DIIS extrapolation, IDIIS=  1040.
 Integral symmetry usage will be decided dynamically.
       126521 words used for storage of precomputed grid.
 IEnd=      305468 IEndB=      305468 NGot=  1073741824 MDV=  1073505667
 LenX=  1073505667 LenY=  1073452785
 Fock matrices will be formed incrementally for  20 cycles.

 Cycle   1  Pass 1  IDiag  1:
 FoFJK:  IHMeth= 1 ICntrl=     0 DoSepK=T KAlg= 1 I1Cent= 0 FoldK=F
 FoFCou: FMM=F IPFlag=           0 FMFlag=      100000 FMFlg1=           0
         NFxFlg=           0 DoJE=T BraDBF=F KetDBF=F FulRan=T
         Omega=  0.000000  0.000000  1.000000  0.000000  0.000000 ICntrl=     500 IOpCl=  0
         NMat0=    1 NMatS0=    1 NMatT0=    0 NMatD0=    1 NMtDS0=    0 NMtDT0=    0
         I1Cent=           0 NGrid=           0.
 Symmetry not used in FoFCou.
 E= -2904.88683379074    
 DIIS: error= 9.64D-02 at cycle   1 NSaved=   1.
 NSaved= 1 IEnMin= 1 EnMin= -2904.88683379074     IErMin= 1 ErrMin= 9.64D-02
 ErrMax= 9.64D-02 EMaxC= 1.00D-01 BMatC= 2.24D+00 BMatP= 2.24D+00
 IDIUse=3 WtCom= 3.56D-02 WtEn= 9.64D-01
 Coeff-Com:  0.100D+01
 Coeff-En:   0.100D+01
 Coeff:      0.100D+01
 Gap=     0.516 Goal=   None    Shift=    0.000
 GapD=    0.516 DampG=2.000 DampE=0.500 DampFc=1.0000 IDamp=-1.
 RMSDP=6.49D-03 MaxDP=3.79D-01              OVMax= 1.89D-01

 Cycle   2  Pass 1  IDiag  1:
 RMSU=  4.57D-03    CP:  1.02D+00
 FoFJK:  IHMeth= 1 ICntrl=     0 DoSepK=T KAlg= 1 I1Cent= 0 FoldK=F
 E= -2905.21742380736     Delta-E=       -0.330590016621 Rises=F Damp=F
 DIIS: error= 3.69D-02 at cycle   2 NSaved=   2.
 NSaved= 2 IEnMin= 2 EnMin= -2905.21742380736     IErMin= 2 ErrMin= 3.69D-02
 ErrMax= 3.69D-02 EMaxC= 1.00D-01 BMatC= 5.67D-01 BMatP= 2.24D+00
 IDIUse=3 WtCom= 6.31D-01 WtEn= 3.69D-01
 Coeff-Com:  0.327D+00 0.673D+00
 Coeff-En:   0.186D+00 0.814D+00
 Coeff:      0.275D+00 0.725D+00
 Gap=     0.466 Goal=   None    Shift=    0.000
 RMSDP=2.84D-03 MaxDP=1.65D-01 DE=-3.31D-01 OVMax= 7.69D-02

 Cycle   3  Pass 1  IDiag  1:
 RMSU=  5.91D-04    CP:  1.01D+00  5.81D-01
 FoFJK:  IHMeth= 1 ICntrl=     0 DoSepK=T KAlg= 1 I1Cent= 0 FoldK=F
 E= -2905.40743464803     Delta-E=       -0.190010840673 Rises=F Damp=F
 DIIS: error= 9.17D-03 at cycle   3 NSaved=   3.
 NSaved= 3 IEnMin= 3 EnMin= -2905.40743464803     IErMin= 3 ErrMin= 9.17D-03
 ErrMax= 9.17D-03 EMaxC= 1.00D-01 BMatC= 2.11D-02 BMatP= 5.67D-01
 IDIUse=3 WtCom= 9.08D-01 WtEn= 9.17D-02
 Coeff-Com:  0.289D-01 0.192D+00 0.779D+00
 Coeff-En:   0.000D+00 0.000D+00 0.100D+01
 Coeff:      0.263D-01 0.175D+00 0.799D+00
 Gap=     0.418 Goal=   None    Shift=    0.000
 RMSDP=5.48D-04 MaxDP=1.63D-02 DE=-1.90D-01 OVMax= 2.67D-02

 Cycle   4  Pass 1  IDiag  1:
 RMSU=  2.43D-04    CP:  1.01D+00  6.46D-01  9.29D-01
 FoFJK:  IHMeth= 1 ICntrl=     0 DoSepK=T KAlg= 1 I1Cent= 0 FoldK=F
 E= -2905.41646489243     Delta-E=       -0.009030244398 Rises=F Damp=F
 DIIS: error= 3.42D-03 at cycle   4 NSaved=   4.
 NSaved= 4 IEnMin= 4 EnMin= -2905.41646489243     IErMin= 4 ErrMin= 3.42D-03
 ErrMax= 3.42D-03 EMaxC= 1.00D-01 BMatC= 1.86D-03 BMatP= 2.11D-02
 IDIUse=3 WtCom= 9.66D-01 WtEn= 3.42D-02
 Coeff-Com: -0.309D-02 0.525D-01 0.379D+00 0.572D+00
 Coeff-En:   0.000D+00 0.000D+00 0.000D+00 0.100D+01
 Coeff:     -0.299D-02 0.507D-01 0.366D+00 0.586D+00
 Gap=     0.401 Goal=   None    Shift=    0.000
 RMSDP=1.36D-04 MaxDP=5.92D-03 DE=-9.03D-03 OVMax= 7.73D-03

 Cycle   5  Pass 1  IDiag  1:
 RMSU=  4.21D-05    CP:  1.01D+00  6.42D-01  9.62D-01  6.69D-01
 FoFJK:  IHMeth= 1 ICntrl=     0 DoSepK=T KAlg= 1 I1Cent= 0 FoldK=F
 E= -2905.41763269696     Delta-E=       -0.001167804533 Rises=F Damp=F
 DIIS: error= 1.22D-04 at cycle   5 NSaved=   5.
 NSaved= 5 IEnMin= 5 EnMin= -2905.41763269696     IErMin= 5 ErrMin= 1.22D-04
 ErrMax= 1.22D-04 EMaxC= 1.00D-01 BMatC= 4.60D-06 BMatP= 1.86D-03
 IDIUse=3 WtCom= 9.99D-01 WtEn= 1.22D-03
 Coeff-Com: -0.610D-03-0.629D-02-0.256D-01-0.913D-02 0.104D+01
 Coeff-En:   0.000D+00 0.000D+00 0.000D+00 0.000D+00 0.100D+01
 Coeff:     -0.609D-03-0.629D-02-0.255D-01-0.912D-02 0.104D+01
 Gap=     0.402 Goal=   None    Shift=    0.000
 RMSDP=2.28D-05 MaxDP=7.68D-04 DE=-1.17D-03 OVMax= 1.36D-03

 Cycle   6  Pass 1  IDiag  1:
 RMSU=  6.18D-06    CP:  1.01D+00  6.41D-01  9.76D-01  6.91D-01  1.26D+00
 FoFJK:  IHMeth= 1 ICntrl=     0 DoSepK=T KAlg= 1 I1Cent= 0 FoldK=F
 E= -2905.41764033847     Delta-E=       -0.000007641512 Rises=F Damp=F
 DIIS: error= 5.40D-05 at cycle   6 NSaved=   6.
 NSaved= 6 IEnMin= 6 EnMin= -2905.41764033847     IErMin= 6 ErrMin= 5.40D-05
 ErrMax= 5.40D-05 EMaxC= 1.00D-01 BMatC= 3.78D-07 BMatP= 4.60D-06
 IDIUse=1 WtCom= 1.00D+00 WtEn= 0.00D+00
 Coeff-Com: -0.260D-04-0.330D-02-0.191D-01-0.234D-01 0.163D+00 0.883D+00
 Coeff:     -0.260D-04-0.330D-02-0.191D-01-0.234D-01 0.163D+00 0.883D+00
 Gap=     0.402 Goal=   None    Shift=    0.000
 RMSDP=5.24D-06 MaxDP=1.76D-04 DE=-7.64D-06 OVMax= 3.39D-04

 Cycle   7  Pass 1  IDiag  1:
 RMSU=  1.99D-06    CP:  1.01D+00  6.41D-01  9.79D-01  6.94D-01  1.32D+00
                    CP:  1.17D+00
 FoFJK:  IHMeth= 1 ICntrl=     0 DoSepK=T KAlg= 1 I1Cent= 0 FoldK=F
 E= -2905.41764086671     Delta-E=       -0.000000528242 Rises=F Damp=F
 DIIS: error= 2.71D-05 at cycle   7 NSaved=   7.
 NSaved= 7 IEnMin= 7 EnMin= -2905.41764086671     IErMin= 7 ErrMin= 2.71D-05
 ErrMax= 2.71D-05 EMaxC= 1.00D-01 BMatC= 1.27D-07 BMatP= 3.78D-07
 IDIUse=1 WtCom= 1.00D+00 WtEn= 0.00D+00
 Coeff-Com:  0.247D-04-0.112D-02-0.708D-02-0.102D-01 0.472D-02 0.393D+00
 Coeff-Com:  0.621D+00
 Coeff:      0.247D-04-0.112D-02-0.708D-02-0.102D-01 0.472D-02 0.393D+00
 Coeff:      0.621D+00
 Gap=     0.402 Goal=   None    Shift=    0.000
 RMSDP=1.54D-06 MaxDP=6.14D-05 DE=-5.28D-07 OVMax= 1.04D-04

 Cycle   8  Pass 1  IDiag  1:
 RMSU=  7.80D-07    CP:  1.01D+00  6.41D-01  9.79D-01  6.94D-01  1.34D+00
                    CP:  1.25D+00  9.39D-01
 FoFJK:  IHMeth= 1 ICntrl=     0 DoSepK=T KAlg= 1 I1Cent= 0 FoldK=F
 E= -2905.41764096551     Delta-E=       -0.000000098799 Rises=F Damp=F
 DIIS: error= 1.02D-05 at cycle   8 NSaved=   8.
 NSaved= 8 IEnMin= 8 EnMin= -2905.41764096551     IErMin= 8 ErrMin= 1.02D-05
 ErrMax= 1.02D-05 EMaxC= 1.00D-01 BMatC= 1.96D-08 BMatP= 1.27D-07
 IDIUse=1 WtCom= 1.00D+00 WtEn= 0.00D+00
 Coeff-Com:  0.187D-04 0.210D-03 0.906D-03 0.749D-04-0.360D-01-0.135D-01
 Coeff-Com:  0.280D+00 0.768D+00
 Coeff:      0.187D-04 0.210D-03 0.906D-03 0.749D-04-0.360D-01-0.135D-01
 Coeff:      0.280D+00 0.768D+00
 Gap=     0.402 Goal=   None    Shift=    0.000
 RMSDP=8.34D-07 MaxDP=2.85D-05 DE=-9.88D-08 OVMax= 5.87D-05

 Cycle   9  Pass 1  IDiag  1:
 RMSU=  2.86D-07    CP:  1.01D+00  6.41D-01  9.79D-01  6.94D-01  1.34D+00
                    CP:  1.29D+00  1.10D+00  1.04D+00
 FoFJK:  IHMeth= 1 ICntrl=     0 DoSepK=T KAlg= 1 I1Cent= 0 FoldK=F
 E= -2905.41764098617     Delta-E=       -0.000000020659 Rises=F Damp=F
 DIIS: error= 2.59D-06 at cycle   9 NSaved=   9.
 NSaved= 9 IEnMin= 9 EnMin= -2905.41764098617     IErMin= 9 ErrMin= 2.59D-06
 ErrMax= 2.59D-06 EMaxC= 1.00D-01 BMatC= 6.08D-10 BMatP= 1.96D-08
 IDIUse=1 WtCom= 1.00D+00 WtEn= 0.00D+00
 Coeff-Com: -0.655D-06 0.109D-03 0.645D-03 0.600D-03-0.184D-02-0.289D-01
 Coeff-Com: -0.416D-01 0.160D-01 0.106D+01
 Coeff:     -0.655D-06 0.109D-03 0.645D-03 0.600D-03-0.184D-02-0.289D-01
 Coeff:     -0.416D-01 0.160D-01 0.106D+01
 Gap=     0.402 Goal=   None    Shift=    0.000
 RMSDP=2.87D-07 MaxDP=8.43D-06 DE=-2.07D-08 OVMax= 2.61D-05

 Cycle  10  Pass 1  IDiag  1:
 RMSU=  7.97D-08    CP:  1.01D+00  6.41D-01  9.79D-01  6.93D-01  1.34D+00
                    CP:  1.30D+00  1.13D+00  1.15D+00  1.29D+00
 FoFJK:  IHMeth= 1 ICntrl=     0 DoSepK=T KAlg= 1 I1Cent= 0 FoldK=F
 E= -2905.41764098758     Delta-E=       -0.000000001412 Rises=F Damp=F
 DIIS: error= 6.36D-07 at cycle  10 NSaved=  10.
 NSaved=10 IEnMin=10 EnMin= -2905.41764098758     IErMin=10 ErrMin= 6.36D-07
 ErrMax= 6.36D-07 EMaxC= 1.00D-01 BMatC= 4.26D-11 BMatP= 6.08D-10
 IDIUse=1 WtCom= 1.00D+00 WtEn= 0.00D+00
 Coeff-Com: -0.112D-05-0.641D-05-0.195D-04 0.316D-04 0.291D-02 0.105D-02
 Coeff-Com: -0.295D-01-0.744D-01 0.123D+00 0.977D+00
 Coeff:     -0.112D-05-0.641D-05-0.195D-04 0.316D-04 0.291D-02 0.105D-02
 Coeff:     -0.295D-01-0.744D-01 0.123D+00 0.977D+00
 Gap=     0.402 Goal=   None    Shift=    0.000
 RMSDP=7.23D-08 MaxDP=1.98D-06 DE=-1.41D-09 OVMax= 7.52D-06

 Cycle  11  Pass 1  IDiag  1:
 RMSU=  1.97D-08    CP:  1.01D+00  6.41D-01  9.79D-01  6.93D-01  1.34D+00
                    CP:  1.30D+00  1.14D+00  1.17D+00  1.40D+00  1.21D+00
 FoFJK:  IHMeth= 1 ICntrl=     0 DoSepK=T KAlg= 1 I1Cent= 0 FoldK=F
 E= -2905.41764098770     Delta-E=       -0.000000000120 Rises=F Damp=F
 DIIS: error= 1.61D-07 at cycle  11 NSaved=  11.
 NSaved=11 IEnMin=11 EnMin= -2905.41764098770     IErMin=11 ErrMin= 1.61D-07
 ErrMax= 1.61D-07 EMaxC= 1.00D-01 BMatC= 2.66D-12 BMatP= 4.26D-11
 IDIUse=1 WtCom= 1.00D+00 WtEn= 0.00D+00
 Coeff-Com:  0.353D-06-0.513D-05-0.353D-04-0.185D-04-0.373D-03 0.201D-02
 Coeff-Com:  0.549D-02 0.542D-02-0.721D-01-0.116D+00 0.118D+01
 Coeff:      0.353D-06-0.513D-05-0.353D-04-0.185D-04-0.373D-03 0.201D-02
 Coeff:      0.549D-02 0.542D-02-0.721D-01-0.116D+00 0.118D+01
 Gap=     0.402 Goal=   None    Shift=    0.000
 RMSDP=1.95D-08 MaxDP=4.98D-07 DE=-1.20D-10 OVMax= 2.07D-06

 Cycle  12  Pass 1  IDiag  1:
 RMSU=  4.69D-09    CP:  1.01D+00  6.41D-01  9.79D-01  6.93D-01  1.34D+00
                    CP:  1.30D+00  1.13D+00  1.17D+00  1.42D+00  1.32D+00
                    CP:  1.32D+00
 FoFJK:  IHMeth= 1 ICntrl=     0 DoSepK=T KAlg= 1 I1Cent= 0 FoldK=F
 E= -2905.41764098771     Delta-E=       -0.000000000005 Rises=F Damp=F
 DIIS: error= 2.98D-08 at cycle  12 NSaved=  12.
 NSaved=12 IEnMin=12 EnMin= -2905.41764098771     IErMin=12 ErrMin= 2.98D-08
 ErrMax= 2.98D-08 EMaxC= 1.00D-01 BMatC= 7.95D-14 BMatP= 2.66D-12
 IDIUse=1 WtCom= 1.00D+00 WtEn= 0.00D+00
 Coeff-Com: -0.414D-07 0.745D-06 0.501D-05-0.436D-05-0.308D-04-0.262D-03
 Coeff-Com:  0.127D-03 0.142D-02 0.782D-02-0.560D-02-0.249D+00 0.125D+01
 Coeff:     -0.414D-07 0.745D-06 0.501D-05-0.436D-05-0.308D-04-0.262D-03
 Coeff:      0.127D-03 0.142D-02 0.782D-02-0.560D-02-0.249D+00 0.125D+01
 Gap=     0.402 Goal=   None    Shift=    0.000
 RMSDP=4.42D-09 MaxDP=1.67D-07 DE=-4.55D-12 OVMax= 3.70D-07

 SCF Done:  E(RwB97XD) =  -2905.41764099     A.U. after   12 cycles
             Convg  =    0.4416D-08             -V/T =  2.0015
 KE= 2.900966758108D+03 PE=-7.240837557846D+03 EE= 1.282664629964D+03
 Leave Link  502 at Thu Apr 16 14:09:32 2020, MaxMem= 1073741824 cpu:     288.8
 (Enter /home/matheus/.gaussian/g09/l601.exe)
 Copying SCF densities to generalized density rwf, IOpCl= 0 IROHF=0.

 **********************************************************************

            Population analysis using the SCF density.

 **********************************************************************

 Orbital symmetries:
       Occupied  (A) (A) (A) (A) (A) (A) (A) (A) (A) (A) (A) (A)
                 (A) (A) (A) (A) (A) (A) (A) (A) (A) (A) (A) (A)
                 (A) (A) (A)
       Virtual   (A) (A) (A) (A) (A) (A) (A) (A) (A) (A) (A) (A)
                 (A) (A) (A) (A) (A) (A) (A) (A) (A) (A) (A) (A)
                 (A) (A) (A) (A) (A) (A) (A) (A) (A) (A) (A) (A)
                 (A) (A) (A) (A) (A) (A) (A) (A) (A) (A) (A) (A)
                 (A) (A) (A) (A) (A) (A) (A) (A) (A) (A) (A) (A)
                 (A) (A) (A) (A) (A) (A) (A) (A) (A) (A) (A) (A)
                 (A) (A) (A) (A) (A) (A) (A) (A) (A) (A) (A) (A)
                 (A) (A) (A) (A) (A) (A) (A) (A) (A) (A) (A) (A)
                 (A) (A) (A) (A) (A) (A) (A) (A) (A) (A) (A) (A)
                 (A) (A) (A) (A) (A) (A) (A) (A) (A) (A) (A) (A)
                 (A) (A) (A) (A) (A) (A) (A) (A) (A) (A) (A) (A)
                 (A) (A) (A) (A) (A) (A) (A) (A) (A) (A) (A) (A)
                 (A) (A) (A) (A) (A) (A) (A) (A) (A) (A) (A) (A)
                 (A) (A) (A) (A) (A) (A) (A) (A) (A) (A) (A) (A)
                 (A) (A)
 The electronic state is 1-A.
 Alpha  occ. eigenvalues -- -513.12122 -67.38935 -60.93814 -60.93807 -60.93798
 Alpha  occ. eigenvalues --  -19.33461 -19.33440  -9.84255  -7.53581  -7.53556
 Alpha  occ. eigenvalues --   -7.53526  -3.40266  -3.40263  -3.40238  -3.40218
 Alpha  occ. eigenvalues --   -3.40215  -1.24502  -1.05117  -1.02734  -0.69264
 Alpha  occ. eigenvalues --   -0.54951  -0.53497  -0.52591  -0.51315  -0.50843
 Alpha  occ. eigenvalues --   -0.48108  -0.36612
 Alpha virt. eigenvalues --    0.03541   0.04506   0.08705   0.09347   0.09600
 Alpha virt. eigenvalues --    0.11948   0.12615   0.16480   0.17015   0.17693
 Alpha virt. eigenvalues --    0.18666   0.19187   0.20094   0.21386   0.22536
 Alpha virt. eigenvalues --    0.23704   0.24202   0.26016   0.29796   0.33103
 Alpha virt. eigenvalues --    0.35443   0.36928   0.38306   0.38445   0.39492
 Alpha virt. eigenvalues --    0.42730   0.45162   0.48443   0.50987   0.53072
 Alpha virt. eigenvalues --    0.57955   0.61422   0.61563   0.63064   0.63539
 Alpha virt. eigenvalues --    0.68290   0.68478   0.70255   0.71416   0.73598
 Alpha virt. eigenvalues --    0.74227   0.76577   0.79052   0.82329   0.84383
 Alpha virt. eigenvalues --    0.85614   0.85739   0.87369   0.87706   0.89817
 Alpha virt. eigenvalues --    0.92517   0.95357   0.96343   0.97954   0.99474
 Alpha virt. eigenvalues --    1.02113   1.05024   1.06037   1.08232   1.08670
 Alpha virt. eigenvalues --    1.11137   1.18459   1.21075   1.26022   1.27293
 Alpha virt. eigenvalues --    1.30153   1.30321   1.36530   1.39296   1.45920
 Alpha virt. eigenvalues --    1.47997   1.49593   1.53754   1.55301   1.57668
 Alpha virt. eigenvalues --    1.63284   1.65465   1.78224   1.91400   1.93263
 Alpha virt. eigenvalues --    1.96399   1.99805   2.07190   2.11798   2.12056
 Alpha virt. eigenvalues --    2.17809   2.20378   2.20623   2.21346   2.26447
 Alpha virt. eigenvalues --    2.29772   2.30888   2.31496   2.32497   2.35741
 Alpha virt. eigenvalues --    2.37139   2.39794   2.41687   2.45615   2.46685
 Alpha virt. eigenvalues --    2.47824   2.48271   2.55510   2.56653   2.62801
 Alpha virt. eigenvalues --    2.63298   2.65028   2.67861   2.70943   2.71049
 Alpha virt. eigenvalues --    2.71932   2.75918   2.78475   2.87325   2.88561
 Alpha virt. eigenvalues --    2.94107   3.10014   3.11317   3.16852   3.53461
 Alpha virt. eigenvalues --    3.75501   3.83624   3.95584   4.03702   4.09611
 Alpha virt. eigenvalues --    4.10294   4.12757   4.18929   4.19886   4.25468
 Alpha virt. eigenvalues --    4.35949   4.47571   4.56841   4.70859   4.74338
 Alpha virt. eigenvalues --    4.95696   5.00045   5.01842   5.07179   5.13652
 Alpha virt. eigenvalues --    5.17284   5.53789   5.81246   5.98930   6.06828
 Alpha virt. eigenvalues --    6.12866   6.32466   6.38448   6.48310   6.57790
 Alpha virt. eigenvalues --    6.70311   6.70340   6.76430   6.78524   6.81489
 Alpha virt. eigenvalues --    6.86914   6.87540   6.89702   6.92529   7.11778
 Alpha virt. eigenvalues --    7.16187   7.20142   7.28915   7.29389   7.61897
 Alpha virt. eigenvalues --    7.97050   8.05890   8.20457  13.83485  14.76932
          Condensed to atoms (all electrons):
              1          2          3          4          5
     1  O    8.260099  -0.215964   0.170217   0.038774  -0.019819
     2  O   -0.215964   8.259078   0.039843   0.173177  -0.018755
     3  H    0.170217   0.039843   0.591681  -0.021172  -0.007505
     4  H    0.038774   0.173177  -0.021172   0.588852  -0.009494
     5  Kr  -0.019819  -0.018755  -0.007505  -0.009494  36.041686
 Mulliken atomic charges:
              1
     1  O   -0.233307
     2  O   -0.237378
     3  H    0.226935
     4  H    0.229863
     5  Kr   0.013887
 Sum of Mulliken atomic charges =   0.00000
 Mulliken charges with hydrogens summed into heavy atoms:
              1
     1  O   -0.006372
     2  O   -0.007515
     5  Kr   0.013887
 Sum of Mulliken charges with hydrogens summed into heavy atoms =   0.00000
 Electronic spatial extent (au):  <R**2>=            475.2675
 Charge=              0.0000 electrons
 Dipole moment (field-independent basis, Debye):
    X=              3.6814    Y=             -0.0118    Z=              0.2206  Tot=              3.6880
 Quadrupole moment (field-independent basis, Debye-Ang):
   XX=            -38.6289   YY=            -28.1481   ZZ=            -30.4937
   XY=              0.0339   XZ=             -0.2397   YZ=             -0.2991
 Traceless Quadrupole moment (field-independent basis, Debye-Ang):
   XX=             -6.2053   YY=              4.2755   ZZ=              1.9298
   XY=              0.0339   XZ=             -0.2397   YZ=             -0.2991
 Octapole moment (field-independent basis, Debye-Ang**2):
  XXX=             44.5211  YYY=             -0.0275  ZZZ=             -0.0255  XYY=              8.0522
  XXY=             -0.0773  XXZ=             -0.0788  XZZ=              8.9617  YZZ=             -0.0555
  YYZ=              0.3375  XYZ=              0.3176
 Hexadecapole moment (field-independent basis, Debye-Ang**3):
 XXXX=           -453.3218 YYYY=            -63.3794 ZZZZ=            -29.2208 XXXY=              0.0678
 XXXZ=              0.6320 YYYX=              0.0613 YYYZ=             -0.4004 ZZZX=             -0.0714
 ZZZY=             -0.1540 XXYY=            -86.1067 XXZZ=            -76.4222 YYZZ=            -17.3976
 XXYZ=             -0.3020 YYXZ=             -0.3734 ZZXY=              0.0719
 N-N= 1.517885287854D+02 E-N=-7.240837557857D+03  KE= 2.900966758108D+03
 No NMR shielding tensors so no spin-rotation constants.
 Leave Link  601 at Thu Apr 16 14:09:32 2020, MaxMem= 1073741824 cpu:       0.8
 (Enter /home/matheus/.gaussian/g09/l108.exe)
 Variable Step   Value    
 -------- ---- -----------
     1       1    5.858151
 Leave Link  108 at Thu Apr 16 14:09:32 2020, MaxMem= 1073741824 cpu:       0.0
 (Enter /home/matheus/.gaussian/g09/l202.exe)
 ---------------------------------------------------------------------------------------------------
                            Z-MATRIX (ANGSTROMS AND DEGREES)
   CD    Cent   Atom    N1       Length/X        N2       Alpha/Y        N3        Beta/Z          J
 ---------------------------------------------------------------------------------------------------
      1      1  O        0   0.000000          0.000000          0.725000
      2      2  O        0   0.000000          0.000000         -0.725000
      3      3  H        0  -0.159534          0.904763          1.023510
      4      4  H        0   0.000000          0.918721         -1.023510
      5      5  Kr       0   0.000000          3.100000          0.000000
 ---------------------------------------------------------------------------------------------------
                         Z-Matrix orientation:                         
 ---------------------------------------------------------------------
 Center     Atomic      Atomic             Coordinates (Angstroms)
 Number     Number       Type             X           Y           Z
 ---------------------------------------------------------------------
      1          8           0        0.000000    0.000000    0.725000
      2          8           0        0.000000    0.000000   -0.725000
      3          1           0       -0.159534    0.904763    1.023510
      4          1           0        0.000000    0.918721   -1.023510
      5         36           0        0.000000    3.100000    0.000000
 ---------------------------------------------------------------------
                    Distance matrix (angstroms):
                    1          2          3          4          5
     1  O    0.000000
     2  O    1.450000   0.000000
     3  H    0.966000   1.975180   0.000000
     4  H    1.975180   0.966000   2.053275   0.000000
     5  Kr   3.183650   3.183650   2.427363   2.409472   0.000000
 Stoichiometry    H2KrO2
 Framework group  C1[X(H2KrO2)]
 Deg. of freedom     9
 Full point group                 C1      NOp   1
 RotChk:  IX=0 Diff= 2.86D-05
 Largest Abelian subgroup         C1      NOp   1
 Largest concise Abelian subgroup C1      NOp   1
                         Standard orientation:                         
 ---------------------------------------------------------------------
 Center     Atomic      Atomic             Coordinates (Angstroms)
 Number     Number       Type             X           Y           Z
 ---------------------------------------------------------------------
      1          8           0       -2.100533   -0.724500   -0.017902
      2          8           0       -2.100320    0.725325    0.004677
      3          1           0       -1.196094   -1.025616    0.138540
      4          1           0       -1.181557    1.023639    0.010925
      5         36           0        0.999569   -0.000128   -0.001213
 ---------------------------------------------------------------------
 Rotational constants (GHZ):     26.6670679      2.2350687      2.0626263
 Leave Link  202 at Thu Apr 16 14:09:32 2020, MaxMem= 1073741824 cpu:       0.0
 (Enter /home/matheus/.gaussian/g09/l301.exe)
 Standard basis: Aug-CC-pVTZ (5D, 7F)
 Ernie: Thresh=  0.10000D-02 Tol=  0.10000D-05 Strict=F.
 Ernie:  38 primitive shells out of 205 were deleted.
 There are   197 symmetry adapted basis functions of A   symmetry.
 Integral buffers will be    131072 words long.
 Raffenetti 2 integral format.
 Two-electron integral symmetry is turned on.
   197 basis functions,   415 primitive gaussians,   229 cartesian basis functions
    27 alpha electrons       27 beta electrons
       nuclear repulsion energy       148.1616859534 Hartrees.
 IExCor= 4639 DFT=T Ex+Corr=wB97XD ExCW=0 ScaHFX=  1.000000
 ScaDFX=  1.000000  1.000000  1.000000  1.000000 ScalE2=  1.000000  1.000000
 IRadAn=      5 IRanWt=     -1 IRanGd=            0 ICorTp=0
  HFx wShort=  0.000000 wLong=  0.250000 cFull=  0.222036 cShort=  0.000000 cLong=  0.777964
  DFx wShort=  0.000000 wLong=  0.250000 cFull=  0.000000 cShort=  0.000000 cLong=  1.000000
 NAtoms=    5 NActive=    5 NUniq=    5 SFac= 1.00D+00 NAtFMM=   60 NAOKFM=F Big=F
 R6Disp: Dispersion energy =        -0.0008423299 Hartrees.
 Nuclear repulsion after empirical dispersion term =      148.1608436235 Hartrees.
 Leave Link  301 at Thu Apr 16 14:09:32 2020, MaxMem= 1073741824 cpu:       0.2
 (Enter /home/matheus/.gaussian/g09/l302.exe)
 NPDir=0 NMtPBC=     1 NCelOv=     1 NCel=       1 NClECP=     1 NCelD=      1
         NCelK=      1 NCelE2=     1 NClLst=     1 CellRange=     0.0.
 One-electron integrals computed using PRISM.
 NBasis=   197 RedAO= T  NBF=   197
 NBsUse=   197 1.00D-06 NBFU=   197
 Precomputing XC quadrature grid using
 IXCGrd= 2 IRadAn=           5 IRanWt=          -1 IRanGd=           0 AccXCQ= 0.00D+00.
 NRdTot=     427 NPtTot=      123512 NUsed=      126579 NTot=      126611
 NSgBfM=   229   229   229   229   229 NAtAll=     5     5.
 Leave Link  302 at Thu Apr 16 14:09:33 2020, MaxMem= 1073741824 cpu:       1.0
 (Enter /home/matheus/.gaussian/g09/l303.exe)
 DipDrv:  MaxL=1.
 Leave Link  303 at Thu Apr 16 14:09:33 2020, MaxMem= 1073741824 cpu:       0.2
 (Enter /home/matheus/.gaussian/g09/l401.exe)
 Initial guess read from the read-write file.
 B after Tr=     0.000000    0.000000    0.000000
         Rot=    1.000000    0.000000    0.000000    0.000000 Ang=   0.00 deg.
 Guess basis will be translated and rotated to current coordinates.
 Initial guess orbital symmetries:
       Occupied  (A) (A) (A) (A) (A) (A) (A) (A) (A) (A) (A) (A)
                 (A) (A) (A) (A) (A) (A) (A) (A) (A) (A) (A) (A)
                 (A) (A) (A)
       Virtual   (A) (A) (A) (A) (A) (A) (A) (A) (A) (A) (A) (A)
                 (A) (A) (A) (A) (A) (A) (A) (A) (A) (A) (A) (A)
                 (A) (A) (A) (A) (A) (A) (A) (A) (A) (A) (A) (A)
                 (A) (A) (A) (A) (A) (A) (A) (A) (A) (A) (A) (A)
                 (A) (A) (A) (A) (A) (A) (A) (A) (A) (A) (A) (A)
                 (A) (A) (A) (A) (A) (A) (A) (A) (A) (A) (A) (A)
                 (A) (A) (A) (A) (A) (A) (A) (A) (A) (A) (A) (A)
                 (A) (A) (A) (A) (A) (A) (A) (A) (A) (A) (A) (A)
                 (A) (A) (A) (A) (A) (A) (A) (A) (A) (A) (A) (A)
                 (A) (A) (A) (A) (A) (A) (A) (A) (A) (A) (A) (A)
                 (A) (A) (A) (A) (A) (A) (A) (A) (A) (A) (A) (A)
                 (A) (A) (A) (A) (A) (A) (A) (A) (A) (A) (A) (A)
                 (A) (A) (A) (A) (A) (A) (A) (A) (A) (A) (A) (A)
                 (A) (A) (A) (A) (A) (A) (A) (A) (A) (A) (A) (A)
                 (A) (A)
 The electronic state of the initial guess is 1-A.
 Generating alternative initial guess.
 Harris functional with IExCor= 4639 diagonalized for initial guess.
 ExpMin= 2.53D-02 ExpMax= 1.17D+07 ExpMxC= 1.33D+04 IAcc=3 IRadAn=         5 AccDes= 0.00D+00
 HarFok:  IExCor= 4639 AccDes= 0.00D+00 IRadAn=         5 IDoV= 1
 ScaDFX=  1.000000  1.000000  1.000000  1.000000
 FoFCou: FMM=F IPFlag=           0 FMFlag=      100000 FMFlg1=           0
         NFxFlg=           0 DoJE=T BraDBF=F KetDBF=T FulRan=T
         Omega=  0.000000  0.000000  1.000000  0.000000  0.000000 ICntrl=     500 IOpCl=  0
         NMat0=    1 NMatS0=    1 NMatT0=    0 NMatD0=    1 NMtDS0=    0 NMtDT0=    0
         I1Cent=           4 NGrid=           0.
 Petite list used in FoFCou.
 Harris En= -2875.39112867141    
 Leave Link  401 at Thu Apr 16 14:09:33 2020, MaxMem= 1073741824 cpu:       4.3
 (Enter /home/matheus/.gaussian/g09/l502.exe)
 Closed shell SCF:
 Requested convergence on RMS density matrix=1.00D-08 within 128 cycles.
 Requested convergence on MAX density matrix=1.00D-06.
 Requested convergence on             energy=1.00D-06.
 No special actions if energy rises.
 Using DIIS extrapolation, IDIIS=  1040.
 Integral symmetry usage will be decided dynamically.
       126521 words used for storage of precomputed grid.
 IEnd=      305468 IEndB=      305468 NGot=  1073741824 MDV=  1073505667
 LenX=  1073505667 LenY=  1073452785
 Fock matrices will be formed incrementally for  20 cycles.

 Cycle   1  Pass 1  IDiag  1:
 FoFJK:  IHMeth= 1 ICntrl=     0 DoSepK=T KAlg= 1 I1Cent= 0 FoldK=F
 FoFCou: FMM=F IPFlag=           0 FMFlag=      100000 FMFlg1=           0
         NFxFlg=           0 DoJE=T BraDBF=F KetDBF=F FulRan=T
         Omega=  0.000000  0.000000  1.000000  0.000000  0.000000 ICntrl=     500 IOpCl=  0
         NMat0=    1 NMatS0=    1 NMatT0=    0 NMatD0=    1 NMtDS0=    0 NMtDT0=    0
         I1Cent=           0 NGrid=           0.
 Symmetry not used in FoFCou.
 E= -2905.42009495644    
 DIIS: error= 2.61D-03 at cycle   1 NSaved=   1.
 NSaved= 1 IEnMin= 1 EnMin= -2905.42009495644     IErMin= 1 ErrMin= 2.61D-03
 ErrMax= 2.61D-03 EMaxC= 1.00D-01 BMatC= 1.03D-03 BMatP= 1.03D-03
 IDIUse=3 WtCom= 9.74D-01 WtEn= 2.61D-02
 Coeff-Com:  0.100D+01
 Coeff-En:   0.100D+01
 Coeff:      0.100D+01
 Gap=     0.406 Goal=   None    Shift=    0.000
 GapD=    0.406 DampG=2.000 DampE=1.000 DampFc=2.0000 IDamp=-1.
 RMSDP=7.94D-05 MaxDP=1.76D-03              OVMax= 3.79D-03

 Cycle   2  Pass 1  IDiag  1:
 RMSU=  5.61D-05    CP:  1.00D+00
 FoFJK:  IHMeth= 1 ICntrl=     0 DoSepK=T KAlg= 1 I1Cent= 0 FoldK=F
 E= -2905.42025755196     Delta-E=       -0.000162595522 Rises=F Damp=F
 DIIS: error= 2.46D-04 at cycle   2 NSaved=   2.
 NSaved= 2 IEnMin= 2 EnMin= -2905.42025755196     IErMin= 2 ErrMin= 2.46D-04
 ErrMax= 2.46D-04 EMaxC= 1.00D-01 BMatC= 7.51D-06 BMatP= 1.03D-03
 IDIUse=3 WtCom= 9.98D-01 WtEn= 2.46D-03
 Coeff-Com: -0.182D-02 0.100D+01
 Coeff-En:   0.000D+00 0.100D+01
 Coeff:     -0.182D-02 0.100D+01
 Gap=     0.401 Goal=   None    Shift=    0.000
 RMSDP=1.93D-05 MaxDP=6.44D-04 DE=-1.63D-04 OVMax= 9.95D-04

 Cycle   3  Pass 1  IDiag  1:
 RMSU=  1.18D-05    CP:  1.00D+00  1.12D+00
 FoFJK:  IHMeth= 1 ICntrl=     0 DoSepK=T KAlg= 1 I1Cent= 0 FoldK=F
 E= -2905.42026287682     Delta-E=       -0.000005324860 Rises=F Damp=F
 DIIS: error= 1.37D-04 at cycle   3 NSaved=   3.
 NSaved= 3 IEnMin= 3 EnMin= -2905.42026287682     IErMin= 3 ErrMin= 1.37D-04
 ErrMax= 1.37D-04 EMaxC= 1.00D-01 BMatC= 4.18D-06 BMatP= 7.51D-06
 IDIUse=3 WtCom= 9.99D-01 WtEn= 1.37D-03
 Coeff-Com: -0.681D-02 0.421D+00 0.585D+00
 Coeff-En:   0.000D+00 0.000D+00 0.100D+01
 Coeff:     -0.680D-02 0.421D+00 0.586D+00
 Gap=     0.402 Goal=   None    Shift=    0.000
 RMSDP=7.48D-06 MaxDP=2.57D-04 DE=-5.32D-06 OVMax= 3.83D-04

 Cycle   4  Pass 1  IDiag  1:
 RMSU=  3.49D-06    CP:  1.00D+00  1.15D+00  6.96D-01
 FoFJK:  IHMeth= 1 ICntrl=     0 DoSepK=T KAlg= 1 I1Cent= 0 FoldK=F
 E= -2905.42026568150     Delta-E=       -0.000002804682 Rises=F Damp=F
 DIIS: error= 2.74D-05 at cycle   4 NSaved=   4.
 NSaved= 4 IEnMin= 4 EnMin= -2905.42026568150     IErMin= 4 ErrMin= 2.74D-05
 ErrMax= 2.74D-05 EMaxC= 1.00D-01 BMatC= 9.34D-08 BMatP= 4.18D-06
 IDIUse=1 WtCom= 1.00D+00 WtEn= 0.00D+00
 Coeff-Com: -0.351D-03-0.541D-01 0.545D-01 0.100D+01
 Coeff:     -0.351D-03-0.541D-01 0.545D-01 0.100D+01
 Gap=     0.402 Goal=   None    Shift=    0.000
 RMSDP=2.31D-06 MaxDP=7.15D-05 DE=-2.80D-06 OVMax= 1.36D-04

 Cycle   5  Pass 1  IDiag  1:
 RMSU=  8.11D-07    CP:  1.00D+00  1.17D+00  7.80D-01  1.20D+00
 FoFJK:  IHMeth= 1 ICntrl=     0 DoSepK=T KAlg= 1 I1Cent= 0 FoldK=F
 E= -2905.42026579305     Delta-E=       -0.000000111545 Rises=F Damp=F
 DIIS: error= 5.72D-06 at cycle   5 NSaved=   5.
 NSaved= 5 IEnMin= 5 EnMin= -2905.42026579305     IErMin= 5 ErrMin= 5.72D-06
 ErrMax= 5.72D-06 EMaxC= 1.00D-01 BMatC= 8.87D-09 BMatP= 9.34D-08
 IDIUse=1 WtCom= 1.00D+00 WtEn= 0.00D+00
 Coeff-Com:  0.259D-03-0.417D-01-0.139D-01 0.309D+00 0.746D+00
 Coeff:      0.259D-03-0.417D-01-0.139D-01 0.309D+00 0.746D+00
 Gap=     0.402 Goal=   None    Shift=    0.000
 RMSDP=5.30D-07 MaxDP=1.27D-05 DE=-1.12D-07 OVMax= 3.03D-05

 Cycle   6  Pass 1  IDiag  1:
 RMSU=  2.15D-07    CP:  1.00D+00  1.17D+00  7.93D-01  1.27D+00  1.02D+00
 FoFJK:  IHMeth= 1 ICntrl=     0 DoSepK=T KAlg= 1 I1Cent= 0 FoldK=F
 E= -2905.42026580153     Delta-E=       -0.000000008486 Rises=F Damp=F
 DIIS: error= 2.11D-06 at cycle   6 NSaved=   6.
 NSaved= 6 IEnMin= 6 EnMin= -2905.42026580153     IErMin= 6 ErrMin= 2.11D-06
 ErrMax= 2.11D-06 EMaxC= 1.00D-01 BMatC= 9.03D-10 BMatP= 8.87D-09
 IDIUse=1 WtCom= 1.00D+00 WtEn= 0.00D+00
 Coeff-Com:  0.113D-03-0.133D-01-0.677D-02 0.718D-01 0.272D+00 0.676D+00
 Coeff:      0.113D-03-0.133D-01-0.677D-02 0.718D-01 0.272D+00 0.676D+00
 Gap=     0.402 Goal=   None    Shift=    0.000
 RMSDP=1.42D-07 MaxDP=6.58D-06 DE=-8.49D-09 OVMax= 1.03D-05

 Cycle   7  Pass 1  IDiag  1:
 RMSU=  7.41D-08    CP:  1.00D+00  1.17D+00  7.95D-01  1.28D+00  1.08D+00
                    CP:  1.00D+00
 FoFJK:  IHMeth= 1 ICntrl=     0 DoSepK=T KAlg= 1 I1Cent= 0 FoldK=F
 E= -2905.42026580222     Delta-E=       -0.000000000685 Rises=F Damp=F
 DIIS: error= 1.18D-06 at cycle   7 NSaved=   7.
 NSaved= 7 IEnMin= 7 EnMin= -2905.42026580222     IErMin= 7 ErrMin= 1.18D-06
 ErrMax= 1.18D-06 EMaxC= 1.00D-01 BMatC= 2.58D-10 BMatP= 9.03D-10
 IDIUse=1 WtCom= 1.00D+00 WtEn= 0.00D+00
 Coeff-Com: -0.229D-04 0.622D-02 0.133D-02-0.594D-01-0.953D-01 0.342D+00
 Coeff-Com:  0.805D+00
 Coeff:     -0.229D-04 0.622D-02 0.133D-02-0.594D-01-0.953D-01 0.342D+00
 Coeff:      0.805D+00
 Gap=     0.402 Goal=   None    Shift=    0.000
 RMSDP=8.58D-08 MaxDP=3.88D-06 DE=-6.85D-10 OVMax= 5.32D-06

 Cycle   8  Pass 1  IDiag  1:
 RMSU=  2.68D-08    CP:  1.00D+00  1.17D+00  7.97D-01  1.28D+00  1.12D+00
                    CP:  1.16D+00  9.07D-01
 FoFJK:  IHMeth= 1 ICntrl=     0 DoSepK=T KAlg= 1 I1Cent= 0 FoldK=F
 E= -2905.42026580247     Delta-E=       -0.000000000254 Rises=F Damp=F
 DIIS: error= 1.21D-07 at cycle   8 NSaved=   8.
 NSaved= 8 IEnMin= 8 EnMin= -2905.42026580247     IErMin= 8 ErrMin= 1.21D-07
 ErrMax= 1.21D-07 EMaxC= 1.00D-01 BMatC= 3.67D-12 BMatP= 2.58D-10
 IDIUse=1 WtCom= 1.00D+00 WtEn= 0.00D+00
 Coeff-Com: -0.952D-05 0.166D-02 0.536D-03-0.131D-01-0.268D-01 0.266D-01
 Coeff-Com:  0.128D+00 0.883D+00
 Coeff:     -0.952D-05 0.166D-02 0.536D-03-0.131D-01-0.268D-01 0.266D-01
 Coeff:      0.128D+00 0.883D+00
 Gap=     0.402 Goal=   None    Shift=    0.000
 RMSDP=1.51D-08 MaxDP=4.77D-07 DE=-2.54D-10 OVMax= 1.39D-06

 Cycle   9  Pass 1  IDiag  1:
 RMSU=  6.03D-09    CP:  1.00D+00  1.17D+00  7.97D-01  1.28D+00  1.12D+00
                    CP:  1.17D+00  9.61D-01  1.23D+00
 FoFJK:  IHMeth= 1 ICntrl=     0 DoSepK=T KAlg= 1 I1Cent= 0 FoldK=F
 E= -2905.42026580248     Delta-E=       -0.000000000011 Rises=F Damp=F
 DIIS: error= 4.88D-08 at cycle   9 NSaved=   9.
 NSaved= 9 IEnMin= 9 EnMin= -2905.42026580248     IErMin= 9 ErrMin= 4.88D-08
 ErrMax= 4.88D-08 EMaxC= 1.00D-01 BMatC= 3.88D-13 BMatP= 3.67D-12
 IDIUse=1 WtCom= 1.00D+00 WtEn= 0.00D+00
 Coeff-Com:  0.202D-05-0.579D-03-0.129D-03 0.564D-02 0.886D-02-0.363D-01
 Coeff-Com: -0.826D-01 0.451D-01 0.106D+01
 Coeff:      0.202D-05-0.579D-03-0.129D-03 0.564D-02 0.886D-02-0.363D-01
 Coeff:     -0.826D-01 0.451D-01 0.106D+01
 Gap=     0.402 Goal=   None    Shift=    0.000
 RMSDP=9.20D-09 MaxDP=2.07D-07 DE=-1.14D-11 OVMax= 8.15D-07

 SCF Done:  E(RwB97XD) =  -2905.42026580     A.U. after    9 cycles
             Convg  =    0.9204D-08             -V/T =  2.0015
 KE= 2.900949121983D+03 PE=-7.233622557958D+03 EE= 1.279092326549D+03
 Leave Link  502 at Thu Apr 16 14:10:00 2020, MaxMem= 1073741824 cpu:     210.9
 (Enter /home/matheus/.gaussian/g09/l108.exe)
 Variable Step   Value    
 -------- ---- -----------
     1       2    6.047124
 Leave Link  108 at Thu Apr 16 14:10:00 2020, MaxMem= 1073741824 cpu:       0.0
 (Enter /home/matheus/.gaussian/g09/l202.exe)
 ---------------------------------------------------------------------------------------------------
                            Z-MATRIX (ANGSTROMS AND DEGREES)
   CD    Cent   Atom    N1       Length/X        N2       Alpha/Y        N3        Beta/Z          J
 ---------------------------------------------------------------------------------------------------
      1      1  O        0   0.000000          0.000000          0.725000
      2      2  O        0   0.000000          0.000000         -0.725000
      3      3  H        0  -0.159534          0.904763          1.023510
      4      4  H        0   0.000000          0.918721         -1.023510
      5      5  Kr       0   0.000000          3.200000          0.000000
 ---------------------------------------------------------------------------------------------------
                         Z-Matrix orientation:                         
 ---------------------------------------------------------------------
 Center     Atomic      Atomic             Coordinates (Angstroms)
 Number     Number       Type             X           Y           Z
 ---------------------------------------------------------------------
      1          8           0        0.000000    0.000000    0.725000
      2          8           0        0.000000    0.000000   -0.725000
      3          1           0       -0.159534    0.904763    1.023510
      4          1           0        0.000000    0.918721   -1.023510
      5         36           0        0.000000    3.200000    0.000000
 ---------------------------------------------------------------------
                    Distance matrix (angstroms):
                    1          2          3          4          5
     1  O    0.000000
     2  O    1.450000   0.000000
     3  H    0.966000   1.975180   0.000000
     4  H    1.975180   0.966000   2.053275   0.000000
     5  Kr   3.281101   3.281101   2.518161   2.500362   0.000000
 Stoichiometry    H2KrO2
 Framework group  C1[X(H2KrO2)]
 Deg. of freedom     9
 Full point group                 C1      NOp   1
 RotChk:  IX=0 Diff= 2.96D-05
 Largest Abelian subgroup         C1      NOp   1
 Largest concise Abelian subgroup C1      NOp   1
                         Standard orientation:                         
 ---------------------------------------------------------------------
 Center     Atomic      Atomic             Coordinates (Angstroms)
 Number     Number       Type             X           Y           Z
 ---------------------------------------------------------------------
      1          8           0       -2.167193   -0.724511   -0.017979
      2          8           0       -2.166994    0.725314    0.004600
      3          1           0       -1.262747   -1.025617    0.138447
      4          1           0       -1.248234    1.023637    0.010832
      5         36           0        1.032902   -0.000123   -0.001173
 ---------------------------------------------------------------------
 Rotational constants (GHZ):     26.6670795      2.0961637      1.9437584
 Leave Link  202 at Thu Apr 16 14:10:00 2020, MaxMem= 1073741824 cpu:       0.0
 (Enter /home/matheus/.gaussian/g09/l301.exe)
 Standard basis: Aug-CC-pVTZ (5D, 7F)
 Ernie: Thresh=  0.10000D-02 Tol=  0.10000D-05 Strict=F.
 Ernie:  38 primitive shells out of 205 were deleted.
 There are   197 symmetry adapted basis functions of A   symmetry.
 Integral buffers will be    131072 words long.
 Raffenetti 2 integral format.
 Two-electron integral symmetry is turned on.
   197 basis functions,   415 primitive gaussians,   229 cartesian basis functions
    27 alpha electrons       27 beta electrons
       nuclear repulsion energy       144.7477002505 Hartrees.
 IExCor= 4639 DFT=T Ex+Corr=wB97XD ExCW=0 ScaHFX=  1.000000
 ScaDFX=  1.000000  1.000000  1.000000  1.000000 ScalE2=  1.000000  1.000000
 IRadAn=      5 IRanWt=     -1 IRanGd=            0 ICorTp=0
  HFx wShort=  0.000000 wLong=  0.250000 cFull=  0.222036 cShort=  0.000000 cLong=  0.777964
  DFx wShort=  0.000000 wLong=  0.250000 cFull=  0.000000 cShort=  0.000000 cLong=  1.000000
 NAtoms=    5 NActive=    5 NUniq=    5 SFac= 1.00D+00 NAtFMM=   60 NAOKFM=F Big=F
 R6Disp: Dispersion energy =        -0.0009272286 Hartrees.
 Nuclear repulsion after empirical dispersion term =      144.7467730219 Hartrees.
 Leave Link  301 at Thu Apr 16 14:10:00 2020, MaxMem= 1073741824 cpu:       0.2
 (Enter /home/matheus/.gaussian/g09/l302.exe)
 NPDir=0 NMtPBC=     1 NCelOv=     1 NCel=       1 NClECP=     1 NCelD=      1
         NCelK=      1 NCelE2=     1 NClLst=     1 CellRange=     0.0.
 One-electron integrals computed using PRISM.
 NBasis=   197 RedAO= T  NBF=   197
 NBsUse=   197 1.00D-06 NBFU=   197
 Precomputing XC quadrature grid using
 IXCGrd= 2 IRadAn=           5 IRanWt=          -1 IRanGd=           0 AccXCQ= 0.00D+00.
 NRdTot=     427 NPtTot=      123512 NUsed=      126579 NTot=      126611
 NSgBfM=   229   229   229   229   229 NAtAll=     5     5.
 Leave Link  302 at Thu Apr 16 14:10:00 2020, MaxMem= 1073741824 cpu:       1.0
 (Enter /home/matheus/.gaussian/g09/l303.exe)
 DipDrv:  MaxL=1.
 Leave Link  303 at Thu Apr 16 14:10:00 2020, MaxMem= 1073741824 cpu:       0.2
 (Enter /home/matheus/.gaussian/g09/l401.exe)
 Initial guess read from the read-write file.
 B after Tr=     0.000000    0.000000    0.000000
         Rot=    1.000000    0.000000    0.000000    0.000000 Ang=   0.00 deg.
 Guess basis will be translated and rotated to current coordinates.
 Initial guess orbital symmetries:
       Occupied  (A) (A) (A) (A) (A) (A) (A) (A) (A) (A) (A) (A)
                 (A) (A) (A) (A) (A) (A) (A) (A) (A) (A) (A) (A)
                 (A) (A) (A)
       Virtual   (A) (A) (A) (A) (A) (A) (A) (A) (A) (A) (A) (A)
                 (A) (A) (A) (A) (A) (A) (A) (A) (A) (A) (A) (A)
                 (A) (A) (A) (A) (A) (A) (A) (A) (A) (A) (A) (A)
                 (A) (A) (A) (A) (A) (A) (A) (A) (A) (A) (A) (A)
                 (A) (A) (A) (A) (A) (A) (A) (A) (A) (A) (A) (A)
                 (A) (A) (A) (A) (A) (A) (A) (A) (A) (A) (A) (A)
                 (A) (A) (A) (A) (A) (A) (A) (A) (A) (A) (A) (A)
                 (A) (A) (A) (A) (A) (A) (A) (A) (A) (A) (A) (A)
                 (A) (A) (A) (A) (A) (A) (A) (A) (A) (A) (A) (A)
                 (A) (A) (A) (A) (A) (A) (A) (A) (A) (A) (A) (A)
                 (A) (A) (A) (A) (A) (A) (A) (A) (A) (A) (A) (A)
                 (A) (A) (A) (A) (A) (A) (A) (A) (A) (A) (A) (A)
                 (A) (A) (A) (A) (A) (A) (A) (A) (A) (A) (A) (A)
                 (A) (A) (A) (A) (A) (A) (A) (A) (A) (A) (A) (A)
                 (A) (A)
 The electronic state of the initial guess is 1-A.
 Generating alternative initial guess.
 Harris functional with IExCor= 4639 diagonalized for initial guess.
 ExpMin= 2.53D-02 ExpMax= 1.17D+07 ExpMxC= 1.33D+04 IAcc=3 IRadAn=         5 AccDes= 0.00D+00
 HarFok:  IExCor= 4639 AccDes= 0.00D+00 IRadAn=         5 IDoV= 1
 ScaDFX=  1.000000  1.000000  1.000000  1.000000
 FoFCou: FMM=F IPFlag=           0 FMFlag=      100000 FMFlg1=           0
         NFxFlg=           0 DoJE=T BraDBF=F KetDBF=T FulRan=T
         Omega=  0.000000  0.000000  1.000000  0.000000  0.000000 ICntrl=     500 IOpCl=  0
         NMat0=    1 NMatS0=    1 NMatT0=    0 NMatD0=    1 NMtDS0=    0 NMtDT0=    0
         I1Cent=           4 NGrid=           0.
 Petite list used in FoFCou.
 Harris En= -2875.39474843295    
 Leave Link  401 at Thu Apr 16 14:10:00 2020, MaxMem= 1073741824 cpu:       4.5
 (Enter /home/matheus/.gaussian/g09/l502.exe)
 Closed shell SCF:
 Requested convergence on RMS density matrix=1.00D-08 within 128 cycles.
 Requested convergence on MAX density matrix=1.00D-06.
 Requested convergence on             energy=1.00D-06.
 No special actions if energy rises.
 Using DIIS extrapolation, IDIIS=  1040.
 Integral symmetry usage will be decided dynamically.
       126521 words used for storage of precomputed grid.
 IEnd=      305468 IEndB=      305468 NGot=  1073741824 MDV=  1073505667
 LenX=  1073505667 LenY=  1073452785
 Fock matrices will be formed incrementally for  20 cycles.

 Cycle   1  Pass 1  IDiag  1:
 FoFJK:  IHMeth= 1 ICntrl=     0 DoSepK=T KAlg= 1 I1Cent= 0 FoldK=F
 FoFCou: FMM=F IPFlag=           0 FMFlag=      100000 FMFlg1=           0
         NFxFlg=           0 DoJE=T BraDBF=F KetDBF=F FulRan=T
         Omega=  0.000000  0.000000  1.000000  0.000000  0.000000 ICntrl=     500 IOpCl=  0
         NMat0=    1 NMatS0=    1 NMatT0=    0 NMatD0=    1 NMtDS0=    0 NMtDT0=    0
         I1Cent=           0 NGrid=           0.
 Symmetry not used in FoFCou.
 E= -2905.42187405896    
 DIIS: error= 2.40D-03 at cycle   1 NSaved=   1.
 NSaved= 1 IEnMin= 1 EnMin= -2905.42187405896     IErMin= 1 ErrMin= 2.40D-03
 ErrMax= 2.40D-03 EMaxC= 1.00D-01 BMatC= 8.27D-04 BMatP= 8.27D-04
 IDIUse=3 WtCom= 9.76D-01 WtEn= 2.40D-02
 Coeff-Com:  0.100D+01
 Coeff-En:   0.100D+01
 Coeff:      0.100D+01
 Gap=     0.406 Goal=   None    Shift=    0.000
 GapD=    0.406 DampG=2.000 DampE=1.000 DampFc=2.0000 IDamp=-1.
 RMSDP=7.63D-05 MaxDP=1.60D-03              OVMax= 3.02D-03

 Cycle   2  Pass 1  IDiag  1:
 RMSU=  5.39D-05    CP:  1.00D+00
 FoFJK:  IHMeth= 1 ICntrl=     0 DoSepK=T KAlg= 1 I1Cent= 0 FoldK=F
 E= -2905.42199868234     Delta-E=       -0.000124623381 Rises=F Damp=F
 DIIS: error= 2.07D-04 at cycle   2 NSaved=   2.
 NSaved= 2 IEnMin= 2 EnMin= -2905.42199868234     IErMin= 2 ErrMin= 2.07D-04
 ErrMax= 2.07D-04 EMaxC= 1.00D-01 BMatC= 4.75D-06 BMatP= 8.27D-04
 IDIUse=3 WtCom= 9.98D-01 WtEn= 2.07D-03
 Coeff-Com: -0.401D-02 0.100D+01
 Coeff-En:   0.000D+00 0.100D+01
 Coeff:     -0.400D-02 0.100D+01
 Gap=     0.402 Goal=   None    Shift=    0.000
 RMSDP=1.65D-05 MaxDP=4.88D-04 DE=-1.25D-04 OVMax= 8.23D-04

 Cycle   3  Pass 1  IDiag  1:
 RMSU=  9.39D-06    CP:  1.00D+00  1.13D+00
 FoFJK:  IHMeth= 1 ICntrl=     0 DoSepK=T KAlg= 1 I1Cent= 0 FoldK=F
 E= -2905.42200262530     Delta-E=       -0.000003942962 Rises=F Damp=F
 DIIS: error= 1.06D-04 at cycle   3 NSaved=   3.
 NSaved= 3 IEnMin= 3 EnMin= -2905.42200262530     IErMin= 3 ErrMin= 1.06D-04
 ErrMax= 1.06D-04 EMaxC= 1.00D-01 BMatC= 2.44D-06 BMatP= 4.75D-06
 IDIUse=3 WtCom= 9.99D-01 WtEn= 1.06D-03
 Coeff-Com: -0.627D-02 0.408D+00 0.598D+00
 Coeff-En:   0.000D+00 0.000D+00 0.100D+01
 Coeff:     -0.626D-02 0.408D+00 0.598D+00
 Gap=     0.403 Goal=   None    Shift=    0.000
 RMSDP=5.98D-06 MaxDP=2.00D-04 DE=-3.94D-06 OVMax= 3.02D-04

 Cycle   4  Pass 1  IDiag  1:
 RMSU=  3.00D-06    CP:  1.00D+00  1.16D+00  7.37D-01
 FoFJK:  IHMeth= 1 ICntrl=     0 DoSepK=T KAlg= 1 I1Cent= 0 FoldK=F
 E= -2905.42200428831     Delta-E=       -0.000001663008 Rises=F Damp=F
 DIIS: error= 2.34D-05 at cycle   4 NSaved=   4.
 NSaved= 4 IEnMin= 4 EnMin= -2905.42200428831     IErMin= 4 ErrMin= 2.34D-05
 ErrMax= 2.34D-05 EMaxC= 1.00D-01 BMatC= 7.55D-08 BMatP= 2.44D-06
 IDIUse=1 WtCom= 1.00D+00 WtEn= 0.00D+00
 Coeff-Com: -0.191D-03-0.629D-01 0.692D-01 0.994D+00
 Coeff:     -0.191D-03-0.629D-01 0.692D-01 0.994D+00
 Gap=     0.403 Goal=   None    Shift=    0.000
 RMSDP=2.17D-06 MaxDP=6.41D-05 DE=-1.66D-06 OVMax= 1.17D-04

 Cycle   5  Pass 1  IDiag  1:
 RMSU=  6.80D-07    CP:  1.00D+00  1.17D+00  8.41D-01  1.19D+00
 FoFJK:  IHMeth= 1 ICntrl=     0 DoSepK=T KAlg= 1 I1Cent= 0 FoldK=F
 E= -2905.42200437679     Delta-E=       -0.000000088479 Rises=F Damp=F
 DIIS: error= 4.54D-06 at cycle   5 NSaved=   5.
 NSaved= 5 IEnMin= 5 EnMin= -2905.42200437679     IErMin= 5 ErrMin= 4.54D-06
 ErrMax= 4.54D-06 EMaxC= 1.00D-01 BMatC= 6.22D-09 BMatP= 7.55D-08
 IDIUse=1 WtCom= 1.00D+00 WtEn= 0.00D+00
 Coeff-Com:  0.260D-03-0.422D-01-0.763D-02 0.306D+00 0.743D+00
 Coeff:      0.260D-03-0.422D-01-0.763D-02 0.306D+00 0.743D+00
 Gap=     0.403 Goal=   None    Shift=    0.000
 RMSDP=4.51D-07 MaxDP=1.10D-05 DE=-8.85D-08 OVMax= 2.62D-05

 Cycle   6  Pass 1  IDiag  1:
 RMSU=  1.77D-07    CP:  1.00D+00  1.17D+00  8.56D-01  1.26D+00  1.01D+00
 FoFJK:  IHMeth= 1 ICntrl=     0 DoSepK=T KAlg= 1 I1Cent= 0 FoldK=F
 E= -2905.42200438286     Delta-E=       -0.000000006069 Rises=F Damp=F
 DIIS: error= 1.84D-06 at cycle   6 NSaved=   6.
 NSaved= 6 IEnMin= 6 EnMin= -2905.42200438286     IErMin= 6 ErrMin= 1.84D-06
 ErrMax= 1.84D-06 EMaxC= 1.00D-01 BMatC= 7.69D-10 BMatP= 6.22D-09
 IDIUse=1 WtCom= 1.00D+00 WtEn= 0.00D+00
 Coeff-Com:  0.112D-03-0.134D-01-0.564D-02 0.699D-01 0.287D+00 0.662D+00
 Coeff:      0.112D-03-0.134D-01-0.564D-02 0.699D-01 0.287D+00 0.662D+00
 Gap=     0.403 Goal=   None    Shift=    0.000
 RMSDP=1.23D-07 MaxDP=5.64D-06 DE=-6.07D-09 OVMax= 9.49D-06

 Cycle   7  Pass 1  IDiag  1:
 RMSU=  6.47D-08    CP:  1.00D+00  1.17D+00  8.59D-01  1.27D+00  1.07D+00
                    CP:  9.68D-01
 FoFJK:  IHMeth= 1 ICntrl=     0 DoSepK=T KAlg= 1 I1Cent= 0 FoldK=F
 E= -2905.42200438346     Delta-E=       -0.000000000601 Rises=F Damp=F
 DIIS: error= 9.33D-07 at cycle   7 NSaved=   7.
 NSaved= 7 IEnMin= 7 EnMin= -2905.42200438346     IErMin= 7 ErrMin= 9.33D-07
 ErrMax= 9.33D-07 EMaxC= 1.00D-01 BMatC= 1.88D-10 BMatP= 7.69D-10
 IDIUse=1 WtCom= 1.00D+00 WtEn= 0.00D+00
 Coeff-Com: -0.260D-04 0.667D-02 0.114D-03-0.616D-01-0.941D-01 0.321D+00
 Coeff-Com:  0.828D+00
 Coeff:     -0.260D-04 0.667D-02 0.114D-03-0.616D-01-0.941D-01 0.321D+00
 Coeff:      0.828D+00
 Gap=     0.403 Goal=   None    Shift=    0.000
 RMSDP=7.31D-08 MaxDP=3.32D-06 DE=-6.01D-10 OVMax= 4.90D-06

 Cycle   8  Pass 1  IDiag  1:
 RMSU=  2.33D-08    CP:  1.00D+00  1.17D+00  8.61D-01  1.27D+00  1.11D+00
                    CP:  1.13D+00  9.31D-01
 FoFJK:  IHMeth= 1 ICntrl=     0 DoSepK=T KAlg= 1 I1Cent= 0 FoldK=F
 E= -2905.42200438364     Delta-E=       -0.000000000181 Rises=F Damp=F
 DIIS: error= 7.43D-08 at cycle   8 NSaved=   8.
 NSaved= 8 IEnMin= 8 EnMin= -2905.42200438364     IErMin= 8 ErrMin= 7.43D-08
 ErrMax= 7.43D-08 EMaxC= 1.00D-01 BMatC= 2.10D-12 BMatP= 1.88D-10
 IDIUse=1 WtCom= 1.00D+00 WtEn= 0.00D+00
 Coeff-Com: -0.778D-05 0.133D-02 0.213D-03-0.101D-01-0.209D-01 0.156D-01
 Coeff-Com:  0.974D-01 0.917D+00
 Coeff:     -0.778D-05 0.133D-02 0.213D-03-0.101D-01-0.209D-01 0.156D-01
 Coeff:      0.974D-01 0.917D+00
 Gap=     0.403 Goal=   None    Shift=    0.000
 RMSDP=1.33D-08 MaxDP=3.47D-07 DE=-1.81D-10 OVMax= 1.20D-06

 Cycle   9  Pass 1  IDiag  1:
 RMSU=  4.74D-09    CP:  1.00D+00  1.17D+00  8.62D-01  1.27D+00  1.11D+00
                    CP:  1.14D+00  9.81D-01  1.24D+00
 FoFJK:  IHMeth= 1 ICntrl=     0 DoSepK=T KAlg= 1 I1Cent= 0 FoldK=F
 E= -2905.42200438367     Delta-E=       -0.000000000026 Rises=F Damp=F
 DIIS: error= 3.75D-08 at cycle   9 NSaved=   9.
 NSaved= 9 IEnMin= 9 EnMin= -2905.42200438367     IErMin= 9 ErrMin= 3.75D-08
 ErrMax= 3.75D-08 EMaxC= 1.00D-01 BMatC= 2.56D-13 BMatP= 2.10D-12
 IDIUse=1 WtCom= 1.00D+00 WtEn= 0.00D+00
 Coeff-Com:  0.220D-05-0.602D-03-0.114D-04 0.572D-02 0.828D-02-0.338D-01
 Coeff-Com: -0.827D-01 0.764D-01 0.103D+01
 Coeff:      0.220D-05-0.602D-03-0.114D-04 0.572D-02 0.828D-02-0.338D-01
 Coeff:     -0.827D-01 0.764D-01 0.103D+01
 Gap=     0.403 Goal=   None    Shift=    0.000
 RMSDP=7.21D-09 MaxDP=1.71D-07 DE=-2.64D-11 OVMax= 6.66D-07

 SCF Done:  E(RwB97XD) =  -2905.42200438     A.U. after    9 cycles
             Convg  =    0.7209D-08             -V/T =  2.0015
 KE= 2.900937586133D+03 PE=-7.226839364114D+03 EE= 1.275733000575D+03
 Leave Link  502 at Thu Apr 16 14:10:26 2020, MaxMem= 1073741824 cpu:     207.3
 (Enter /home/matheus/.gaussian/g09/l108.exe)
 Variable Step   Value    
 -------- ---- -----------
     1       3    6.236096
 Leave Link  108 at Thu Apr 16 14:10:26 2020, MaxMem= 1073741824 cpu:       0.0
 (Enter /home/matheus/.gaussian/g09/l202.exe)
 ---------------------------------------------------------------------------------------------------
                            Z-MATRIX (ANGSTROMS AND DEGREES)
   CD    Cent   Atom    N1       Length/X        N2       Alpha/Y        N3        Beta/Z          J
 ---------------------------------------------------------------------------------------------------
      1      1  O        0   0.000000          0.000000          0.725000
      2      2  O        0   0.000000          0.000000         -0.725000
      3      3  H        0  -0.159534          0.904763          1.023510
      4      4  H        0   0.000000          0.918721         -1.023510
      5      5  Kr       0   0.000000          3.300000          0.000000
 ---------------------------------------------------------------------------------------------------
                         Z-Matrix orientation:                         
 ---------------------------------------------------------------------
 Center     Atomic      Atomic             Coordinates (Angstroms)
 Number     Number       Type             X           Y           Z
 ---------------------------------------------------------------------
      1          8           0        0.000000    0.000000    0.725000
      2          8           0        0.000000    0.000000   -0.725000
      3          1           0       -0.159534    0.904763    1.023510
      4          1           0        0.000000    0.918721   -1.023510
      5         36           0        0.000000    3.300000    0.000000
 ---------------------------------------------------------------------
                    Distance matrix (angstroms):
                    1          2          3          4          5
     1  O    0.000000
     2  O    1.450000   0.000000
     3  H    0.966000   1.975180   0.000000
     4  H    1.975180   0.966000   2.053275   0.000000
     5  Kr   3.378702   3.378702   2.609633   2.591923   0.000000
 Stoichiometry    H2KrO2
 Framework group  C1[X(H2KrO2)]
 Deg. of freedom     9
 Full point group                 C1      NOp   1
 RotChk:  IX=0 Diff= 3.03D-05
 Largest Abelian subgroup         C1      NOp   1
 Largest concise Abelian subgroup C1      NOp   1
                         Standard orientation:                         
 ---------------------------------------------------------------------
 Center     Atomic      Atomic             Coordinates (Angstroms)
 Number     Number       Type             X           Y           Z
 ---------------------------------------------------------------------
      1          8           0       -2.233853   -0.724521   -0.018051
      2          8           0       -2.233667    0.725303    0.004528
      3          1           0       -1.329401   -1.025619    0.138357
      4          1           0       -1.314910    1.023636    0.010742
      5         36           0        1.066235   -0.000119   -0.001136
 ---------------------------------------------------------------------
 Rotational constants (GHZ):     26.6670906      1.9697910      1.8346155
 Leave Link  202 at Thu Apr 16 14:10:26 2020, MaxMem= 1073741824 cpu:       0.0
 (Enter /home/matheus/.gaussian/g09/l301.exe)
 Standard basis: Aug-CC-pVTZ (5D, 7F)
 Ernie: Thresh=  0.10000D-02 Tol=  0.10000D-05 Strict=F.
 Ernie:  38 primitive shells out of 205 were deleted.
 There are   197 symmetry adapted basis functions of A   symmetry.
 Integral buffers will be    131072 words long.
 Raffenetti 2 integral format.
 Two-electron integral symmetry is turned on.
   197 basis functions,   415 primitive gaussians,   229 cartesian basis functions
    27 alpha electrons       27 beta electrons
       nuclear repulsion energy       141.5298533775 Hartrees.
 IExCor= 4639 DFT=T Ex+Corr=wB97XD ExCW=0 ScaHFX=  1.000000
 ScaDFX=  1.000000  1.000000  1.000000  1.000000 ScalE2=  1.000000  1.000000
 IRadAn=      5 IRanWt=     -1 IRanGd=            0 ICorTp=0
  HFx wShort=  0.000000 wLong=  0.250000 cFull=  0.222036 cShort=  0.000000 cLong=  0.777964
  DFx wShort=  0.000000 wLong=  0.250000 cFull=  0.000000 cShort=  0.000000 cLong=  1.000000
 NAtoms=    5 NActive=    5 NUniq=    5 SFac= 1.00D+00 NAtFMM=   60 NAOKFM=F Big=F
 R6Disp: Dispersion energy =        -0.0010070069 Hartrees.
 Nuclear repulsion after empirical dispersion term =      141.5288463706 Hartrees.
 Leave Link  301 at Thu Apr 16 14:10:26 2020, MaxMem= 1073741824 cpu:       0.2
 (Enter /home/matheus/.gaussian/g09/l302.exe)
 NPDir=0 NMtPBC=     1 NCelOv=     1 NCel=       1 NClECP=     1 NCelD=      1
         NCelK=      1 NCelE2=     1 NClLst=     1 CellRange=     0.0.
 One-electron integrals computed using PRISM.
 NBasis=   197 RedAO= T  NBF=   197
 NBsUse=   197 1.00D-06 NBFU=   197
 Precomputing XC quadrature grid using
 IXCGrd= 2 IRadAn=           5 IRanWt=          -1 IRanGd=           0 AccXCQ= 0.00D+00.
 NRdTot=     427 NPtTot=      123512 NUsed=      126579 NTot=      126611
 NSgBfM=   229   229   229   229   229 NAtAll=     5     5.
 Leave Link  302 at Thu Apr 16 14:10:26 2020, MaxMem= 1073741824 cpu:       1.1
 (Enter /home/matheus/.gaussian/g09/l303.exe)
 DipDrv:  MaxL=1.
 Leave Link  303 at Thu Apr 16 14:10:27 2020, MaxMem= 1073741824 cpu:       0.2
 (Enter /home/matheus/.gaussian/g09/l401.exe)
 Initial guess read from the read-write file.
 B after Tr=     0.000000    0.000000    0.000000
         Rot=    1.000000    0.000000    0.000000    0.000000 Ang=   0.00 deg.
 Guess basis will be translated and rotated to current coordinates.
 Initial guess orbital symmetries:
       Occupied  (A) (A) (A) (A) (A) (A) (A) (A) (A) (A) (A) (A)
                 (A) (A) (A) (A) (A) (A) (A) (A) (A) (A) (A) (A)
                 (A) (A) (A)
       Virtual   (A) (A) (A) (A) (A) (A) (A) (A) (A) (A) (A) (A)
                 (A) (A) (A) (A) (A) (A) (A) (A) (A) (A) (A) (A)
                 (A) (A) (A) (A) (A) (A) (A) (A) (A) (A) (A) (A)
                 (A) (A) (A) (A) (A) (A) (A) (A) (A) (A) (A) (A)
                 (A) (A) (A) (A) (A) (A) (A) (A) (A) (A) (A) (A)
                 (A) (A) (A) (A) (A) (A) (A) (A) (A) (A) (A) (A)
                 (A) (A) (A) (A) (A) (A) (A) (A) (A) (A) (A) (A)
                 (A) (A) (A) (A) (A) (A) (A) (A) (A) (A) (A) (A)
                 (A) (A) (A) (A) (A) (A) (A) (A) (A) (A) (A) (A)
                 (A) (A) (A) (A) (A) (A) (A) (A) (A) (A) (A) (A)
                 (A) (A) (A) (A) (A) (A) (A) (A) (A) (A) (A) (A)
                 (A) (A) (A) (A) (A) (A) (A) (A) (A) (A) (A) (A)
                 (A) (A) (A) (A) (A) (A) (A) (A) (A) (A) (A) (A)
                 (A) (A) (A) (A) (A) (A) (A) (A) (A) (A) (A) (A)
                 (A) (A)
 The electronic state of the initial guess is 1-A.
 Generating alternative initial guess.
 Harris functional with IExCor= 4639 diagonalized for initial guess.
 ExpMin= 2.53D-02 ExpMax= 1.17D+07 ExpMxC= 1.33D+04 IAcc=3 IRadAn=         5 AccDes= 0.00D+00
 HarFok:  IExCor= 4639 AccDes= 0.00D+00 IRadAn=         5 IDoV= 1
 ScaDFX=  1.000000  1.000000  1.000000  1.000000
 FoFCou: FMM=F IPFlag=           0 FMFlag=      100000 FMFlg1=           0
         NFxFlg=           0 DoJE=T BraDBF=F KetDBF=T FulRan=T
         Omega=  0.000000  0.000000  1.000000  0.000000  0.000000 ICntrl=     500 IOpCl=  0
         NMat0=    1 NMatS0=    1 NMatT0=    0 NMatD0=    1 NMtDS0=    0 NMtDT0=    0
         I1Cent=           4 NGrid=           0.
 Petite list used in FoFCou.
 Harris En= -2875.39740642131    
 Leave Link  401 at Thu Apr 16 14:10:27 2020, MaxMem= 1073741824 cpu:       4.3
 (Enter /home/matheus/.gaussian/g09/l502.exe)
 Closed shell SCF:
 Requested convergence on RMS density matrix=1.00D-08 within 128 cycles.
 Requested convergence on MAX density matrix=1.00D-06.
 Requested convergence on             energy=1.00D-06.
 No special actions if energy rises.
 Using DIIS extrapolation, IDIIS=  1040.
 Integral symmetry usage will be decided dynamically.
       126521 words used for storage of precomputed grid.
 IEnd=      305468 IEndB=      305468 NGot=  1073741824 MDV=  1073505667
 LenX=  1073505667 LenY=  1073452785
 Fock matrices will be formed incrementally for  20 cycles.

 Cycle   1  Pass 1  IDiag  1:
 FoFJK:  IHMeth= 1 ICntrl=     0 DoSepK=T KAlg= 1 I1Cent= 0 FoldK=F
 FoFCou: FMM=F IPFlag=           0 FMFlag=      100000 FMFlg1=           0
         NFxFlg=           0 DoJE=T BraDBF=F KetDBF=F FulRan=T
         Omega=  0.000000  0.000000  1.000000  0.000000  0.000000 ICntrl=     500 IOpCl=  0
         NMat0=    1 NMatS0=    1 NMatT0=    0 NMatD0=    1 NMtDS0=    0 NMtDT0=    0
         I1Cent=           0 NGrid=           0.
 Symmetry not used in FoFCou.
 E= -2905.42302564145    
 DIIS: error= 2.09D-03 at cycle   1 NSaved=   1.
 NSaved= 1 IEnMin= 1 EnMin= -2905.42302564145     IErMin= 1 ErrMin= 2.09D-03
 ErrMax= 2.09D-03 EMaxC= 1.00D-01 BMatC= 6.43D-04 BMatP= 6.43D-04
 IDIUse=3 WtCom= 9.79D-01 WtEn= 2.09D-02
 Coeff-Com:  0.100D+01
 Coeff-En:   0.100D+01
 Coeff:      0.100D+01
 Gap=     0.406 Goal=   None    Shift=    0.000
 GapD=    0.406 DampG=2.000 DampE=1.000 DampFc=2.0000 IDamp=-1.
 RMSDP=7.14D-05 MaxDP=1.67D-03              OVMax= 2.47D-03

 Cycle   2  Pass 1  IDiag  1:
 RMSU=  5.05D-05    CP:  1.00D+00
 FoFJK:  IHMeth= 1 ICntrl=     0 DoSepK=T KAlg= 1 I1Cent= 0 FoldK=F
 E= -2905.42312195924     Delta-E=       -0.000096317786 Rises=F Damp=F
 DIIS: error= 1.70D-04 at cycle   2 NSaved=   2.
 NSaved= 2 IEnMin= 2 EnMin= -2905.42312195924     IErMin= 2 ErrMin= 1.70D-04
 ErrMax= 1.70D-04 EMaxC= 1.00D-01 BMatC= 3.10D-06 BMatP= 6.43D-04
 IDIUse=3 WtCom= 9.98D-01 WtEn= 1.70D-03
 Coeff-Com: -0.563D-02 0.101D+01
 Coeff-En:   0.000D+00 0.100D+01
 Coeff:     -0.562D-02 0.101D+01
 Gap=     0.402 Goal=   None    Shift=    0.000
 RMSDP=1.43D-05 MaxDP=3.97D-04 DE=-9.63D-05 OVMax= 6.69D-04

 Cycle   3  Pass 1  IDiag  1:
 RMSU=  7.58D-06    CP:  1.00D+00  1.13D+00
 FoFJK:  IHMeth= 1 ICntrl=     0 DoSepK=T KAlg= 1 I1Cent= 0 FoldK=F
 E= -2905.42312496001     Delta-E=       -0.000003000774 Rises=F Damp=F
 DIIS: error= 8.98D-05 at cycle   3 NSaved=   3.
 NSaved= 3 IEnMin= 3 EnMin= -2905.42312496001     IErMin= 3 ErrMin= 8.98D-05
 ErrMax= 8.98D-05 EMaxC= 1.00D-01 BMatC= 1.44D-06 BMatP= 3.10D-06
 IDIUse=1 WtCom= 1.00D+00 WtEn= 0.00D+00
 Coeff-Com: -0.599D-02 0.391D+00 0.615D+00
 Coeff:     -0.599D-02 0.391D+00 0.615D+00
 Gap=     0.403 Goal=   None    Shift=    0.000
 RMSDP=4.83D-06 MaxDP=1.56D-04 DE=-3.00D-06 OVMax= 2.42D-04

 Cycle   4  Pass 1  IDiag  1:
 RMSU=  2.66D-06    CP:  1.00D+00  1.16D+00  7.83D-01
 FoFJK:  IHMeth= 1 ICntrl=     0 DoSepK=T KAlg= 1 I1Cent= 0 FoldK=F
 E= -2905.42312596264     Delta-E=       -0.000001002629 Rises=F Damp=F
 DIIS: error= 2.03D-05 at cycle   4 NSaved=   4.
 NSaved= 4 IEnMin= 4 EnMin= -2905.42312596264     IErMin= 4 ErrMin= 2.03D-05
 ErrMax= 2.03D-05 EMaxC= 1.00D-01 BMatC= 6.24D-08 BMatP= 1.44D-06
 IDIUse=1 WtCom= 1.00D+00 WtEn= 0.00D+00
 Coeff-Com: -0.979D-04-0.691D-01 0.901D-01 0.979D+00
 Coeff:     -0.979D-04-0.691D-01 0.901D-01 0.979D+00
 Gap=     0.403 Goal=   None    Shift=    0.000
 RMSDP=1.97D-06 MaxDP=5.80D-05 DE=-1.00D-06 OVMax= 9.58D-05

 Cycle   5  Pass 1  IDiag  1:
 RMSU=  5.76D-07    CP:  1.00D+00  1.17D+00  9.08D-01  1.18D+00
 FoFJK:  IHMeth= 1 ICntrl=     0 DoSepK=T KAlg= 1 I1Cent= 0 FoldK=F
 E= -2905.42312603356     Delta-E=       -0.000000070921 Rises=F Damp=F
 DIIS: error= 4.02D-06 at cycle   5 NSaved=   5.
 NSaved= 5 IEnMin= 5 EnMin= -2905.42312603356     IErMin= 5 ErrMin= 4.02D-06
 ErrMax= 4.02D-06 EMaxC= 1.00D-01 BMatC= 4.46D-09 BMatP= 6.24D-08
 IDIUse=1 WtCom= 1.00D+00 WtEn= 0.00D+00
 Coeff-Com:  0.265D-03-0.423D-01-0.736D-03 0.299D+00 0.744D+00
 Coeff:      0.265D-03-0.423D-01-0.736D-03 0.299D+00 0.744D+00
 Gap=     0.403 Goal=   None    Shift=    0.000
 RMSDP=3.88D-07 MaxDP=9.50D-06 DE=-7.09D-08 OVMax= 2.24D-05

 Cycle   6  Pass 1  IDiag  1:
 RMSU=  1.47D-07    CP:  1.00D+00  1.17D+00  9.26D-01  1.24D+00  1.00D+00
 FoFJK:  IHMeth= 1 ICntrl=     0 DoSepK=T KAlg= 1 I1Cent= 0 FoldK=F
 E= -2905.42312603802     Delta-E=       -0.000000004462 Rises=F Damp=F
 DIIS: error= 1.66D-06 at cycle   6 NSaved=   6.
 NSaved= 6 IEnMin= 6 EnMin= -2905.42312603802     IErMin= 6 ErrMin= 1.66D-06
 ErrMax= 1.66D-06 EMaxC= 1.00D-01 BMatC= 6.18D-10 BMatP= 4.46D-09
 IDIUse=1 WtCom= 1.00D+00 WtEn= 0.00D+00
 Coeff-Com:  0.111D-03-0.129D-01-0.439D-02 0.633D-01 0.291D+00 0.663D+00
 Coeff:      0.111D-03-0.129D-01-0.439D-02 0.633D-01 0.291D+00 0.663D+00
 Gap=     0.403 Goal=   None    Shift=    0.000
 RMSDP=1.08D-07 MaxDP=4.93D-06 DE=-4.46D-09 OVMax= 8.67D-06

 Cycle   7  Pass 1  IDiag  1:
 RMSU=  5.70D-08    CP:  1.00D+00  1.17D+00  9.29D-01  1.25D+00  1.06D+00
                    CP:  9.48D-01
 FoFJK:  IHMeth= 1 ICntrl=     0 DoSepK=T KAlg= 1 I1Cent= 0 FoldK=F
 E= -2905.42312603851     Delta-E=       -0.000000000490 Rises=F Damp=F
 DIIS: error= 7.56D-07 at cycle   7 NSaved=   7.
 NSaved= 7 IEnMin= 7 EnMin= -2905.42312603851     IErMin= 7 ErrMin= 7.56D-07
 ErrMax= 7.56D-07 EMaxC= 1.00D-01 BMatC= 1.45D-10 BMatP= 6.18D-10
 IDIUse=1 WtCom= 1.00D+00 WtEn= 0.00D+00
 Coeff-Com: -0.288D-04 0.705D-02-0.142D-02-0.631D-01-0.931D-01 0.319D+00
 Coeff-Com:  0.832D+00
 Coeff:     -0.288D-04 0.705D-02-0.142D-02-0.631D-01-0.931D-01 0.319D+00
 Coeff:      0.832D+00
 Gap=     0.403 Goal=   None    Shift=    0.000
 RMSDP=6.25D-08 MaxDP=2.87D-06 DE=-4.90D-10 OVMax= 4.48D-06

 Cycle   8  Pass 1  IDiag  1:
 RMSU=  2.01D-08    CP:  1.00D+00  1.17D+00  9.31D-01  1.26D+00  1.10D+00
                    CP:  1.12D+00  9.48D-01
 FoFJK:  IHMeth= 1 ICntrl=     0 DoSepK=T KAlg= 1 I1Cent= 0 FoldK=F
 E= -2905.42312603865     Delta-E=       -0.000000000141 Rises=F Damp=F
 DIIS: error= 6.22D-08 at cycle   8 NSaved=   8.
 NSaved= 8 IEnMin= 8 EnMin= -2905.42312603865     IErMin= 8 ErrMin= 6.22D-08
 ErrMax= 6.22D-08 EMaxC= 1.00D-01 BMatC= 1.14D-12 BMatP= 1.45D-10
 IDIUse=1 WtCom= 1.00D+00 WtEn= 0.00D+00
 Coeff-Com: -0.523D-05 0.785D-03 0.271D-04-0.526D-02-0.129D-01-0.263D-02
 Coeff-Com:  0.412D-01 0.979D+00
 Coeff:     -0.523D-05 0.785D-03 0.271D-04-0.526D-02-0.129D-01-0.263D-02
 Coeff:      0.412D-01 0.979D+00
 Gap=     0.403 Goal=   None    Shift=    0.000
 RMSDP=1.23D-08 MaxDP=3.46D-07 DE=-1.41D-10 OVMax= 1.06D-06

 Cycle   9  Pass 1  IDiag  1:
 RMSU=  3.66D-09    CP:  1.00D+00  1.17D+00  9.31D-01  1.26D+00  1.10D+00
                    CP:  1.12D+00  9.96D-01  1.26D+00
 FoFJK:  IHMeth= 1 ICntrl=     0 DoSepK=T KAlg= 1 I1Cent= 0 FoldK=F
 E= -2905.42312603866     Delta-E=       -0.000000000012 Rises=F Damp=F
 DIIS: error= 2.74D-08 at cycle   9 NSaved=   9.
 NSaved= 9 IEnMin= 9 EnMin= -2905.42312603866     IErMin= 9 ErrMin= 2.74D-08
 ErrMax= 2.74D-08 EMaxC= 1.00D-01 BMatC= 1.51D-13 BMatP= 1.14D-12
 IDIUse=1 WtCom= 1.00D+00 WtEn= 0.00D+00
 Coeff-Com:  0.228D-05-0.596D-03 0.121D-03 0.550D-02 0.753D-02-0.315D-01
 Coeff-Com: -0.773D-01 0.102D+00 0.994D+00
 Coeff:      0.228D-05-0.596D-03 0.121D-03 0.550D-02 0.753D-02-0.315D-01
 Coeff:     -0.773D-01 0.102D+00 0.994D+00
 Gap=     0.403 Goal=   None    Shift=    0.000
 RMSDP=5.30D-09 MaxDP=1.28D-07 DE=-1.18D-11 OVMax= 5.20D-07

 SCF Done:  E(RwB97XD) =  -2905.42312604     A.U. after    9 cycles
             Convg  =    0.5301D-08             -V/T =  2.0015
 KE= 2.900930730250D+03 PE=-7.220451863965D+03 EE= 1.272569161306D+03
 Leave Link  502 at Thu Apr 16 14:10:53 2020, MaxMem= 1073741824 cpu:     203.7
 (Enter /home/matheus/.gaussian/g09/l108.exe)
 Variable Step   Value    
 -------- ---- -----------
     1       4    6.425069
 Leave Link  108 at Thu Apr 16 14:10:53 2020, MaxMem= 1073741824 cpu:       0.0
 (Enter /home/matheus/.gaussian/g09/l202.exe)
 ---------------------------------------------------------------------------------------------------
                            Z-MATRIX (ANGSTROMS AND DEGREES)
   CD    Cent   Atom    N1       Length/X        N2       Alpha/Y        N3        Beta/Z          J
 ---------------------------------------------------------------------------------------------------
      1      1  O        0   0.000000          0.000000          0.725000
      2      2  O        0   0.000000          0.000000         -0.725000
      3      3  H        0  -0.159534          0.904763          1.023510
      4      4  H        0   0.000000          0.918721         -1.023510
      5      5  Kr       0   0.000000          3.400000          0.000000
 ---------------------------------------------------------------------------------------------------
                         Z-Matrix orientation:                         
 ---------------------------------------------------------------------
 Center     Atomic      Atomic             Coordinates (Angstroms)
 Number     Number       Type             X           Y           Z
 ---------------------------------------------------------------------
      1          8           0        0.000000    0.000000    0.725000
      2          8           0        0.000000    0.000000   -0.725000
      3          1           0       -0.159534    0.904763    1.023510
      4          1           0        0.000000    0.918721   -1.023510
      5         36           0        0.000000    3.400000    0.000000
 ---------------------------------------------------------------------
                    Distance matrix (angstroms):
[...]
 IDIUse=1 WtCom= 1.00D+00 WtEn= 0.00D+00
 Coeff-Com:  0.691D-02 0.993D+00
 Coeff:      0.691D-02 0.993D+00
 Gap=     0.400 Goal=   None    Shift=    0.000
 RMSDP=1.93D-06 MaxDP=5.76D-05 DE=-1.47D-06 OVMax= 1.36D-04

 Cycle   3  Pass 1  IDiag  1:
 RMSU=  1.04D-06    CP:  1.00D+00  1.08D+00
 FoFJK:  IHMeth= 1 ICntrl=     0 DoSepK=T KAlg= 1 I1Cent= 0 FoldK=F
 E= -2905.42315694215     Delta-E=       -0.000000066151 Rises=F Damp=F
 DIIS: error= 9.28D-06 at cycle   3 NSaved=   3.
 NSaved= 3 IEnMin= 3 EnMin= -2905.42315694215     IErMin= 3 ErrMin= 9.28D-06
 ErrMax= 9.28D-06 EMaxC= 1.00D-01 BMatC= 1.01D-08 BMatP= 5.89D-08
 IDIUse=1 WtCom= 1.00D+00 WtEn= 0.00D+00
 Coeff-Com: -0.743D-02 0.265D+00 0.743D+00
 Coeff:     -0.743D-02 0.265D+00 0.743D+00
 Gap=     0.400 Goal=   None    Shift=    0.000
 RMSDP=3.90D-07 MaxDP=1.41D-05 DE=-6.62D-08 OVMax= 4.58D-05

 Cycle   4  Pass 1  IDiag  1:
 RMSU=  2.53D-07    CP:  1.00D+00  1.09D+00  9.91D-01
 FoFJK:  IHMeth= 1 ICntrl=     0 DoSepK=T KAlg= 1 I1Cent= 0 FoldK=F
 E= -2905.42315695232     Delta-E=       -0.000000010178 Rises=F Damp=F
 DIIS: error= 1.35D-06 at cycle   4 NSaved=   4.
 NSaved= 4 IEnMin= 4 EnMin= -2905.42315695232     IErMin= 4 ErrMin= 1.35D-06
 ErrMax= 1.35D-06 EMaxC= 1.00D-01 BMatC= 3.36D-10 BMatP= 1.01D-08
 IDIUse=1 WtCom= 1.00D+00 WtEn= 0.00D+00
 Coeff-Com: -0.138D-03-0.517D-01-0.192D-01 0.107D+01
 Coeff:     -0.138D-03-0.517D-01-0.192D-01 0.107D+01
 Gap=     0.400 Goal=   None    Shift=    0.000
 RMSDP=2.25D-07 MaxDP=1.09D-05 DE=-1.02D-08 OVMax= 1.96D-05

 Cycle   5  Pass 1  IDiag  1:
 RMSU=  7.26D-08    CP:  1.00D+00  1.09D+00  1.10D+00  1.33D+00
 FoFJK:  IHMeth= 1 ICntrl=     0 DoSepK=T KAlg= 1 I1Cent= 0 FoldK=F
 E= -2905.42315695301     Delta-E=       -0.000000000681 Rises=F Damp=F
 DIIS: error= 9.58D-07 at cycle   5 NSaved=   5.
 NSaved= 5 IEnMin= 5 EnMin= -2905.42315695301     IErMin= 5 ErrMin= 9.58D-07
 ErrMax= 9.58D-07 EMaxC= 1.00D-01 BMatC= 1.13D-10 BMatP= 3.36D-10
 IDIUse=1 WtCom= 1.00D+00 WtEn= 0.00D+00
 Coeff-Com:  0.557D-03-0.437D-01-0.702D-01 0.456D+00 0.657D+00
 Coeff:      0.557D-03-0.437D-01-0.702D-01 0.456D+00 0.657D+00
 Gap=     0.400 Goal=   None    Shift=    0.000
 RMSDP=5.13D-08 MaxDP=2.57D-06 DE=-6.81D-10 OVMax= 4.29D-06

 Cycle   6  Pass 1  IDiag  1:
 RMSU=  2.35D-08    CP:  1.00D+00  1.09D+00  1.11D+00  1.42D+00  9.12D-01
 FoFJK:  IHMeth= 1 ICntrl=     0 DoSepK=T KAlg= 1 I1Cent= 0 FoldK=F
 E= -2905.42315695312     Delta-E=       -0.000000000112 Rises=F Damp=F
 DIIS: error= 1.19D-07 at cycle   6 NSaved=   6.
 NSaved= 6 IEnMin= 6 EnMin= -2905.42315695312     IErMin= 6 ErrMin= 1.19D-07
 ErrMax= 1.19D-07 EMaxC= 1.00D-01 BMatC= 2.32D-12 BMatP= 1.13D-10
 IDIUse=1 WtCom= 1.00D+00 WtEn= 0.00D+00
 Coeff-Com:  0.303D-04 0.371D-02-0.966D-03-0.782D-01 0.191D-01 0.106D+01
 Coeff:      0.303D-04 0.371D-02-0.966D-03-0.782D-01 0.191D-01 0.106D+01
 Gap=     0.400 Goal=   None    Shift=    0.000
 RMSDP=2.12D-08 MaxDP=1.12D-06 DE=-1.12D-10 OVMax= 1.79D-06

 Cycle   7  Pass 1  IDiag  1:
 RMSU=  4.31D-09    CP:  1.00D+00  1.09D+00  1.12D+00  1.45D+00  1.01D+00
                    CP:  1.25D+00
 FoFJK:  IHMeth= 1 ICntrl=     0 DoSepK=T KAlg= 1 I1Cent= 0 FoldK=F
 E= -2905.42315695311     Delta-E=        0.000000000005 Rises=F Damp=F
 DIIS: error= 5.83D-08 at cycle   7 NSaved=   7.
 NSaved= 7 IEnMin= 6 EnMin= -2905.42315695312     IErMin= 7 ErrMin= 5.83D-08
 ErrMax= 5.83D-08 EMaxC= 1.00D-01 BMatC= 4.79D-13 BMatP= 2.32D-12
 IDIUse=1 WtCom= 1.00D+00 WtEn= 0.00D+00
 Coeff-Com: -0.157D-04 0.381D-02 0.298D-02-0.560D-01-0.245D-01 0.445D+00
 Coeff-Com:  0.629D+00
 Coeff:     -0.157D-04 0.381D-02 0.298D-02-0.560D-01-0.245D-01 0.445D+00
 Coeff:      0.629D+00
 Gap=     0.400 Goal=   None    Shift=    0.000
 RMSDP=3.16D-09 MaxDP=1.46D-07 DE= 5.46D-12 OVMax= 2.20D-07

 SCF Done:  E(RwB97XD) =  -2905.42315695     A.U. after    7 cycles
             Convg  =    0.3156D-08             -V/T =  2.0015
 KE= 2.900949047710D+03 PE=-7.152943474163D+03 EE= 1.239120509175D+03
 Leave Link  502 at Thu Apr 16 14:16:49 2020, MaxMem= 1073741824 cpu:     127.9
 (Enter /home/matheus/.gaussian/g09/l108.exe)
 Variable Step   Value    
 -------- ---- -----------
     1      20    9.448631
 Leave Link  108 at Thu Apr 16 14:16:49 2020, MaxMem= 1073741824 cpu:       0.0
 (Enter /home/matheus/.gaussian/g09/l202.exe)
 ---------------------------------------------------------------------------------------------------
                            Z-MATRIX (ANGSTROMS AND DEGREES)
   CD    Cent   Atom    N1       Length/X        N2       Alpha/Y        N3        Beta/Z          J
 ---------------------------------------------------------------------------------------------------
      1      1  O        0   0.000000          0.000000          0.725000
      2      2  O        0   0.000000          0.000000         -0.725000
      3      3  H        0  -0.159534          0.904763          1.023510
      4      4  H        0   0.000000          0.918721         -1.023510
      5      5  Kr       0   0.000000          5.000000          0.000000
 ---------------------------------------------------------------------------------------------------
                         Z-Matrix orientation:                         
 ---------------------------------------------------------------------
 Center     Atomic      Atomic             Coordinates (Angstroms)
 Number     Number       Type             X           Y           Z
 ---------------------------------------------------------------------
      1          8           0        0.000000    0.000000    0.725000
      2          8           0        0.000000    0.000000   -0.725000
      3          1           0       -0.159534    0.904763    1.023510
      4          1           0        0.000000    0.918721   -1.023510
      5         36           0        0.000000    5.000000    0.000000
 ---------------------------------------------------------------------
                    Distance matrix (angstroms):
                    1          2          3          4          5
     1  O    0.000000
     2  O    1.450000   0.000000
     3  H    0.966000   1.975180   0.000000
     4  H    1.975180   0.966000   2.053275   0.000000
     5  Kr   5.052289   5.052289   4.224215   4.207661   0.000000
 Stoichiometry    H2KrO2
 Framework group  C1[X(H2KrO2)]
 Deg. of freedom     9
 Full point group                 C1      NOp   1
 RotChk:  IX=0 Diff= 2.65D-05
 Largest Abelian subgroup         C1      NOp   1
 Largest concise Abelian subgroup C1      NOp   1
                         Standard orientation:                         
 ---------------------------------------------------------------------
 Center     Atomic      Atomic             Coordinates (Angstroms)
 Number     Number       Type             X           Y           Z
 ---------------------------------------------------------------------
      1          8           0       -3.367132   -0.724620   -0.018811
      2          8           0       -3.367057    0.725204    0.003769
      3          1           0       -2.462602   -1.025644    0.137283
      4          1           0       -2.448321    1.023611    0.009663
      5         36           0        1.632901   -0.000073   -0.000739
 ---------------------------------------------------------------------
 Rotational constants (GHZ):     26.6672245      0.8514319      0.8251523
 Leave Link  202 at Thu Apr 16 14:16:49 2020, MaxMem= 1073741824 cpu:       0.0
 (Enter /home/matheus/.gaussian/g09/l301.exe)
 Standard basis: Aug-CC-pVTZ (5D, 7F)
 Ernie: Thresh=  0.10000D-02 Tol=  0.10000D-05 Strict=F.
 Ernie:  38 primitive shells out of 205 were deleted.
 There are   197 symmetry adapted basis functions of A   symmetry.
 Integral buffers will be    131072 words long.
 Raffenetti 2 integral format.
 Two-electron integral symmetry is turned on.
   197 basis functions,   415 primitive gaussians,   229 cartesian basis functions
    27 alpha electrons       27 beta electrons
       nuclear repulsion energy       106.0336057185 Hartrees.
 IExCor= 4639 DFT=T Ex+Corr=wB97XD ExCW=0 ScaHFX=  1.000000
 ScaDFX=  1.000000  1.000000  1.000000  1.000000 ScalE2=  1.000000  1.000000
 IRadAn=      5 IRanWt=     -1 IRanGd=            0 ICorTp=0
  HFx wShort=  0.000000 wLong=  0.250000 cFull=  0.222036 cShort=  0.000000 cLong=  0.777964
  DFx wShort=  0.000000 wLong=  0.250000 cFull=  0.000000 cShort=  0.000000 cLong=  1.000000
 NAtoms=    5 NActive=    5 NUniq=    5 SFac= 1.00D+00 NAtFMM=   60 NAOKFM=F Big=F
 R6Disp: Dispersion energy =        -0.0005208458 Hartrees.
 Nuclear repulsion after empirical dispersion term =      106.0330848727 Hartrees.
 Leave Link  301 at Thu Apr 16 14:16:49 2020, MaxMem= 1073741824 cpu:       0.2
 (Enter /home/matheus/.gaussian/g09/l302.exe)
 NPDir=0 NMtPBC=     1 NCelOv=     1 NCel=       1 NClECP=     1 NCelD=      1
         NCelK=      1 NCelE2=     1 NClLst=     1 CellRange=     0.0.
 One-electron integrals computed using PRISM.
 NBasis=   197 RedAO= T  NBF=   197
 NBsUse=   197 1.00D-06 NBFU=   197
 Precomputing XC quadrature grid using
 IXCGrd= 2 IRadAn=           5 IRanWt=          -1 IRanGd=           0 AccXCQ= 0.00D+00.
 NRdTot=     427 NPtTot=      123814 NUsed=      126881 NTot=      126913
 NSgBfM=   228   228   229   229   229 NAtAll=     5     5.
 Leave Link  302 at Thu Apr 16 14:16:49 2020, MaxMem= 1073741824 cpu:       1.0
 (Enter /home/matheus/.gaussian/g09/l303.exe)
 DipDrv:  MaxL=1.
 Leave Link  303 at Thu Apr 16 14:16:49 2020, MaxMem= 1073741824 cpu:       0.2
 (Enter /home/matheus/.gaussian/g09/l401.exe)
 Initial guess read from the read-write file.
 B after Tr=     0.000000    0.000000    0.000000
         Rot=    1.000000    0.000000    0.000000    0.000000 Ang=   0.00 deg.
 Guess basis will be translated and rotated to current coordinates.
 Initial guess orbital symmetries:
       Occupied  (A) (A) (A) (A) (A) (A) (A) (A) (A) (A) (A) (A)
                 (A) (A) (A) (A) (A) (A) (A) (A) (A) (A) (A) (A)
                 (A) (A) (A)
       Virtual   (A) (A) (A) (A) (A) (A) (A) (A) (A) (A) (A) (A)
                 (A) (A) (A) (A) (A) (A) (A) (A) (A) (A) (A) (A)
                 (A) (A) (A) (A) (A) (A) (A) (A) (A) (A) (A) (A)
                 (A) (A) (A) (A) (A) (A) (A) (A) (A) (A) (A) (A)
                 (A) (A) (A) (A) (A) (A) (A) (A) (A) (A) (A) (A)
                 (A) (A) (A) (A) (A) (A) (A) (A) (A) (A) (A) (A)
                 (A) (A) (A) (A) (A) (A) (A) (A) (A) (A) (A) (A)
                 (A) (A) (A) (A) (A) (A) (A) (A) (A) (A) (A) (A)
                 (A) (A) (A) (A) (A) (A) (A) (A) (A) (A) (A) (A)
                 (A) (A) (A) (A) (A) (A) (A) (A) (A) (A) (A) (A)
                 (A) (A) (A) (A) (A) (A) (A) (A) (A) (A) (A) (A)
                 (A) (A) (A) (A) (A) (A) (A) (A) (A) (A) (A) (A)
                 (A) (A) (A) (A) (A) (A) (A) (A) (A) (A) (A) (A)
                 (A) (A) (A) (A) (A) (A) (A) (A) (A) (A) (A) (A)
                 (A) (A)
 The electronic state of the initial guess is 1-A.
 Generating alternative initial guess.
 Harris functional with IExCor= 4639 diagonalized for initial guess.
 ExpMin= 2.53D-02 ExpMax= 1.17D+07 ExpMxC= 1.33D+04 IAcc=3 IRadAn=         5 AccDes= 0.00D+00
 HarFok:  IExCor= 4639 AccDes= 0.00D+00 IRadAn=         5 IDoV= 1
 ScaDFX=  1.000000  1.000000  1.000000  1.000000
 FoFCou: FMM=F IPFlag=           0 FMFlag=      100000 FMFlg1=           0
         NFxFlg=           0 DoJE=T BraDBF=F KetDBF=T FulRan=T
         Omega=  0.000000  0.000000  1.000000  0.000000  0.000000 ICntrl=     500 IOpCl=  0
         NMat0=    1 NMatS0=    1 NMatT0=    0 NMatD0=    1 NMtDS0=    0 NMtDT0=    0
         I1Cent=           4 NGrid=           0.
 Petite list used in FoFCou.
 Harris En= -2875.40091434718    
 Leave Link  401 at Thu Apr 16 14:16:49 2020, MaxMem= 1073741824 cpu:       3.8
 (Enter /home/matheus/.gaussian/g09/l502.exe)
 Closed shell SCF:
 Requested convergence on RMS density matrix=1.00D-08 within 128 cycles.
 Requested convergence on MAX density matrix=1.00D-06.
 Requested convergence on             energy=1.00D-06.
 No special actions if energy rises.
 Using DIIS extrapolation, IDIIS=  1040.
 Integral symmetry usage will be decided dynamically.
       126823 words used for storage of precomputed grid.
 IEnd=      305770 IEndB=      305770 NGot=  1073741824 MDV=  1073505365
 LenX=  1073505365 LenY=  1073452483
 Fock matrices will be formed incrementally for  20 cycles.

 Cycle   1  Pass 1  IDiag  1:
 FoFJK:  IHMeth= 1 ICntrl=     0 DoSepK=T KAlg= 1 I1Cent= 0 FoldK=F
 FoFCou: FMM=F IPFlag=           0 FMFlag=      100000 FMFlg1=           0
         NFxFlg=           0 DoJE=T BraDBF=F KetDBF=F FulRan=T
         Omega=  0.000000  0.000000  1.000000  0.000000  0.000000 ICntrl=     500 IOpCl=  0
         NMat0=    1 NMatS0=    1 NMatT0=    0 NMatD0=    1 NMtDS0=    0 NMtDT0=    0
         I1Cent=           0 NGrid=           0.
 Symmetry not used in FoFCou.
 E= -2905.42308506601    
 DIIS: error= 1.25D-04 at cycle   1 NSaved=   1.
 NSaved= 1 IEnMin= 1 EnMin= -2905.42308506601     IErMin= 1 ErrMin= 1.25D-04
 ErrMax= 1.25D-04 EMaxC= 1.00D-01 BMatC= 4.00D-06 BMatP= 4.00D-06
 IDIUse=3 WtCom= 9.99D-01 WtEn= 1.25D-03
 Coeff-Com:  0.100D+01
 Coeff-En:   0.100D+01
 Coeff:      0.100D+01
 Gap=     0.400 Goal=   None    Shift=    0.000
 RMSDP=1.32D-05 MaxDP=2.76D-04              OVMax= 5.79D-04

 Cycle   2  Pass 1  IDiag  1:
 RMSU=  9.29D-06    CP:  1.00D+00
 FoFJK:  IHMeth= 1 ICntrl=     0 DoSepK=T KAlg= 1 I1Cent= 0 FoldK=F
 E= -2905.42308629053     Delta-E=       -0.000001224523 Rises=F Damp=F
 DIIS: error= 2.66D-05 at cycle   2 NSaved=   2.
 NSaved= 2 IEnMin= 2 EnMin= -2905.42308629053     IErMin= 2 ErrMin= 2.66D-05
 ErrMax= 2.66D-05 EMaxC= 1.00D-01 BMatC= 4.96D-08 BMatP= 4.00D-06
 IDIUse=1 WtCom= 1.00D+00 WtEn= 0.00D+00
 Coeff-Com:  0.739D-02 0.993D+00
 Coeff:      0.739D-02 0.993D+00
 Gap=     0.400 Goal=   None    Shift=    0.000
 RMSDP=1.70D-06 MaxDP=4.93D-05 DE=-1.22D-06 OVMax= 1.24D-04

 Cycle   3  Pass 1  IDiag  1:
 RMSU=  9.75D-07    CP:  1.00D+00  1.08D+00
 FoFJK:  IHMeth= 1 ICntrl=     0 DoSepK=T KAlg= 1 I1Cent= 0 FoldK=F
 E= -2905.42308634510     Delta-E=       -0.000000054565 Rises=F Damp=F
 DIIS: error= 9.95D-06 at cycle   3 NSaved=   3.
 NSaved= 3 IEnMin= 3 EnMin= -2905.42308634510     IErMin= 3 ErrMin= 9.95D-06
 ErrMax= 9.95D-06 EMaxC= 1.00D-01 BMatC= 8.58D-09 BMatP= 4.96D-08
 IDIUse=1 WtCom= 1.00D+00 WtEn= 0.00D+00
 Coeff-Com: -0.701D-02 0.267D+00 0.740D+00
 Coeff:     -0.701D-02 0.267D+00 0.740D+00
 Gap=     0.400 Goal=   None    Shift=    0.000
 RMSDP=3.57D-07 MaxDP=1.24D-05 DE=-5.46D-08 OVMax= 4.13D-05

 Cycle   4  Pass 1  IDiag  1:
 RMSU=  2.33D-07    CP:  1.00D+00  1.09D+00  9.94D-01
 FoFJK:  IHMeth= 1 ICntrl=     0 DoSepK=T KAlg= 1 I1Cent= 0 FoldK=F
 E= -2905.42308635360     Delta-E=       -0.000000008502 Rises=F Damp=F
 DIIS: error= 1.55D-06 at cycle   4 NSaved=   4.
 NSaved= 4 IEnMin= 4 EnMin= -2905.42308635360     IErMin= 4 ErrMin= 1.55D-06
 ErrMax= 1.55D-06 EMaxC= 1.00D-01 BMatC= 2.76D-10 BMatP= 8.58D-09
 IDIUse=1 WtCom= 1.00D+00 WtEn= 0.00D+00
 Coeff-Com: -0.228D-03-0.468D-01-0.109D-01 0.106D+01
 Coeff:     -0.228D-03-0.468D-01-0.109D-01 0.106D+01
 Gap=     0.400 Goal=   None    Shift=    0.000
 RMSDP=2.10D-07 MaxDP=9.62D-06 DE=-8.50D-09 OVMax= 1.73D-05

 Cycle   5  Pass 1  IDiag  1:
 RMSU=  6.78D-08    CP:  1.00D+00  1.09D+00  1.10D+00  1.34D+00
 FoFJK:  IHMeth= 1 ICntrl=     0 DoSepK=T KAlg= 1 I1Cent= 0 FoldK=F
 E= -2905.42308635415     Delta-E=       -0.000000000553 Rises=F Damp=F
 DIIS: error= 8.72D-07 at cycle   5 NSaved=   5.
 NSaved= 5 IEnMin= 5 EnMin= -2905.42308635415     IErMin= 5 ErrMin= 8.72D-07
 ErrMax= 8.72D-07 EMaxC= 1.00D-01 BMatC= 9.62D-11 BMatP= 2.76D-10
 IDIUse=1 WtCom= 1.00D+00 WtEn= 0.00D+00
 Coeff-Com:  0.522D-03-0.434D-01-0.702D-01 0.452D+00 0.661D+00
 Coeff:      0.522D-03-0.434D-01-0.702D-01 0.452D+00 0.661D+00
 Gap=     0.400 Goal=   None    Shift=    0.000
 RMSDP=4.82D-08 MaxDP=2.44D-06 DE=-5.53D-10 OVMax= 4.01D-06

 Cycle   6  Pass 1  IDiag  1:
 RMSU=  2.26D-08    CP:  1.00D+00  1.09D+00  1.12D+00  1.42D+00  9.37D-01
 FoFJK:  IHMeth= 1 ICntrl=     0 DoSepK=T KAlg= 1 I1Cent= 0 FoldK=F
 E= -2905.42308635423     Delta-E=       -0.000000000084 Rises=F Damp=F
 DIIS: error= 9.38D-08 at cycle   6 NSaved=   6.
 NSaved= 6 IEnMin= 6 EnMin= -2905.42308635423     IErMin= 6 ErrMin= 9.38D-08
 ErrMax= 9.38D-08 EMaxC= 1.00D-01 BMatC= 2.01D-12 BMatP= 9.62D-11
 IDIUse=1 WtCom= 1.00D+00 WtEn= 0.00D+00
 Coeff-Com:  0.444D-04 0.231D-02-0.282D-02-0.638D-01 0.300D-01 0.103D+01
 Coeff:      0.444D-04 0.231D-02-0.282D-02-0.638D-01 0.300D-01 0.103D+01
 Gap=     0.400 Goal=   None    Shift=    0.000
 RMSDP=1.92D-08 MaxDP=1.03D-06 DE=-8.37D-11 OVMax= 1.60D-06

 Cycle   7  Pass 1  IDiag  1:
 RMSU=  4.23D-09    CP:  1.00D+00  1.09D+00  1.12D+00  1.45D+00  1.04D+00
                    CP:  1.26D+00
 FoFJK:  IHMeth= 1 ICntrl=     0 DoSepK=T KAlg= 1 I1Cent= 0 FoldK=F
 E= -2905.42308635423     Delta-E=        0.000000000000 Rises=F Damp=F
 DIIS: error= 7.30D-08 at cycle   7 NSaved=   7.
 NSaved= 7 IEnMin= 6 EnMin= -2905.42308635423     IErMin= 7 ErrMin= 7.30D-08
 ErrMax= 7.30D-08 EMaxC= 1.00D-01 BMatC= 6.58D-13 BMatP= 2.01D-12
 IDIUse=1 WtCom= 1.00D+00 WtEn= 0.00D+00
 Coeff-Com: -0.127D-04 0.392D-02 0.300D-02-0.594D-01-0.275D-01 0.492D+00
 Coeff-Com:  0.588D+00
 Coeff:     -0.127D-04 0.392D-02 0.300D-02-0.594D-01-0.275D-01 0.492D+00
 Coeff:      0.588D+00
 Gap=     0.400 Goal=   None    Shift=    0.000
 RMSDP=3.40D-09 MaxDP=1.56D-07 DE= 0.00D+00 OVMax= 2.30D-07

 SCF Done:  E(RwB97XD) =  -2905.42308635     A.U. after    7 cycles
             Convg  =    0.3398D-08             -V/T =  2.0015
 KE= 2.900949621340D+03 PE=-7.150131676426D+03 EE= 1.237725883858D+03
 Leave Link  502 at Thu Apr 16 14:17:05 2020, MaxMem= 1073741824 cpu:     126.0
 (Enter /home/matheus/.gaussian/g09/l108.exe)
 Scan completed.

 Summary of the potential surface scan:
   N      R1          SCF    
 ----  ---------  -----------
    1     3.0000  -2905.41764
    2     3.1000  -2905.42027
    3     3.2000  -2905.42200
    4     3.3000  -2905.42313
    5     3.4000  -2905.42381
    6     3.5000  -2905.42420
    7     3.6000  -2905.42438
    8     3.7000  -2905.42443
    9     3.8000  -2905.42440
   10     3.9000  -2905.42430
   11     4.0000  -2905.42418
   12     4.1000  -2905.42405
   13     4.2000  -2905.42391
   14     4.3000  -2905.42378
   15     4.4000  -2905.42365
   16     4.5000  -2905.42353
   17     4.6000  -2905.42342
   18     4.7000  -2905.42332
   19     4.8000  -2905.42324
   20     4.9000  -2905.42316
   21     5.0000  -2905.42309
 ----  ---------  -----------
  
 Leave Link  108 at Thu Apr 16 14:17:05 2020, MaxMem= 1073741824 cpu:       0.0
 (Enter /home/matheus/.gaussian/g09/l9999.exe)

 Test job not archived.
 1\1\GINC-REDGIANT\Scan\RwB97XD\Aug-CC-pVTZ\H2Kr1O2\ROOT\16-Apr-2020\1\
 \#p wb97xd/aug-cc-PVTz iop(3/107=0250000000) iop(3/108=0250000000) int
 =ultrafine Scan\\TCC\\0,1\O,0,0.,0.,0.725\O,0,0.,0.,-0.725\H,0,-0.1595
 341571,0.9047631646,1.0235104166\H,0,0.,0.9187205947,-1.0235104166\Kr,
 0,0.,R1,0.\\R1=3.,s,20,0.1\\Version=EM64L-G09RevC.01\State=1-A\HF=-290
 5.417641,-2905.4202658,-2905.4220044,-2905.423126,-2905.4238108,-2905.
 4241993,-2905.4243806,-2905.4244297,-2905.4243959,-2905.4243048,-2905.
 4241845,-2905.4240506,-2905.4239136,-2905.4237752,-2905.4236502,-2905.
 4235319,-2905.4234221,-2905.423324,-2905.4232366,-2905.423157,-2905.42
 30864\RMSD=4.416e-09,9.204e-09,7.209e-09,5.301e-09,3.821e-09,3.234e-09
 ,9.547e-09,8.251e-09,7.168e-09,6.336e-09,5.351e-09,4.611e-09,3.869e-09
 ,3.105e-09,2.384e-09,1.964e-09,7.470e-09,9.075e-09,4.213e-09,3.156e-09
 ,3.398e-09\PG=C01 [X(H2Kr1O2)]\\@


 THOSE WHO ARE UNABLE TO LEARN FROM PAST MEETINGS
 ARE CONDEMNED TO REPEAT THEM.
 Job cpu time:  0 days  1 hours  4 minutes 59.2 seconds.
 File lengths (MBytes):  RWF=     27 Int=      0 D2E=      0 Chk=      4 Scr=      1
 Normal termination of Gaussian 09 at Thu Apr 16 14:17:05 2020.
