 Entering Gaussian System, Link 0=g09
 Input=/home/matheus/.tcc/Inputs-wb97xd/H2O2-Kr_5.com
 Output=/home/matheus/.tcc/Logs-wb97xd/H2O2-Kr_5.log
 Initial command:
 /home/matheus/.gaussian/g09/l1.exe /home/matheus/.gaussian/g09/scratch/Gau-24376.inp -scrdir=/home/matheus/.gaussian/g09/scratch/
 Entering Link 1 = /home/matheus/.gaussian/g09/l1.exe PID=     24379.
  
 Copyright (c) 1988,1990,1992,1993,1995,1998,2003,2009,2011,
            Gaussian, Inc.  All Rights Reserved.
  
 This is part of the Gaussian(R) 09 program.  It is based on
 the Gaussian(R) 03 system (copyright 2003, Gaussian, Inc.),
 the Gaussian(R) 98 system (copyright 1998, Gaussian, Inc.),
 the Gaussian(R) 94 system (copyright 1995, Gaussian, Inc.),
 the Gaussian 92(TM) system (copyright 1992, Gaussian, Inc.),
 the Gaussian 90(TM) system (copyright 1990, Gaussian, Inc.),
 the Gaussian 88(TM) system (copyright 1988, Gaussian, Inc.),
 the Gaussian 86(TM) system (copyright 1986, Carnegie Mellon
 University), and the Gaussian 82(TM) system (copyright 1983,
 Carnegie Mellon University). Gaussian is a federally registered
 trademark of Gaussian, Inc.
  
 This software contains proprietary and confidential information,
 including trade secrets, belonging to Gaussian, Inc.
  
 This software is provided under written license and may be
 used, copied, transmitted, or stored only in accord with that
 written license.
  
 The following legend is applicable only to US Government
 contracts under FAR:
  
                    RESTRICTED RIGHTS LEGEND
  
 Use, reproduction and disclosure by the US Government is
 subject to restrictions as set forth in subparagraphs (a)
 and (c) of the Commercial Computer Software - Restricted
 Rights clause in FAR 52.227-19.
  
 Gaussian, Inc.
 340 Quinnipiac St., Bldg. 40, Wallingford CT 06492
  
  
 ---------------------------------------------------------------
 Warning -- This program may not be used in any manner that
 competes with the business of Gaussian, Inc. or will provide
 assistance to any competitor of Gaussian, Inc.  The licensee
 of this program is prohibited from giving any competitor of
 Gaussian, Inc. access to this program.  By using this program,
 the user acknowledges that Gaussian, Inc. is engaged in the
 business of creating and licensing software in the field of
 computational chemistry and represents and warrants to the
 licensee that it is not a competitor of Gaussian, Inc. and that
 it will not use this program in any manner prohibited above.
 ---------------------------------------------------------------
  

 Cite this work as:
 Gaussian 09, Revision C.01,
 M. J. Frisch, G. W. Trucks, H. B. Schlegel, G. E. Scuseria, 
 M. A. Robb, J. R. Cheeseman, G. Scalmani, V. Barone, B. Mennucci, 
 G. A. Petersson, H. Nakatsuji, M. Caricato, X. Li, H. P. Hratchian, 
 A. F. Izmaylov, J. Bloino, G. Zheng, J. L. Sonnenberg, M. Hada, 
 M. Ehara, K. Toyota, R. Fukuda, J. Hasegawa, M. Ishida, T. Nakajima, 
 Y. Honda, O. Kitao, H. Nakai, T. Vreven, J. A. Montgomery, Jr., 
 J. E. Peralta, F. Ogliaro, M. Bearpark, J. J. Heyd, E. Brothers, 
 K. N. Kudin, V. N. Staroverov, T. Keith, R. Kobayashi, J. Normand, 
 K. Raghavachari, A. Rendell, J. C. Burant, S. S. Iyengar, J. Tomasi, 
 M. Cossi, N. Rega, J. M. Millam, M. Klene, J. E. Knox, J. B. Cross, 
 V. Bakken, C. Adamo, J. Jaramillo, R. Gomperts, R. E. Stratmann, 
 O. Yazyev, A. J. Austin, R. Cammi, C. Pomelli, J. W. Ochterski, 
 R. L. Martin, K. Morokuma, V. G. Zakrzewski, G. A. Voth, 
 P. Salvador, J. J. Dannenberg, S. Dapprich, A. D. Daniels, 
 O. Farkas, J. B. Foresman, J. V. Ortiz, J. Cioslowski, 
 and D. J. Fox, Gaussian, Inc., Wallingford CT, 2010.
 
 ******************************************
 Gaussian 09:  EM64L-G09RevC.01 23-Sep-2011
                16-Apr-2020 
 ******************************************
 %mem=8GB
 %nproc=8
 Will use up to    8 processors via shared memory.
 ----------------------------------------------------------------------
 #p wb97xd/aug-cc-PVTz iop(3/107=0250000000) iop(3/108=0250000000) int=
 ultrafine Scan
 ----------------------------------------------------------------------
 1/38=1,60=1/1,8;
 2/12=2,17=6,18=5,29=3,40=1/2;
 3/5=16,6=1,7=10,11=2,16=1,25=1,30=1,74=-58,75=-5,107=250000000,108=250000000/1,2,3;
 4//1;
 5/5=2,38=5/2;
 6/7=2,8=2,9=2,10=2,18=1,28=1/1;
 1/60=1/8(1);
 99/9=1/99;
 2/29=3/2;
 3/5=16,6=1,7=10,11=2,16=1,25=1,30=1,74=-58,75=-5,107=250000000,108=250000000/1,2,3;
 4/5=5,16=3/1;
 5/5=2,38=5/2;
 1/60=1/8(-4);
 99/9=1/99;
 Leave Link    1 at Thu Apr 16 09:35:33 2020, MaxMem= 1073741824 cpu:       0.1
 (Enter /home/matheus/.gaussian/g09/l101.exe)
 ---
 TCC
 ---
 Charge =  0 Multiplicity = 1
 Symbolic Z-Matrix:
 O                     0.        0.        0.725 
 O                     0.        0.       -0.725 
 H                     0.70378   0.59054   1.02351 
 H                     0.        0.91872  -1.02351 
 Kr                    0.       R1        0. 
       Variables:
  R1                    3.     Scan 20    0.1    
 
 NAtoms=      5 NQM=        0 NQMF=       0 NMMI=      5 NMMIF=      0
                NMic=       0 NMicF=      0.
                    Isotopes and Nuclear Properties:
 (Nuclear quadrupole moments (NQMom) in fm**2, nuclear magnetic moments (NMagM)
  in nuclear magnetons)

  Atom         1           2           3           4           5
 IAtWgt=          16          16           1           1          84
 AtmWgt=  15.9949146  15.9949146   1.0078250   1.0078250  83.9115064
 NucSpn=           0           0           1           1           0
 AtZEff=   0.0000000   0.0000000   0.0000000   0.0000000   0.0000000
 NQMom=    0.0000000   0.0000000   0.0000000   0.0000000   0.0000000
 NMagM=    0.0000000   0.0000000   2.7928460   2.7928460   0.0000000
 Leave Link  101 at Thu Apr 16 09:35:33 2020, MaxMem= 1073741824 cpu:       0.3
 (Enter /home/matheus/.gaussian/g09/l108.exe)
 Scan the potential surface.
 Variable   Value     No. Steps Step-Size
 -------- ----------- --------- ---------
     1       3.000000      20      0.1000
 A total of     21 points will be computed.
 Leave Link  108 at Thu Apr 16 09:35:33 2020, MaxMem= 1073741824 cpu:       0.0
 (Enter /home/matheus/.gaussian/g09/l202.exe)
 ---------------------------------------------------------------------------------------------------
                            Z-MATRIX (ANGSTROMS AND DEGREES)
   CD    Cent   Atom    N1       Length/X        N2       Alpha/Y        N3        Beta/Z          J
 ---------------------------------------------------------------------------------------------------
      1      1  O        0   0.000000          0.000000          0.725000
      2      2  O        0   0.000000          0.000000         -0.725000
      3      3  H        0   0.703781          0.590542          1.023510
      4      4  H        0   0.000000          0.918721         -1.023510
      5      5  Kr       0   0.000000          3.000000          0.000000
 ---------------------------------------------------------------------------------------------------
                         Z-Matrix orientation:                         
 ---------------------------------------------------------------------
 Center     Atomic      Atomic             Coordinates (Angstroms)
 Number     Number       Type             X           Y           Z
 ---------------------------------------------------------------------
      1          8           0        0.000000    0.000000    0.725000
      2          8           0        0.000000    0.000000   -0.725000
      3          1           0        0.703781    0.590542    1.023510
      4          1           0        0.000000    0.918721   -1.023510
      5         36           0        0.000000    3.000000    0.000000
 ---------------------------------------------------------------------
                    Distance matrix (angstroms):
                    1          2          3          4          5
     1  O    0.000000
     2  O    1.450000   0.000000
     3  H    0.966000   1.975180   0.000000
     4  H    1.975180   0.966000   2.189361   0.000000
     5  Kr   3.086361   3.086361   2.710787   2.319331   0.000000
 Stoichiometry    H2KrO2
 Framework group  C1[X(H2KrO2)]
 Deg. of freedom     9
 Full point group                 C1      NOp   1
 Largest Abelian subgroup         C1      NOp   1
 Largest concise Abelian subgroup C1      NOp   1
                         Standard orientation:                         
 ---------------------------------------------------------------------
 Center     Atomic      Atomic             Coordinates (Angstroms)
 Number     Number       Type             X           Y           Z
 ---------------------------------------------------------------------
      1          8           0        2.030392   -0.713331   -0.083900
      2          8           0        2.025023    0.733004    0.018989
      3          1           0        1.447943   -1.063593    0.602558
      4          1           0        1.105248    1.026723    0.048985
      5         36           0       -0.972125   -0.003348   -0.003674
 ---------------------------------------------------------------------
 Rotational constants (GHZ):     26.0306695      2.3732907      2.1836508
 Leave Link  202 at Thu Apr 16 09:35:33 2020, MaxMem= 1073741824 cpu:       0.0
 (Enter /home/matheus/.gaussian/g09/l301.exe)
 Standard basis: Aug-CC-pVTZ (5D, 7F)
 Ernie: Thresh=  0.10000D-02 Tol=  0.10000D-05 Strict=F.
 Ernie:  38 primitive shells out of 205 were deleted.
 There are   197 symmetry adapted basis functions of A   symmetry.
 Integral buffers will be    131072 words long.
 Raffenetti 2 integral format.
 Two-electron integral symmetry is turned on.
   197 basis functions,   415 primitive gaussians,   229 cartesian basis functions
    27 alpha electrons       27 beta electrons
       nuclear repulsion energy       150.6503454741 Hartrees.
 IExCor= 4639 DFT=T Ex+Corr=wB97XD ExCW=0 ScaHFX=  1.000000
 ScaDFX=  1.000000  1.000000  1.000000  1.000000 ScalE2=  1.000000  1.000000
 IRadAn=      5 IRanWt=     -1 IRanGd=            0 ICorTp=0
  HFx wShort=  0.000000 wLong=  0.250000 cFull=  0.222036 cShort=  0.000000 cLong=  0.777964
  DFx wShort=  0.000000 wLong=  0.250000 cFull=  0.000000 cShort=  0.000000 cLong=  1.000000
 NAtoms=    5 NActive=    5 NUniq=    5 SFac= 1.00D+00 NAtFMM=   60 NAOKFM=F Big=F
 R6Disp: Dispersion energy =        -0.0008742328 Hartrees.
 Nuclear repulsion after empirical dispersion term =      150.6494712413 Hartrees.
 Leave Link  301 at Thu Apr 16 09:35:33 2020, MaxMem= 1073741824 cpu:       0.2
 (Enter /home/matheus/.gaussian/g09/l302.exe)
 NPDir=0 NMtPBC=     1 NCelOv=     1 NCel=       1 NClECP=     1 NCelD=      1
         NCelK=      1 NCelE2=     1 NClLst=     1 CellRange=     0.0.
 One-electron integrals computed using PRISM.
 NBasis=   197 RedAO= T  NBF=   197
 NBsUse=   197 1.00D-06 NBFU=   197
 Precomputing XC quadrature grid using
 IXCGrd= 2 IRadAn=           5 IRanWt=          -1 IRanGd=           0 AccXCQ= 0.00D+00.
 NRdTot=     427 NPtTot=      123512 NUsed=      126579 NTot=      126611
 NSgBfM=   229   229   229   229   229 NAtAll=     5     5.
 Leave Link  302 at Thu Apr 16 09:35:33 2020, MaxMem= 1073741824 cpu:       1.0
 (Enter /home/matheus/.gaussian/g09/l303.exe)
 DipDrv:  MaxL=1.
 Leave Link  303 at Thu Apr 16 09:35:33 2020, MaxMem= 1073741824 cpu:       0.2
 (Enter /home/matheus/.gaussian/g09/l401.exe)
 Harris functional with IExCor= 4639 diagonalized for initial guess.
 ExpMin= 2.53D-02 ExpMax= 1.17D+07 ExpMxC= 1.33D+04 IAcc=3 IRadAn=         5 AccDes= 0.00D+00
 HarFok:  IExCor= 4639 AccDes= 0.00D+00 IRadAn=         5 IDoV= 1
 ScaDFX=  1.000000  1.000000  1.000000  1.000000
 FoFCou: FMM=F IPFlag=           0 FMFlag=      100000 FMFlg1=           0
         NFxFlg=           0 DoJE=T BraDBF=F KetDBF=T FulRan=T
         Omega=  0.000000  0.000000  1.000000  0.000000  0.000000 ICntrl=     500 IOpCl=  0
         NMat0=    1 NMatS0=    1 NMatT0=    0 NMatD0=    1 NMtDS0=    0 NMtDT0=    0
         I1Cent=           4 NGrid=           0.
 Petite list used in FoFCou.
 Harris En= -2875.39335619556    
 Initial guess orbital symmetries:
       Occupied  (A) (A) (A) (A) (A) (A) (A) (A) (A) (A) (A) (A)
                 (A) (A) (A) (A) (A) (A) (A) (A) (A) (A) (A) (A)
                 (A) (A) (A)
       Virtual   (A) (A) (A) (A) (A) (A) (A) (A) (A) (A) (A) (A)
                 (A) (A) (A) (A) (A) (A) (A) (A) (A) (A) (A) (A)
                 (A) (A) (A) (A) (A) (A) (A) (A) (A) (A) (A) (A)
                 (A) (A) (A) (A) (A) (A) (A) (A) (A) (A) (A) (A)
                 (A) (A) (A) (A) (A) (A) (A) (A) (A) (A) (A) (A)
                 (A) (A) (A) (A) (A) (A) (A) (A) (A) (A) (A) (A)
                 (A) (A) (A) (A) (A) (A) (A) (A) (A) (A) (A) (A)
                 (A) (A) (A) (A) (A) (A) (A) (A) (A) (A) (A) (A)
                 (A) (A) (A) (A) (A) (A) (A) (A) (A) (A) (A) (A)
                 (A) (A) (A) (A) (A) (A) (A) (A) (A) (A) (A) (A)
                 (A) (A) (A) (A) (A) (A) (A) (A) (A) (A) (A) (A)
                 (A) (A) (A) (A) (A) (A) (A) (A) (A) (A) (A) (A)
                 (A) (A) (A) (A) (A) (A) (A) (A) (A) (A) (A) (A)
                 (A) (A) (A) (A) (A) (A) (A) (A) (A) (A) (A) (A)
                 (A) (A)
 The electronic state of the initial guess is 1-A.
 Leave Link  401 at Thu Apr 16 09:35:34 2020, MaxMem= 1073741824 cpu:       4.0
 (Enter /home/matheus/.gaussian/g09/l502.exe)
 Closed shell SCF:
 Requested convergence on RMS density matrix=1.00D-08 within 128 cycles.
 Requested convergence on MAX density matrix=1.00D-06.
 Requested convergence on             energy=1.00D-06.
 No special actions if energy rises.
 Using DIIS extrapolation, IDIIS=  1040.
 Integral symmetry usage will be decided dynamically.
       126521 words used for storage of precomputed grid.
 IEnd=      305468 IEndB=      305468 NGot=  1073741824 MDV=  1073505667
 LenX=  1073505667 LenY=  1073452785
 Fock matrices will be formed incrementally for  20 cycles.

 Cycle   1  Pass 1  IDiag  1:
 FoFJK:  IHMeth= 1 ICntrl=     0 DoSepK=T KAlg= 1 I1Cent= 0 FoldK=F
 FoFCou: FMM=F IPFlag=           0 FMFlag=      100000 FMFlg1=           0
         NFxFlg=           0 DoJE=T BraDBF=F KetDBF=F FulRan=T
         Omega=  0.000000  0.000000  1.000000  0.000000  0.000000 ICntrl=     500 IOpCl=  0
         NMat0=    1 NMatS0=    1 NMatT0=    0 NMatD0=    1 NMtDS0=    0 NMtDT0=    0
         I1Cent=           0 NGrid=           0.
 Symmetry not used in FoFCou.
 E= -2904.89648469972    
 DIIS: error= 7.61D-02 at cycle   1 NSaved=   1.
 NSaved= 1 IEnMin= 1 EnMin= -2904.89648469972     IErMin= 1 ErrMin= 7.61D-02
 ErrMax= 7.61D-02 EMaxC= 1.00D-01 BMatC= 2.23D+00 BMatP= 2.23D+00
 IDIUse=3 WtCom= 2.39D-01 WtEn= 7.61D-01
 Coeff-Com:  0.100D+01
 Coeff-En:   0.100D+01
 Coeff:      0.100D+01
 Gap=     0.536 Goal=   None    Shift=    0.000
 GapD=    0.536 DampG=2.000 DampE=0.500 DampFc=1.0000 IDamp=-1.
 RMSDP=6.20D-03 MaxDP=3.72D-01              OVMax= 1.82D-01

 Cycle   2  Pass 1  IDiag  1:
 RMSU=  4.36D-03    CP:  1.03D+00
 FoFJK:  IHMeth= 1 ICntrl=     0 DoSepK=T KAlg= 1 I1Cent= 0 FoldK=F
 E= -2905.22127430163     Delta-E=       -0.324789601904 Rises=F Damp=F
 DIIS: error= 3.12D-02 at cycle   2 NSaved=   2.
 NSaved= 2 IEnMin= 2 EnMin= -2905.22127430163     IErMin= 2 ErrMin= 3.12D-02
 ErrMax= 3.12D-02 EMaxC= 1.00D-01 BMatC= 5.64D-01 BMatP= 2.23D+00
 IDIUse=3 WtCom= 6.88D-01 WtEn= 3.12D-01
 Coeff-Com:  0.327D+00 0.673D+00
 Coeff-En:   0.192D+00 0.808D+00
 Coeff:      0.285D+00 0.715D+00
 Gap=     0.483 Goal=   None    Shift=    0.000
 RMSDP=2.71D-03 MaxDP=1.60D-01 DE=-3.25D-01 OVMax= 7.38D-02

 Cycle   3  Pass 1  IDiag  1:
 RMSU=  5.71D-04    CP:  1.02D+00  5.83D-01
 FoFJK:  IHMeth= 1 ICntrl=     0 DoSepK=T KAlg= 1 I1Cent= 0 FoldK=F
 E= -2905.41366200947     Delta-E=       -0.192387707843 Rises=F Damp=F
 DIIS: error= 5.30D-03 at cycle   3 NSaved=   3.
 NSaved= 3 IEnMin= 3 EnMin= -2905.41366200947     IErMin= 3 ErrMin= 5.30D-03
 ErrMax= 5.30D-03 EMaxC= 1.00D-01 BMatC= 1.85D-02 BMatP= 5.64D-01
 IDIUse=3 WtCom= 9.47D-01 WtEn= 5.30D-02
 Coeff-Com:  0.327D-01 0.188D+00 0.779D+00
 Coeff-En:   0.000D+00 0.000D+00 0.100D+01
 Coeff:      0.310D-01 0.178D+00 0.791D+00
 Gap=     0.433 Goal=   None    Shift=    0.000
 RMSDP=4.90D-04 MaxDP=1.79D-02 DE=-1.92D-01 OVMax= 2.61D-02

 Cycle   4  Pass 1  IDiag  1:
 RMSU=  2.33D-04    CP:  1.02D+00  6.40D-01  9.16D-01
 FoFJK:  IHMeth= 1 ICntrl=     0 DoSepK=T KAlg= 1 I1Cent= 0 FoldK=F
 E= -2905.42203624809     Delta-E=       -0.008374238615 Rises=F Damp=F
 DIIS: error= 2.16D-03 at cycle   4 NSaved=   4.
 NSaved= 4 IEnMin= 4 EnMin= -2905.42203624809     IErMin= 4 ErrMin= 2.16D-03
 ErrMax= 2.16D-03 EMaxC= 1.00D-01 BMatC= 1.75D-03 BMatP= 1.85D-02
 IDIUse=3 WtCom= 9.78D-01 WtEn= 2.16D-02
 Coeff-Com: -0.265D-02 0.490D-01 0.370D+00 0.584D+00
 Coeff-En:   0.000D+00 0.000D+00 0.000D+00 0.100D+01
 Coeff:     -0.259D-02 0.480D-01 0.362D+00 0.593D+00
 Gap=     0.417 Goal=   None    Shift=    0.000
 RMSDP=1.24D-04 MaxDP=6.56D-03 DE=-8.37D-03 OVMax= 6.66D-03

 Cycle   5  Pass 1  IDiag  1:
 RMSU=  4.06D-05    CP:  1.02D+00  6.38D-01  9.57D-01  6.89D-01
 FoFJK:  IHMeth= 1 ICntrl=     0 DoSepK=T KAlg= 1 I1Cent= 0 FoldK=F
 E= -2905.42310924035     Delta-E=       -0.001072992261 Rises=F Damp=F
 DIIS: error= 1.54D-04 at cycle   5 NSaved=   5.
 NSaved= 5 IEnMin= 5 EnMin= -2905.42310924035     IErMin= 5 ErrMin= 1.54D-04
 ErrMax= 1.54D-04 EMaxC= 1.00D-01 BMatC= 1.19D-05 BMatP= 1.75D-03
 IDIUse=3 WtCom= 9.98D-01 WtEn= 1.54D-03
 Coeff-Com: -0.109D-02 0.297D-02 0.420D-01 0.847D-01 0.871D+00
 Coeff-En:   0.000D+00 0.000D+00 0.000D+00 0.000D+00 0.100D+01
 Coeff:     -0.109D-02 0.297D-02 0.420D-01 0.846D-01 0.872D+00
 Gap=     0.417 Goal=   None    Shift=    0.000
 RMSDP=2.21D-05 MaxDP=8.95D-04 DE=-1.07D-03 OVMax= 1.25D-03

 Cycle   6  Pass 1  IDiag  1:
 RMSU=  1.17D-05    CP:  1.02D+00  6.38D-01  9.68D-01  7.06D-01  1.17D+00
 FoFJK:  IHMeth= 1 ICntrl=     0 DoSepK=T KAlg= 1 I1Cent= 0 FoldK=F
 E= -2905.42311545756     Delta-E=       -0.000006217214 Rises=F Damp=F
 DIIS: error= 1.53D-04 at cycle   6 NSaved=   6.
 NSaved= 6 IEnMin= 6 EnMin= -2905.42311545756     IErMin= 6 ErrMin= 1.53D-04
 ErrMax= 1.53D-04 EMaxC= 1.00D-01 BMatC= 9.24D-06 BMatP= 1.19D-05
 IDIUse=3 WtCom= 9.98D-01 WtEn= 1.53D-03
 Coeff-Com: -0.262D-03-0.569D-02-0.301D-01-0.394D-01 0.504D+00 0.572D+00
 Coeff-En:   0.000D+00 0.000D+00 0.000D+00 0.000D+00 0.219D+00 0.781D+00
 Coeff:     -0.262D-03-0.568D-02-0.301D-01-0.394D-01 0.503D+00 0.572D+00
 Gap=     0.417 Goal=   None    Shift=    0.000
 RMSDP=1.01D-05 MaxDP=4.04D-04 DE=-6.22D-06 OVMax= 7.10D-04

 Cycle   7  Pass 1  IDiag  1:
 RMSU=  3.64D-06    CP:  1.02D+00  6.38D-01  9.73D-01  7.11D-01  1.28D+00
                    CP:  7.18D-01
 FoFJK:  IHMeth= 1 ICntrl=     0 DoSepK=T KAlg= 1 I1Cent= 0 FoldK=F
 E= -2905.42312182501     Delta-E=       -0.000006367444 Rises=F Damp=F
 DIIS: error= 2.37D-05 at cycle   7 NSaved=   7.
 NSaved= 7 IEnMin= 7 EnMin= -2905.42312182501     IErMin= 7 ErrMin= 2.37D-05
 ErrMax= 2.37D-05 EMaxC= 1.00D-01 BMatC= 1.46D-07 BMatP= 9.24D-06
 IDIUse=1 WtCom= 1.00D+00 WtEn= 0.00D+00
 Coeff-Com:  0.221D-04-0.143D-02-0.948D-02-0.140D-01 0.165D-01 0.112D+00
 Coeff-Com:  0.896D+00
 Coeff:      0.221D-04-0.143D-02-0.948D-02-0.140D-01 0.165D-01 0.112D+00
 Coeff:      0.896D+00
 Gap=     0.417 Goal=   None    Shift=    0.000
 RMSDP=2.70D-06 MaxDP=8.01D-05 DE=-6.37D-06 OVMax= 2.00D-04

 Cycle   8  Pass 1  IDiag  1:
 RMSU=  8.79D-07    CP:  1.02D+00  6.38D-01  9.73D-01  7.12D-01  1.31D+00
                    CP:  7.94D-01  1.17D+00
 FoFJK:  IHMeth= 1 ICntrl=     0 DoSepK=T KAlg= 1 I1Cent= 0 FoldK=F
 E= -2905.42312203645     Delta-E=       -0.000000211446 Rises=F Damp=F
 DIIS: error= 5.72D-06 at cycle   8 NSaved=   8.
 NSaved= 8 IEnMin= 8 EnMin= -2905.42312203645     IErMin= 8 ErrMin= 5.72D-06
 ErrMax= 5.72D-06 EMaxC= 1.00D-01 BMatC= 6.10D-09 BMatP= 1.46D-07
 IDIUse=1 WtCom= 1.00D+00 WtEn= 0.00D+00
 Coeff-Com:  0.185D-04 0.239D-03 0.113D-02 0.113D-02-0.309D-01-0.279D-01
 Coeff-Com:  0.390D-01 0.102D+01
 Coeff:      0.185D-04 0.239D-03 0.113D-02 0.113D-02-0.309D-01-0.279D-01
 Coeff:      0.390D-01 0.102D+01
 Gap=     0.417 Goal=   None    Shift=    0.000
 RMSDP=8.59D-07 MaxDP=2.10D-05 DE=-2.11D-07 OVMax= 8.29D-05

 Cycle   9  Pass 1  IDiag  1:
 RMSU=  2.80D-07    CP:  1.02D+00  6.38D-01  9.74D-01  7.12D-01  1.32D+00
                    CP:  8.08D-01  1.26D+00  1.30D+00
 FoFJK:  IHMeth= 1 ICntrl=     0 DoSepK=T KAlg= 1 I1Cent= 0 FoldK=F
 E= -2905.42312205315     Delta-E=       -0.000000016700 Rises=F Damp=F
 DIIS: error= 1.94D-06 at cycle   9 NSaved=   9.
 NSaved= 9 IEnMin= 9 EnMin= -2905.42312205315     IErMin= 9 ErrMin= 1.94D-06
 ErrMax= 1.94D-06 EMaxC= 1.00D-01 BMatC= 5.28D-10 BMatP= 6.10D-09
 IDIUse=1 WtCom= 1.00D+00 WtEn= 0.00D+00
 Coeff-Com: -0.146D-05 0.934D-04 0.619D-03 0.681D-03-0.598D-03-0.539D-02
 Coeff-Com: -0.525D-01-0.537D-01 0.111D+01
 Coeff:     -0.146D-05 0.934D-04 0.619D-03 0.681D-03-0.598D-03-0.539D-02
 Coeff:     -0.525D-01-0.537D-01 0.111D+01
 Gap=     0.417 Goal=   None    Shift=    0.000
 RMSDP=2.80D-07 MaxDP=7.72D-06 DE=-1.67D-08 OVMax= 3.26D-05

 Cycle  10  Pass 1  IDiag  1:
 RMSU=  8.50D-08    CP:  1.02D+00  6.38D-01  9.74D-01  7.12D-01  1.32D+00
                    CP:  8.10D-01  1.27D+00  1.41D+00  1.36D+00
 FoFJK:  IHMeth= 1 ICntrl=     0 DoSepK=T KAlg= 1 I1Cent= 0 FoldK=F
 E= -2905.42312205481     Delta-E=       -0.000000001655 Rises=F Damp=F
 DIIS: error= 4.57D-07 at cycle  10 NSaved=  10.
 NSaved=10 IEnMin=10 EnMin= -2905.42312205481     IErMin=10 ErrMin= 4.57D-07
 ErrMax= 4.57D-07 EMaxC= 1.00D-01 BMatC= 5.21D-11 BMatP= 5.28D-10
 IDIUse=1 WtCom= 1.00D+00 WtEn= 0.00D+00
 Coeff-Com: -0.111D-05-0.111D-04-0.476D-04-0.504D-04 0.261D-02 0.242D-02
 Coeff-Com: -0.356D-02-0.112D+00 0.136D+00 0.975D+00
 Coeff:     -0.111D-05-0.111D-04-0.476D-04-0.504D-04 0.261D-02 0.242D-02
 Coeff:     -0.356D-02-0.112D+00 0.136D+00 0.975D+00
 Gap=     0.417 Goal=   None    Shift=    0.000
 RMSDP=7.81D-08 MaxDP=1.70D-06 DE=-1.66D-09 OVMax= 9.84D-06

 Cycle  11  Pass 1  IDiag  1:
 RMSU=  2.13D-08    CP:  1.02D+00  6.38D-01  9.74D-01  7.12D-01  1.32D+00
                    CP:  8.11D-01  1.27D+00  1.43D+00  1.50D+00  1.25D+00
 FoFJK:  IHMeth= 1 ICntrl=     0 DoSepK=T KAlg= 1 I1Cent= 0 FoldK=F
 E= -2905.42312205497     Delta-E=       -0.000000000162 Rises=F Damp=F
 DIIS: error= 1.17D-07 at cycle  11 NSaved=  11.
 NSaved=11 IEnMin=11 EnMin= -2905.42312205497     IErMin=11 ErrMin= 1.17D-07
 ErrMax= 1.17D-07 EMaxC= 1.00D-01 BMatC= 3.90D-12 BMatP= 5.21D-11
 IDIUse=1 WtCom= 1.00D+00 WtEn= 0.00D+00
 Coeff-Com:  0.441D-06-0.547D-05-0.443D-04-0.271D-04-0.361D-03 0.111D-03
 Coeff-Com:  0.566D-02 0.122D-01-0.977D-01-0.122D+00 0.120D+01
 Coeff:      0.441D-06-0.547D-05-0.443D-04-0.271D-04-0.361D-03 0.111D-03
 Coeff:      0.566D-02 0.122D-01-0.977D-01-0.122D+00 0.120D+01
 Gap=     0.417 Goal=   None    Shift=    0.000
 RMSDP=2.58D-08 MaxDP=5.04D-07 DE=-1.62D-10 OVMax= 3.39D-06

 Cycle  12  Pass 1  IDiag  1:
 RMSU=  5.60D-09    CP:  1.02D+00  6.38D-01  9.74D-01  7.12D-01  1.32D+00
                    CP:  8.11D-01  1.27D+00  1.43D+00  1.54D+00  1.39D+00
                    CP:  1.34D+00
 FoFJK:  IHMeth= 1 ICntrl=     0 DoSepK=T KAlg= 1 I1Cent= 0 FoldK=F
 E= -2905.42312205497     Delta-E=        0.000000000000 Rises=F Damp=F
 DIIS: error= 3.45D-08 at cycle  12 NSaved=  12.
 NSaved=12 IEnMin=12 EnMin= -2905.42312205497     IErMin=12 ErrMin= 3.45D-08
 ErrMax= 3.45D-08 EMaxC= 1.00D-01 BMatC= 1.52D-13 BMatP= 3.90D-12
 IDIUse=1 WtCom= 1.00D+00 WtEn= 0.00D+00
 Coeff-Com: -0.403D-07 0.655D-06 0.545D-05-0.255D-05-0.782D-04-0.101D-03
 Coeff-Com: -0.270D-03 0.346D-02 0.651D-02-0.239D-01-0.180D+00 0.119D+01
 Coeff:     -0.403D-07 0.655D-06 0.545D-05-0.255D-05-0.782D-04-0.101D-03
 Coeff:     -0.270D-03 0.346D-02 0.651D-02-0.239D-01-0.180D+00 0.119D+01
 Gap=     0.417 Goal=   None    Shift=    0.000
 RMSDP=5.14D-09 MaxDP=1.74D-07 DE=-4.55D-13 OVMax= 5.89D-07

 SCF Done:  E(RwB97XD) =  -2905.42312205     A.U. after   12 cycles
             Convg  =    0.5136D-08             -V/T =  2.0015
 KE= 2.900953720480D+03 PE=-7.238975028889D+03 EE= 1.281948715112D+03
 Leave Link  502 at Thu Apr 16 09:36:11 2020, MaxMem= 1073741824 cpu:     301.8
 (Enter /home/matheus/.gaussian/g09/l601.exe)
 Copying SCF densities to generalized density rwf, IOpCl= 0 IROHF=0.

 **********************************************************************

            Population analysis using the SCF density.

 **********************************************************************

 Orbital symmetries:
       Occupied  (A) (A) (A) (A) (A) (A) (A) (A) (A) (A) (A) (A)
                 (A) (A) (A) (A) (A) (A) (A) (A) (A) (A) (A) (A)
                 (A) (A) (A)
       Virtual   (A) (A) (A) (A) (A) (A) (A) (A) (A) (A) (A) (A)
                 (A) (A) (A) (A) (A) (A) (A) (A) (A) (A) (A) (A)
                 (A) (A) (A) (A) (A) (A) (A) (A) (A) (A) (A) (A)
                 (A) (A) (A) (A) (A) (A) (A) (A) (A) (A) (A) (A)
                 (A) (A) (A) (A) (A) (A) (A) (A) (A) (A) (A) (A)
                 (A) (A) (A) (A) (A) (A) (A) (A) (A) (A) (A) (A)
                 (A) (A) (A) (A) (A) (A) (A) (A) (A) (A) (A) (A)
                 (A) (A) (A) (A) (A) (A) (A) (A) (A) (A) (A) (A)
                 (A) (A) (A) (A) (A) (A) (A) (A) (A) (A) (A) (A)
                 (A) (A) (A) (A) (A) (A) (A) (A) (A) (A) (A) (A)
                 (A) (A) (A) (A) (A) (A) (A) (A) (A) (A) (A) (A)
                 (A) (A) (A) (A) (A) (A) (A) (A) (A) (A) (A) (A)
                 (A) (A) (A) (A) (A) (A) (A) (A) (A) (A) (A) (A)
                 (A) (A) (A) (A) (A) (A) (A) (A) (A) (A) (A) (A)
                 (A) (A)
 The electronic state is 1-A.
 Alpha  occ. eigenvalues -- -513.10820 -67.37641 -60.92519 -60.92511 -60.92502
 Alpha  occ. eigenvalues --  -19.33959 -19.33679  -9.82966  -7.52293  -7.52266
 Alpha  occ. eigenvalues --   -7.52236  -3.38977  -3.38973  -3.38950  -3.38928
 Alpha  occ. eigenvalues --   -3.38924  -1.24681  -1.03833  -1.02991  -0.68565
 Alpha  occ. eigenvalues --   -0.56167  -0.54378  -0.51370  -0.50906  -0.49891
 Alpha  occ. eigenvalues --   -0.45094  -0.38262
 Alpha virt. eigenvalues --    0.03443   0.04416   0.08531   0.09282   0.10029
 Alpha virt. eigenvalues --    0.11847   0.12752   0.14694   0.17270   0.17686
 Alpha virt. eigenvalues --    0.18157   0.19199   0.20238   0.22035   0.23268
 Alpha virt. eigenvalues --    0.24057   0.24775   0.27897   0.30193   0.32521
 Alpha virt. eigenvalues --    0.33961   0.34986   0.36923   0.38323   0.39815
 Alpha virt. eigenvalues --    0.41532   0.42241   0.47093   0.51975   0.53673
 Alpha virt. eigenvalues --    0.56366   0.58496   0.60637   0.63340   0.66996
 Alpha virt. eigenvalues --    0.67856   0.69747   0.72627   0.74306   0.74946
 Alpha virt. eigenvalues --    0.75437   0.76459   0.77882   0.79836   0.82988
 Alpha virt. eigenvalues --    0.84358   0.85752   0.87543   0.88097   0.89658
 Alpha virt. eigenvalues --    0.90560   0.94323   0.95837   0.96752   0.99105
 Alpha virt. eigenvalues --    1.00111   1.01306   1.04039   1.06045   1.09268
 Alpha virt. eigenvalues --    1.10637   1.14712   1.17757   1.20978   1.23231
 Alpha virt. eigenvalues --    1.28030   1.32879   1.35920   1.39273   1.41710
 Alpha virt. eigenvalues --    1.43235   1.47140   1.49832   1.53713   1.58574
 Alpha virt. eigenvalues --    1.64827   1.68025   1.82437   1.89161   1.92144
 Alpha virt. eigenvalues --    1.99296   2.04847   2.07811   2.09389   2.13132
 Alpha virt. eigenvalues --    2.14044   2.17884   2.18545   2.20691   2.24699
 Alpha virt. eigenvalues --    2.28113   2.28503   2.29176   2.30964   2.31740
 Alpha virt. eigenvalues --    2.37070   2.37477   2.43441   2.46388   2.46488
 Alpha virt. eigenvalues --    2.48748   2.50314   2.53663   2.54383   2.56101
 Alpha virt. eigenvalues --    2.57153   2.61779   2.64837   2.67971   2.70555
 Alpha virt. eigenvalues --    2.71967   2.75323   2.81209   2.87088   2.88148
 Alpha virt. eigenvalues --    2.93228   2.99955   3.08562   3.10904   3.60423
 Alpha virt. eigenvalues --    3.66266   3.93831   3.97489   3.99130   4.03459
 Alpha virt. eigenvalues --    4.10328   4.12109   4.22512   4.23769   4.25518
 Alpha virt. eigenvalues --    4.42327   4.46500   4.59167   4.61943   4.68206
 Alpha virt. eigenvalues --    4.96038   4.99684   5.00903   5.06512   5.14311
 Alpha virt. eigenvalues --    5.16576   5.44307   5.84461   6.01299   6.12098
 Alpha virt. eigenvalues --    6.13172   6.30530   6.38604   6.39985   6.52830
 Alpha virt. eigenvalues --    6.65100   6.74375   6.78161   6.83261   6.85307
 Alpha virt. eigenvalues --    6.89393   6.90254   6.91870   6.92199   7.04476
 Alpha virt. eigenvalues --    7.10760   7.16359   7.23959   7.45482   7.50066
 Alpha virt. eigenvalues --    7.87270   8.04743   8.15093  14.05101  14.67518
          Condensed to atoms (all electrons):
              1          2          3          4          5
     1  O    8.228779  -0.192969   0.185056   0.019810  -0.021793
     2  O   -0.192969   8.257242   0.026241   0.180749  -0.018981
     3  H    0.185056   0.026241   0.572411  -0.006659   0.002529
     4  H    0.019810   0.180749  -0.006659   0.574997  -0.008746
     5  Kr  -0.021793  -0.018981   0.002529  -0.008746  36.036094
 Mulliken atomic charges:
              1
     1  O   -0.218883
     2  O   -0.252283
     3  H    0.220421
     4  H    0.239848
     5  Kr   0.010897
 Sum of Mulliken atomic charges =   0.00000
 Mulliken charges with hydrogens summed into heavy atoms:
              1
     1  O    0.001538
     2  O   -0.012434
     5  Kr   0.010897
 Sum of Mulliken charges with hydrogens summed into heavy atoms =   0.00000
 Electronic spatial extent (au):  <R**2>=            478.3766
 Charge=              0.0000 electrons
 Dipole moment (field-independent basis, Debye):
    X=             -2.9094    Y=             -0.2192    Z=              1.0524  Tot=              3.1017
 Quadrupole moment (field-independent basis, Debye-Ang):
   XX=            -37.7766   YY=            -27.9709   ZZ=            -29.6166
   XY=             -0.8158   XZ=              1.5341   YZ=             -1.3802
 Traceless Quadrupole moment (field-independent basis, Debye-Ang):
   XX=             -5.9886   YY=              3.8171   ZZ=              2.1714
   XY=             -0.8158   XZ=              1.5341   YZ=             -1.3802
 Octapole moment (field-independent basis, Debye-Ang**2):
  XXX=            -42.8065  YYY=             -0.5719  ZZZ=              0.4397  XYY=             -6.8280
  XXY=             -2.0496  XXZ=              1.2579  XZZ=             -7.2454  YZZ=             -1.1041
  YYZ=              1.6524  XYZ=             -1.9930
 Hexadecapole moment (field-independent basis, Debye-Ang**3):
 XXXX=           -459.9681 YYYY=            -63.0682 ZZZZ=            -29.7712 XXXY=             -2.7866
 XXXZ=              0.8358 YYYX=             -1.5444 YYYZ=             -1.9715 ZZZX=              1.0159
 ZZZY=             -1.1782 XXYY=            -84.5339 XXZZ=            -74.5767 YYZZ=            -16.5040
 XXYZ=             -2.9020 YYXZ=              2.3817 ZZXY=             -1.6552
 N-N= 1.506494712413D+02 E-N=-7.238975027594D+03  KE= 2.900953720480D+03
 No NMR shielding tensors so no spin-rotation constants.
 Leave Link  601 at Thu Apr 16 09:36:12 2020, MaxMem= 1073741824 cpu:       0.7
 (Enter /home/matheus/.gaussian/g09/l108.exe)
 Variable Step   Value    
 -------- ---- -----------
     1       1    5.858151
 Leave Link  108 at Thu Apr 16 09:36:12 2020, MaxMem= 1073741824 cpu:       0.0
 (Enter /home/matheus/.gaussian/g09/l202.exe)
 ---------------------------------------------------------------------------------------------------
                            Z-MATRIX (ANGSTROMS AND DEGREES)
   CD    Cent   Atom    N1       Length/X        N2       Alpha/Y        N3        Beta/Z          J
 ---------------------------------------------------------------------------------------------------
      1      1  O        0   0.000000          0.000000          0.725000
      2      2  O        0   0.000000          0.000000         -0.725000
      3      3  H        0   0.703781          0.590542          1.023510
      4      4  H        0   0.000000          0.918721         -1.023510
      5      5  Kr       0   0.000000          3.100000          0.000000
 ---------------------------------------------------------------------------------------------------
                         Z-Matrix orientation:                         
 ---------------------------------------------------------------------
 Center     Atomic      Atomic             Coordinates (Angstroms)
 Number     Number       Type             X           Y           Z
 ---------------------------------------------------------------------
      1          8           0        0.000000    0.000000    0.725000
      2          8           0        0.000000    0.000000   -0.725000
      3          1           0        0.703781    0.590542    1.023510
      4          1           0        0.000000    0.918721   -1.023510
      5         36           0        0.000000    3.100000    0.000000
 ---------------------------------------------------------------------
                    Distance matrix (angstroms):
                    1          2          3          4          5
     1  O    0.000000
     2  O    1.450000   0.000000
     3  H    0.966000   1.975180   0.000000
     4  H    1.975180   0.966000   2.189361   0.000000
     5  Kr   3.183650   3.183650   2.800046   2.409472   0.000000
 Stoichiometry    H2KrO2
 Framework group  C1[X(H2KrO2)]
 Deg. of freedom     9
 Full point group                 C1      NOp   1
 RotChk:  IX=0 Diff= 4.84D-04
 Largest Abelian subgroup         C1      NOp   1
 Largest concise Abelian subgroup C1      NOp   1
                         Standard orientation:                         
 ---------------------------------------------------------------------
 Center     Atomic      Atomic             Coordinates (Angstroms)
 Number     Number       Type             X           Y           Z
 ---------------------------------------------------------------------
      1          8           0        2.096872   -0.713625   -0.084133
      2          8           0        2.091888    0.732711    0.018763
      3          1           0        1.514190   -1.063728    0.602209
      4          1           0        1.172189    1.026687    0.048580
      5         36           0       -1.005457   -0.003212   -0.003551
 ---------------------------------------------------------------------
 Rotational constants (GHZ):     26.0307920      2.2215520      2.0545317
 Leave Link  202 at Thu Apr 16 09:36:12 2020, MaxMem= 1073741824 cpu:       0.0
 (Enter /home/matheus/.gaussian/g09/l301.exe)
 Standard basis: Aug-CC-pVTZ (5D, 7F)
 Ernie: Thresh=  0.10000D-02 Tol=  0.10000D-05 Strict=F.
 Ernie:  38 primitive shells out of 205 were deleted.
 There are   197 symmetry adapted basis functions of A   symmetry.
 Integral buffers will be    131072 words long.
 Raffenetti 2 integral format.
 Two-electron integral symmetry is turned on.
   197 basis functions,   415 primitive gaussians,   229 cartesian basis functions
    27 alpha electrons       27 beta electrons
       nuclear repulsion energy       147.1010806950 Hartrees.
 IExCor= 4639 DFT=T Ex+Corr=wB97XD ExCW=0 ScaHFX=  1.000000
 ScaDFX=  1.000000  1.000000  1.000000  1.000000 ScalE2=  1.000000  1.000000
 IRadAn=      5 IRanWt=     -1 IRanGd=            0 ICorTp=0
  HFx wShort=  0.000000 wLong=  0.250000 cFull=  0.222036 cShort=  0.000000 cLong=  0.777964
  DFx wShort=  0.000000 wLong=  0.250000 cFull=  0.000000 cShort=  0.000000 cLong=  1.000000
 NAtoms=    5 NActive=    5 NUniq=    5 SFac= 1.00D+00 NAtFMM=   60 NAOKFM=F Big=F
 R6Disp: Dispersion energy =        -0.0009649561 Hartrees.
 Nuclear repulsion after empirical dispersion term =      147.1001157389 Hartrees.
 Leave Link  301 at Thu Apr 16 09:36:12 2020, MaxMem= 1073741824 cpu:       0.2
 (Enter /home/matheus/.gaussian/g09/l302.exe)
 NPDir=0 NMtPBC=     1 NCelOv=     1 NCel=       1 NClECP=     1 NCelD=      1
         NCelK=      1 NCelE2=     1 NClLst=     1 CellRange=     0.0.
 One-electron integrals computed using PRISM.
 NBasis=   197 RedAO= T  NBF=   197
 NBsUse=   197 1.00D-06 NBFU=   197
 Precomputing XC quadrature grid using
 IXCGrd= 2 IRadAn=           5 IRanWt=          -1 IRanGd=           0 AccXCQ= 0.00D+00.
 NRdTot=     427 NPtTot=      123512 NUsed=      126579 NTot=      126611
 NSgBfM=   229   229   229   229   229 NAtAll=     5     5.
 Leave Link  302 at Thu Apr 16 09:36:12 2020, MaxMem= 1073741824 cpu:       1.0
 (Enter /home/matheus/.gaussian/g09/l303.exe)
 DipDrv:  MaxL=1.
 Leave Link  303 at Thu Apr 16 09:36:12 2020, MaxMem= 1073741824 cpu:       0.2
 (Enter /home/matheus/.gaussian/g09/l401.exe)
 Initial guess read from the read-write file.
 B after Tr=     0.000000    0.000000    0.000000
         Rot=    1.000000    0.000000    0.000000    0.000000 Ang=   0.00 deg.
 Guess basis will be translated and rotated to current coordinates.
 Initial guess orbital symmetries:
       Occupied  (A) (A) (A) (A) (A) (A) (A) (A) (A) (A) (A) (A)
                 (A) (A) (A) (A) (A) (A) (A) (A) (A) (A) (A) (A)
                 (A) (A) (A)
       Virtual   (A) (A) (A) (A) (A) (A) (A) (A) (A) (A) (A) (A)
                 (A) (A) (A) (A) (A) (A) (A) (A) (A) (A) (A) (A)
                 (A) (A) (A) (A) (A) (A) (A) (A) (A) (A) (A) (A)
                 (A) (A) (A) (A) (A) (A) (A) (A) (A) (A) (A) (A)
                 (A) (A) (A) (A) (A) (A) (A) (A) (A) (A) (A) (A)
                 (A) (A) (A) (A) (A) (A) (A) (A) (A) (A) (A) (A)
                 (A) (A) (A) (A) (A) (A) (A) (A) (A) (A) (A) (A)
                 (A) (A) (A) (A) (A) (A) (A) (A) (A) (A) (A) (A)
                 (A) (A) (A) (A) (A) (A) (A) (A) (A) (A) (A) (A)
                 (A) (A) (A) (A) (A) (A) (A) (A) (A) (A) (A) (A)
                 (A) (A) (A) (A) (A) (A) (A) (A) (A) (A) (A) (A)
                 (A) (A) (A) (A) (A) (A) (A) (A) (A) (A) (A) (A)
                 (A) (A) (A) (A) (A) (A) (A) (A) (A) (A) (A) (A)
                 (A) (A) (A) (A) (A) (A) (A) (A) (A) (A) (A) (A)
                 (A) (A)
 The electronic state of the initial guess is 1-A.
 Generating alternative initial guess.
 Harris functional with IExCor= 4639 diagonalized for initial guess.
 ExpMin= 2.53D-02 ExpMax= 1.17D+07 ExpMxC= 1.33D+04 IAcc=3 IRadAn=         5 AccDes= 0.00D+00
 HarFok:  IExCor= 4639 AccDes= 0.00D+00 IRadAn=         5 IDoV= 1
 ScaDFX=  1.000000  1.000000  1.000000  1.000000
 FoFCou: FMM=F IPFlag=           0 FMFlag=      100000 FMFlg1=           0
         NFxFlg=           0 DoJE=T BraDBF=F KetDBF=T FulRan=T
         Omega=  0.000000  0.000000  1.000000  0.000000  0.000000 ICntrl=     500 IOpCl=  0
         NMat0=    1 NMatS0=    1 NMatT0=    0 NMatD0=    1 NMtDS0=    0 NMtDT0=    0
         I1Cent=           4 NGrid=           0.
 Petite list used in FoFCou.
 Harris En= -2875.39726180347    
 Leave Link  401 at Thu Apr 16 09:36:12 2020, MaxMem= 1073741824 cpu:       4.9
 (Enter /home/matheus/.gaussian/g09/l502.exe)
 Closed shell SCF:
 Requested convergence on RMS density matrix=1.00D-08 within 128 cycles.
 Requested convergence on MAX density matrix=1.00D-06.
 Requested convergence on             energy=1.00D-06.
 No special actions if energy rises.
 Using DIIS extrapolation, IDIIS=  1040.
 Integral symmetry usage will be decided dynamically.
       126521 words used for storage of precomputed grid.
 IEnd=      305468 IEndB=      305468 NGot=  1073741824 MDV=  1073505667
 LenX=  1073505667 LenY=  1073452785
 Fock matrices will be formed incrementally for  20 cycles.

 Cycle   1  Pass 1  IDiag  1:
 FoFJK:  IHMeth= 1 ICntrl=     0 DoSepK=T KAlg= 1 I1Cent= 0 FoldK=F
 FoFCou: FMM=F IPFlag=           0 FMFlag=      100000 FMFlg1=           0
         NFxFlg=           0 DoJE=T BraDBF=F KetDBF=F FulRan=T
         Omega=  0.000000  0.000000  1.000000  0.000000  0.000000 ICntrl=     500 IOpCl=  0
         NMat0=    1 NMatS0=    1 NMatT0=    0 NMatD0=    1 NMtDS0=    0 NMtDT0=    0
         I1Cent=           0 NGrid=           0.
 Symmetry not used in FoFCou.
 E= -2905.42510986743    
 DIIS: error= 1.62D-03 at cycle   1 NSaved=   1.
 NSaved= 1 IEnMin= 1 EnMin= -2905.42510986743     IErMin= 1 ErrMin= 1.62D-03
 ErrMax= 1.62D-03 EMaxC= 1.00D-01 BMatC= 7.09D-04 BMatP= 7.09D-04
 IDIUse=3 WtCom= 9.84D-01 WtEn= 1.62D-02
 Coeff-Com:  0.100D+01
 Coeff-En:   0.100D+01
 Coeff:      0.100D+01
 Gap=     0.420 Goal=   None    Shift=    0.000
 GapD=    0.420 DampG=2.000 DampE=1.000 DampFc=2.0000 IDamp=-1.
 RMSDP=7.54D-05 MaxDP=2.30D-03              OVMax= 3.16D-03

 Cycle   2  Pass 1  IDiag  1:
 RMSU=  5.33D-05    CP:  1.00D+00
 FoFJK:  IHMeth= 1 ICntrl=     0 DoSepK=T KAlg= 1 I1Cent= 0 FoldK=F
 E= -2905.42522213211     Delta-E=       -0.000112264680 Rises=F Damp=F
 DIIS: error= 1.33D-04 at cycle   2 NSaved=   2.
 NSaved= 2 IEnMin= 2 EnMin= -2905.42522213211     IErMin= 2 ErrMin= 1.33D-04
 ErrMax= 1.33D-04 EMaxC= 1.00D-01 BMatC= 5.66D-06 BMatP= 7.09D-04
 IDIUse=3 WtCom= 9.99D-01 WtEn= 1.33D-03
 Coeff-Com: -0.324D-03 0.100D+01
 Coeff-En:   0.000D+00 0.100D+01
 Coeff:     -0.324D-03 0.100D+01
 Gap=     0.417 Goal=   None    Shift=    0.000
 RMSDP=1.67D-05 MaxDP=7.07D-04 DE=-1.12D-04 OVMax= 9.24D-04

 Cycle   3  Pass 1  IDiag  1:
 RMSU=  1.01D-05    CP:  1.00D+00  1.12D+00
 FoFJK:  IHMeth= 1 ICntrl=     0 DoSepK=T KAlg= 1 I1Cent= 0 FoldK=F
 E= -2905.42522539516     Delta-E=       -0.000003263041 Rises=F Damp=F
 DIIS: error= 8.68D-05 at cycle   3 NSaved=   3.
 NSaved= 3 IEnMin= 3 EnMin= -2905.42522539516     IErMin= 3 ErrMin= 8.68D-05
 ErrMax= 8.68D-05 EMaxC= 1.00D-01 BMatC= 4.07D-06 BMatP= 5.66D-06
 IDIUse=1 WtCom= 1.00D+00 WtEn= 0.00D+00
 Coeff-Com: -0.678D-02 0.457D+00 0.550D+00
 Coeff:     -0.678D-02 0.457D+00 0.550D+00
 Gap=     0.417 Goal=   None    Shift=    0.000
 RMSDP=6.17D-06 MaxDP=3.24D-04 DE=-3.26D-06 OVMax= 3.94D-04

 Cycle   4  Pass 1  IDiag  1:
 RMSU=  2.94D-06    CP:  1.00D+00  1.14D+00  7.02D-01
 FoFJK:  IHMeth= 1 ICntrl=     0 DoSepK=T KAlg= 1 I1Cent= 0 FoldK=F
 E= -2905.42522794972     Delta-E=       -0.000002554567 Rises=F Damp=F
 DIIS: error= 2.39D-05 at cycle   4 NSaved=   4.
 NSaved= 4 IEnMin= 4 EnMin= -2905.42522794972     IErMin= 4 ErrMin= 2.39D-05
 ErrMax= 2.39D-05 EMaxC= 1.00D-01 BMatC= 1.78D-07 BMatP= 4.07D-06
 IDIUse=1 WtCom= 1.00D+00 WtEn= 0.00D+00
 Coeff-Com: -0.193D-02 0.532D-01 0.169D+00 0.780D+00
 Coeff:     -0.193D-02 0.532D-01 0.169D+00 0.780D+00
 Gap=     0.417 Goal=   None    Shift=    0.000
 RMSDP=2.04D-06 MaxDP=6.85D-05 DE=-2.55D-06 OVMax= 1.21D-04

 Cycle   5  Pass 1  IDiag  1:
 RMSU=  1.15D-06    CP:  1.00D+00  1.15D+00  7.69D-01  1.09D+00
 FoFJK:  IHMeth= 1 ICntrl=     0 DoSepK=T KAlg= 1 I1Cent= 0 FoldK=F
 E= -2905.42522806925     Delta-E=       -0.000000119525 Rises=F Damp=F
 DIIS: error= 1.16D-05 at cycle   5 NSaved=   5.
 NSaved= 5 IEnMin= 5 EnMin= -2905.42522806925     IErMin= 5 ErrMin= 1.16D-05
 ErrMax= 1.16D-05 EMaxC= 1.00D-01 BMatC= 5.58D-08 BMatP= 1.78D-07
 IDIUse=1 WtCom= 1.00D+00 WtEn= 0.00D+00
 Coeff-Com:  0.161D-03-0.536D-01-0.813D-02 0.404D+00 0.657D+00
 Coeff:      0.161D-03-0.536D-01-0.813D-02 0.404D+00 0.657D+00
 Gap=     0.417 Goal=   None    Shift=    0.000
 RMSDP=8.82D-07 MaxDP=3.99D-05 DE=-1.20D-07 OVMax= 5.83D-05

 Cycle   6  Pass 1  IDiag  1:
 RMSU=  3.53D-07    CP:  1.00D+00  1.15D+00  7.96D-01  1.20D+00  8.22D-01
 FoFJK:  IHMeth= 1 ICntrl=     0 DoSepK=T KAlg= 1 I1Cent= 0 FoldK=F
 E= -2905.42522810990     Delta-E=       -0.000000040654 Rises=F Damp=F
 DIIS: error= 1.99D-06 at cycle   6 NSaved=   6.
 NSaved= 6 IEnMin= 6 EnMin= -2905.42522810990     IErMin= 6 ErrMin= 1.99D-06
 ErrMax= 1.99D-06 EMaxC= 1.00D-01 BMatC= 1.53D-09 BMatP= 5.58D-08
 IDIUse=1 WtCom= 1.00D+00 WtEn= 0.00D+00
 Coeff-Com:  0.165D-03-0.216D-01-0.122D-01 0.894D-01 0.213D+00 0.731D+00
 Coeff:      0.165D-03-0.216D-01-0.122D-01 0.894D-01 0.213D+00 0.731D+00
 Gap=     0.417 Goal=   None    Shift=    0.000
 RMSDP=1.99D-07 MaxDP=5.85D-06 DE=-4.07D-08 OVMax= 1.03D-05

 Cycle   7  Pass 1  IDiag  1:
 RMSU=  8.66D-08    CP:  1.00D+00  1.15D+00  8.01D-01  1.23D+00  8.79D-01
                    CP:  1.03D+00
 FoFJK:  IHMeth= 1 ICntrl=     0 DoSepK=T KAlg= 1 I1Cent= 0 FoldK=F
 E= -2905.42522811149     Delta-E=       -0.000000001585 Rises=F Damp=F
 DIIS: error= 6.04D-07 at cycle   7 NSaved=   7.
 NSaved= 7 IEnMin= 7 EnMin= -2905.42522811149     IErMin= 7 ErrMin= 6.04D-07
 ErrMax= 6.04D-07 EMaxC= 1.00D-01 BMatC= 6.03D-11 BMatP= 1.53D-09
 IDIUse=1 WtCom= 1.00D+00 WtEn= 0.00D+00
 Coeff-Com: -0.163D-04 0.560D-02 0.165D-02-0.399D-01-0.707D-01-0.206D-01
 Coeff-Com:  0.112D+01
 Coeff:     -0.163D-04 0.560D-02 0.165D-02-0.399D-01-0.707D-01-0.206D-01
 Coeff:      0.112D+01
 Gap=     0.417 Goal=   None    Shift=    0.000
 RMSDP=8.83D-08 MaxDP=3.52D-06 DE=-1.59D-09 OVMax= 5.54D-06

 Cycle   8  Pass 1  IDiag  1:
 RMSU=  2.59D-08    CP:  1.00D+00  1.15D+00  8.03D-01  1.23D+00  8.95D-01
                    CP:  1.15D+00  1.21D+00
 FoFJK:  IHMeth= 1 ICntrl=     0 DoSepK=T KAlg= 1 I1Cent= 0 FoldK=F
 E= -2905.42522811164     Delta-E=       -0.000000000156 Rises=F Damp=F
 DIIS: error= 7.89D-08 at cycle   8 NSaved=   8.
 NSaved= 8 IEnMin= 8 EnMin= -2905.42522811164     IErMin= 8 ErrMin= 7.89D-08
 ErrMax= 7.89D-08 EMaxC= 1.00D-01 BMatC= 3.13D-12 BMatP= 6.03D-11
 IDIUse=1 WtCom= 1.00D+00 WtEn= 0.00D+00
 Coeff-Com: -0.105D-04 0.195D-02 0.816D-03-0.110D-01-0.214D-01-0.311D-01
 Coeff-Com:  0.190D+00 0.870D+00
 Coeff:     -0.105D-04 0.195D-02 0.816D-03-0.110D-01-0.214D-01-0.311D-01
 Coeff:      0.190D+00 0.870D+00
 Gap=     0.417 Goal=   None    Shift=    0.000
 RMSDP=1.31D-08 MaxDP=3.51D-07 DE=-1.56D-10 OVMax= 1.27D-06

 Cycle   9  Pass 1  IDiag  1:
 RMSU=  5.62D-09    CP:  1.00D+00  1.15D+00  8.03D-01  1.23D+00  8.95D-01
                    CP:  1.16D+00  1.25D+00  1.21D+00
 FoFJK:  IHMeth= 1 ICntrl=     0 DoSepK=T KAlg= 1 I1Cent= 0 FoldK=F
 E= -2905.42522811163     Delta-E=        0.000000000014 Rises=F Damp=F
 DIIS: error= 3.37D-08 at cycle   9 NSaved=   9.
 NSaved= 9 IEnMin= 8 EnMin= -2905.42522811164     IErMin= 9 ErrMin= 3.37D-08
 ErrMax= 3.37D-08 EMaxC= 1.00D-01 BMatC= 2.77D-13 BMatP= 3.13D-12
 IDIUse=1 WtCom= 1.00D+00 WtEn= 0.00D+00
 Coeff-Com:  0.154D-05-0.499D-03-0.158D-03 0.358D-02 0.625D-02 0.182D-02
 Coeff-Com: -0.103D+00 0.251D-01 0.107D+01
 Coeff:      0.154D-05-0.499D-03-0.158D-03 0.358D-02 0.625D-02 0.182D-02
 Coeff:     -0.103D+00 0.251D-01 0.107D+01
 Gap=     0.417 Goal=   None    Shift=    0.000
 RMSDP=7.23D-09 MaxDP=1.90D-07 DE= 1.36D-11 OVMax= 6.66D-07

 SCF Done:  E(RwB97XD) =  -2905.42522811     A.U. after    9 cycles
             Convg  =    0.7228D-08             -V/T =  2.0015
 KE= 2.900939568377D+03 PE=-7.231896271869D+03 EE= 1.278431359641D+03
 Leave Link  502 at Thu Apr 16 09:36:40 2020, MaxMem= 1073741824 cpu:     223.1
 (Enter /home/matheus/.gaussian/g09/l108.exe)
 Variable Step   Value    
 -------- ---- -----------
     1       2    6.047124
 Leave Link  108 at Thu Apr 16 09:36:40 2020, MaxMem= 1073741824 cpu:       0.0
 (Enter /home/matheus/.gaussian/g09/l202.exe)
 ---------------------------------------------------------------------------------------------------
                            Z-MATRIX (ANGSTROMS AND DEGREES)
   CD    Cent   Atom    N1       Length/X        N2       Alpha/Y        N3        Beta/Z          J
 ---------------------------------------------------------------------------------------------------
      1      1  O        0   0.000000          0.000000          0.725000
      2      2  O        0   0.000000          0.000000         -0.725000
      3      3  H        0   0.703781          0.590542          1.023510
      4      4  H        0   0.000000          0.918721         -1.023510
      5      5  Kr       0   0.000000          3.200000          0.000000
 ---------------------------------------------------------------------------------------------------
                         Z-Matrix orientation:                         
 ---------------------------------------------------------------------
 Center     Atomic      Atomic             Coordinates (Angstroms)
 Number     Number       Type             X           Y           Z
 ---------------------------------------------------------------------
      1          8           0        0.000000    0.000000    0.725000
      2          8           0        0.000000    0.000000   -0.725000
      3          1           0        0.703781    0.590542    1.023510
      4          1           0        0.000000    0.918721   -1.023510
      5         36           0        0.000000    3.200000    0.000000
 ---------------------------------------------------------------------
                    Distance matrix (angstroms):
                    1          2          3          4          5
     1  O    0.000000
     2  O    1.450000   0.000000
     3  H    0.966000   1.975180   0.000000
     4  H    1.975180   0.966000   2.189361   0.000000
     5  Kr   3.281101   3.281101   2.890009   2.500362   0.000000
 Stoichiometry    H2KrO2
 Framework group  C1[X(H2KrO2)]
 Deg. of freedom     9
 Full point group                 C1      NOp   1
 RotChk:  IX=0 Diff= 4.47D-04
 Largest Abelian subgroup         C1      NOp   1
 Largest concise Abelian subgroup C1      NOp   1
                         Standard orientation:                         
 ---------------------------------------------------------------------
 Center     Atomic      Atomic             Coordinates (Angstroms)
 Number     Number       Type             X           Y           Z
 ---------------------------------------------------------------------
      1          8           0        2.163371   -0.713895   -0.084351
      2          8           0        2.158732    0.732441    0.018552
      3          1           0        1.580470   -1.063855    0.601878
      4          1           0        1.239102    1.026649    0.048196
      5         36           0       -1.038789   -0.003088   -0.003436
 ---------------------------------------------------------------------
 Rotational constants (GHZ):     26.0309110      2.0838834      1.9362329
 Leave Link  202 at Thu Apr 16 09:36:40 2020, MaxMem= 1073741824 cpu:       0.0
 (Enter /home/matheus/.gaussian/g09/l301.exe)
 Standard basis: Aug-CC-pVTZ (5D, 7F)
 Ernie: Thresh=  0.10000D-02 Tol=  0.10000D-05 Strict=F.
 Ernie:  38 primitive shells out of 205 were deleted.
 There are   197 symmetry adapted basis functions of A   symmetry.
 Integral buffers will be    131072 words long.
 Raffenetti 2 integral format.
 Two-electron integral symmetry is turned on.
   197 basis functions,   415 primitive gaussians,   229 cartesian basis functions
    27 alpha electrons       27 beta electrons
       nuclear repulsion energy       143.7582934746 Hartrees.
 IExCor= 4639 DFT=T Ex+Corr=wB97XD ExCW=0 ScaHFX=  1.000000
 ScaDFX=  1.000000  1.000000  1.000000  1.000000 ScalE2=  1.000000  1.000000
 IRadAn=      5 IRanWt=     -1 IRanGd=            0 ICorTp=0
  HFx wShort=  0.000000 wLong=  0.250000 cFull=  0.222036 cShort=  0.000000 cLong=  0.777964
  DFx wShort=  0.000000 wLong=  0.250000 cFull=  0.000000 cShort=  0.000000 cLong=  1.000000
 NAtoms=    5 NActive=    5 NUniq=    5 SFac= 1.00D+00 NAtFMM=   60 NAOKFM=F Big=F
 R6Disp: Dispersion energy =        -0.0010505187 Hartrees.
 Nuclear repulsion after empirical dispersion term =      143.7572429558 Hartrees.
 Leave Link  301 at Thu Apr 16 09:36:40 2020, MaxMem= 1073741824 cpu:       0.2
 (Enter /home/matheus/.gaussian/g09/l302.exe)
 NPDir=0 NMtPBC=     1 NCelOv=     1 NCel=       1 NClECP=     1 NCelD=      1
         NCelK=      1 NCelE2=     1 NClLst=     1 CellRange=     0.0.
 One-electron integrals computed using PRISM.
 NBasis=   197 RedAO= T  NBF=   197
 NBsUse=   197 1.00D-06 NBFU=   197
 Precomputing XC quadrature grid using
 IXCGrd= 2 IRadAn=           5 IRanWt=          -1 IRanGd=           0 AccXCQ= 0.00D+00.
 NRdTot=     427 NPtTot=      123512 NUsed=      126579 NTot=      126611
 NSgBfM=   229   229   229   229   229 NAtAll=     5     5.
 Leave Link  302 at Thu Apr 16 09:36:41 2020, MaxMem= 1073741824 cpu:       1.0
 (Enter /home/matheus/.gaussian/g09/l303.exe)
 DipDrv:  MaxL=1.
 Leave Link  303 at Thu Apr 16 09:36:41 2020, MaxMem= 1073741824 cpu:       0.2
 (Enter /home/matheus/.gaussian/g09/l401.exe)
 Initial guess read from the read-write file.
 B after Tr=     0.000000    0.000000    0.000000
         Rot=    1.000000    0.000000    0.000000    0.000000 Ang=   0.00 deg.
 Guess basis will be translated and rotated to current coordinates.
 Initial guess orbital symmetries:
       Occupied  (A) (A) (A) (A) (A) (A) (A) (A) (A) (A) (A) (A)
                 (A) (A) (A) (A) (A) (A) (A) (A) (A) (A) (A) (A)
                 (A) (A) (A)
       Virtual   (A) (A) (A) (A) (A) (A) (A) (A) (A) (A) (A) (A)
                 (A) (A) (A) (A) (A) (A) (A) (A) (A) (A) (A) (A)
                 (A) (A) (A) (A) (A) (A) (A) (A) (A) (A) (A) (A)
                 (A) (A) (A) (A) (A) (A) (A) (A) (A) (A) (A) (A)
                 (A) (A) (A) (A) (A) (A) (A) (A) (A) (A) (A) (A)
                 (A) (A) (A) (A) (A) (A) (A) (A) (A) (A) (A) (A)
                 (A) (A) (A) (A) (A) (A) (A) (A) (A) (A) (A) (A)
                 (A) (A) (A) (A) (A) (A) (A) (A) (A) (A) (A) (A)
                 (A) (A) (A) (A) (A) (A) (A) (A) (A) (A) (A) (A)
                 (A) (A) (A) (A) (A) (A) (A) (A) (A) (A) (A) (A)
                 (A) (A) (A) (A) (A) (A) (A) (A) (A) (A) (A) (A)
                 (A) (A) (A) (A) (A) (A) (A) (A) (A) (A) (A) (A)
                 (A) (A) (A) (A) (A) (A) (A) (A) (A) (A) (A) (A)
                 (A) (A) (A) (A) (A) (A) (A) (A) (A) (A) (A) (A)
                 (A) (A)
 The electronic state of the initial guess is 1-A.
 Generating alternative initial guess.
 Harris functional with IExCor= 4639 diagonalized for initial guess.
 ExpMin= 2.53D-02 ExpMax= 1.17D+07 ExpMxC= 1.33D+04 IAcc=3 IRadAn=         5 AccDes= 0.00D+00
 HarFok:  IExCor= 4639 AccDes= 0.00D+00 IRadAn=         5 IDoV= 1
 ScaDFX=  1.000000  1.000000  1.000000  1.000000
 FoFCou: FMM=F IPFlag=           0 FMFlag=      100000 FMFlg1=           0
         NFxFlg=           0 DoJE=T BraDBF=F KetDBF=T FulRan=T
         Omega=  0.000000  0.000000  1.000000  0.000000  0.000000 ICntrl=     500 IOpCl=  0
         NMat0=    1 NMatS0=    1 NMatT0=    0 NMatD0=    1 NMtDS0=    0 NMtDT0=    0
         I1Cent=           4 NGrid=           0.
 Petite list used in FoFCou.
 Harris En= -2875.40013432271    
 Leave Link  401 at Thu Apr 16 09:36:41 2020, MaxMem= 1073741824 cpu:       4.7
 (Enter /home/matheus/.gaussian/g09/l502.exe)
 Closed shell SCF:
 Requested convergence on RMS density matrix=1.00D-08 within 128 cycles.
 Requested convergence on MAX density matrix=1.00D-06.
 Requested convergence on             energy=1.00D-06.
 No special actions if energy rises.
 Using DIIS extrapolation, IDIIS=  1040.
 Integral symmetry usage will be decided dynamically.
       126521 words used for storage of precomputed grid.
 IEnd=      305468 IEndB=      305468 NGot=  1073741824 MDV=  1073505667
 LenX=  1073505667 LenY=  1073452785
 Fock matrices will be formed incrementally for  20 cycles.

 Cycle   1  Pass 1  IDiag  1:
 FoFJK:  IHMeth= 1 ICntrl=     0 DoSepK=T KAlg= 1 I1Cent= 0 FoldK=F
 FoFCou: FMM=F IPFlag=           0 FMFlag=      100000 FMFlg1=           0
         NFxFlg=           0 DoJE=T BraDBF=F KetDBF=F FulRan=T
         Omega=  0.000000  0.000000  1.000000  0.000000  0.000000 ICntrl=     500 IOpCl=  0
         NMat0=    1 NMatS0=    1 NMatT0=    0 NMatD0=    1 NMtDS0=    0 NMtDT0=    0
         I1Cent=           0 NGrid=           0.
 Symmetry not used in FoFCou.
 E= -2905.42652734930    
 DIIS: error= 1.36D-03 at cycle   1 NSaved=   1.
 NSaved= 1 IEnMin= 1 EnMin= -2905.42652734930     IErMin= 1 ErrMin= 1.36D-03
 ErrMax= 1.36D-03 EMaxC= 1.00D-01 BMatC= 5.51D-04 BMatP= 5.51D-04
 IDIUse=3 WtCom= 9.86D-01 WtEn= 1.36D-02
 Coeff-Com:  0.100D+01
 Coeff-En:   0.100D+01
 Coeff:      0.100D+01
 Gap=     0.420 Goal=   None    Shift=    0.000
 GapD=    0.420 DampG=2.000 DampE=1.000 DampFc=2.0000 IDamp=-1.
 RMSDP=6.94D-05 MaxDP=2.05D-03              OVMax= 2.84D-03

 Cycle   2  Pass 1  IDiag  1:
 RMSU=  4.91D-05    CP:  1.00D+00
 FoFJK:  IHMeth= 1 ICntrl=     0 DoSepK=T KAlg= 1 I1Cent= 0 FoldK=F
 E= -2905.42661256193     Delta-E=       -0.000085212629 Rises=F Damp=F
 DIIS: error= 1.02D-04 at cycle   2 NSaved=   2.
 NSaved= 2 IEnMin= 2 EnMin= -2905.42661256193     IErMin= 2 ErrMin= 1.02D-04
 ErrMax= 1.02D-04 EMaxC= 1.00D-01 BMatC= 3.66D-06 BMatP= 5.51D-04
 IDIUse=3 WtCom= 9.99D-01 WtEn= 1.02D-03
 Coeff-Com: -0.250D-02 0.100D+01
 Coeff-En:   0.000D+00 0.100D+01
 Coeff:     -0.249D-02 0.100D+01
 Gap=     0.417 Goal=   None    Shift=    0.000
 RMSDP=1.42D-05 MaxDP=5.45D-04 DE=-8.52D-05 OVMax= 7.77D-04

 Cycle   3  Pass 1  IDiag  1:
 RMSU=  8.18D-06    CP:  1.00D+00  1.12D+00
 FoFJK:  IHMeth= 1 ICntrl=     0 DoSepK=T KAlg= 1 I1Cent= 0 FoldK=F
 E= -2905.42661497056     Delta-E=       -0.000002408632 Rises=F Damp=F
 DIIS: error= 7.06D-05 at cycle   3 NSaved=   3.
 NSaved= 3 IEnMin= 3 EnMin= -2905.42661497056     IErMin= 3 ErrMin= 7.06D-05
 ErrMax= 7.06D-05 EMaxC= 1.00D-01 BMatC= 2.57D-06 BMatP= 3.66D-06
 IDIUse=1 WtCom= 1.00D+00 WtEn= 0.00D+00
 Coeff-Com: -0.653D-02 0.454D+00 0.553D+00
 Coeff:     -0.653D-02 0.454D+00 0.553D+00
 Gap=     0.418 Goal=   None    Shift=    0.000
 RMSDP=5.00D-06 MaxDP=2.61D-04 DE=-2.41D-06 OVMax= 3.30D-04

 Cycle   4  Pass 1  IDiag  1:
 RMSU=  2.56D-06    CP:  1.00D+00  1.14D+00  7.34D-01
 FoFJK:  IHMeth= 1 ICntrl=     0 DoSepK=T KAlg= 1 I1Cent= 0 FoldK=F
 E= -2905.42661658959     Delta-E=       -0.000001619032 Rises=F Damp=F
 DIIS: error= 2.28D-05 at cycle   4 NSaved=   4.
 NSaved= 4 IEnMin= 4 EnMin= -2905.42661658959     IErMin= 4 ErrMin= 2.28D-05
 ErrMax= 2.28D-05 EMaxC= 1.00D-01 BMatC= 1.34D-07 BMatP= 2.57D-06
 IDIUse=1 WtCom= 1.00D+00 WtEn= 0.00D+00
 Coeff-Com: -0.168D-02 0.401D-01 0.174D+00 0.788D+00
 Coeff:     -0.168D-02 0.401D-01 0.174D+00 0.788D+00
 Gap=     0.418 Goal=   None    Shift=    0.000
 RMSDP=1.85D-06 MaxDP=5.79D-05 DE=-1.62D-06 OVMax= 1.05D-04

 Cycle   5  Pass 1  IDiag  1:
 RMSU=  9.68D-07    CP:  1.00D+00  1.15D+00  8.16D-01  1.10D+00
 FoFJK:  IHMeth= 1 ICntrl=     0 DoSepK=T KAlg= 1 I1Cent= 0 FoldK=F
 E= -2905.42661668202     Delta-E=       -0.000000092427 Rises=F Damp=F
 DIIS: error= 1.08D-05 at cycle   5 NSaved=   5.
 NSaved= 5 IEnMin= 5 EnMin= -2905.42661668202     IErMin= 5 ErrMin= 1.08D-05
 ErrMax= 1.08D-05 EMaxC= 1.00D-01 BMatC= 3.88D-08 BMatP= 1.34D-07
 IDIUse=1 WtCom= 1.00D+00 WtEn= 0.00D+00
 Coeff-Com:  0.196D-03-0.557D-01-0.148D-02 0.404D+00 0.653D+00
 Coeff:      0.196D-03-0.557D-01-0.148D-02 0.404D+00 0.653D+00
 Gap=     0.418 Goal=   None    Shift=    0.000
 RMSDP=7.68D-07 MaxDP=3.43D-05 DE=-9.24D-08 OVMax= 4.86D-05

 Cycle   6  Pass 1  IDiag  1:
 RMSU=  2.98D-07    CP:  1.00D+00  1.16D+00  8.47D-01  1.21D+00  8.19D-01
 FoFJK:  IHMeth= 1 ICntrl=     0 DoSepK=T KAlg= 1 I1Cent= 0 FoldK=F
 E= -2905.42661671049     Delta-E=       -0.000000028474 Rises=F Damp=F
 DIIS: error= 1.97D-06 at cycle   6 NSaved=   6.
 NSaved= 6 IEnMin= 6 EnMin= -2905.42661671049     IErMin= 6 ErrMin= 1.97D-06
 ErrMax= 1.97D-06 EMaxC= 1.00D-01 BMatC= 1.03D-09 BMatP= 3.88D-08
 IDIUse=1 WtCom= 1.00D+00 WtEn= 0.00D+00
 Coeff-Com:  0.159D-03-0.209D-01-0.100D-01 0.847D-01 0.205D+00 0.741D+00
 Coeff:      0.159D-03-0.209D-01-0.100D-01 0.847D-01 0.205D+00 0.741D+00
 Gap=     0.418 Goal=   None    Shift=    0.000
 RMSDP=1.70D-07 MaxDP=5.42D-06 DE=-2.85D-08 OVMax= 8.61D-06

 Cycle   7  Pass 1  IDiag  1:
 RMSU=  7.12D-08    CP:  1.00D+00  1.16D+00  8.53D-01  1.23D+00  8.74D-01
                    CP:  1.03D+00
 FoFJK:  IHMeth= 1 ICntrl=     0 DoSepK=T KAlg= 1 I1Cent= 0 FoldK=F
 E= -2905.42661671156     Delta-E=       -0.000000001068 Rises=F Damp=F
 DIIS: error= 5.12D-07 at cycle   7 NSaved=   7.
 NSaved= 7 IEnMin= 7 EnMin= -2905.42661671156     IErMin= 7 ErrMin= 5.12D-07
 ErrMax= 5.12D-07 EMaxC= 1.00D-01 BMatC= 4.43D-11 BMatP= 1.03D-09
 IDIUse=1 WtCom= 1.00D+00 WtEn= 0.00D+00
 Coeff-Com: -0.195D-04 0.594D-02 0.911D-03-0.416D-01-0.715D-01-0.111D-01
 Coeff-Com:  0.112D+01
 Coeff:     -0.195D-04 0.594D-02 0.911D-03-0.416D-01-0.715D-01-0.111D-01
 Coeff:      0.112D+01
 Gap=     0.418 Goal=   None    Shift=    0.000
 RMSDP=7.34D-08 MaxDP=3.02D-06 DE=-1.07D-09 OVMax= 4.75D-06

 Cycle   8  Pass 1  IDiag  1:
 RMSU=  2.21D-08    CP:  1.00D+00  1.16D+00  8.55D-01  1.24D+00  8.89D-01
                    CP:  1.15D+00  1.21D+00
 FoFJK:  IHMeth= 1 ICntrl=     0 DoSepK=T KAlg= 1 I1Cent= 0 FoldK=F
 E= -2905.42661671166     Delta-E=       -0.000000000096 Rises=F Damp=F
 DIIS: error= 6.30D-08 at cycle   8 NSaved=   8.
 NSaved= 8 IEnMin= 8 EnMin= -2905.42661671166     IErMin= 8 ErrMin= 6.30D-08
 ErrMax= 6.30D-08 EMaxC= 1.00D-01 BMatC= 1.94D-12 BMatP= 4.43D-11
 IDIUse=1 WtCom= 1.00D+00 WtEn= 0.00D+00
 Coeff-Com: -0.992D-05 0.185D-02 0.524D-03-0.106D-01-0.199D-01-0.261D-01
 Coeff-Com:  0.186D+00 0.868D+00
 Coeff:     -0.992D-05 0.185D-02 0.524D-03-0.106D-01-0.199D-01-0.261D-01
 Coeff:      0.186D+00 0.868D+00
 Gap=     0.418 Goal=   None    Shift=    0.000
 RMSDP=1.06D-08 MaxDP=2.75D-07 DE=-9.64D-11 OVMax= 9.52D-07

 Cycle   9  Pass 1  IDiag  1:
 RMSU=  4.45D-09    CP:  1.00D+00  1.16D+00  8.55D-01  1.24D+00  8.88D-01
                    CP:  1.15D+00  1.25D+00  1.21D+00
 FoFJK:  IHMeth= 1 ICntrl=     0 DoSepK=T KAlg= 1 I1Cent= 0 FoldK=F
 E= -2905.42661671168     Delta-E=       -0.000000000020 Rises=F Damp=F
 DIIS: error= 2.36D-08 at cycle   9 NSaved=   9.
 NSaved= 9 IEnMin= 9 EnMin= -2905.42661671168     IErMin= 9 ErrMin= 2.36D-08
 ErrMax= 2.36D-08 EMaxC= 1.00D-01 BMatC= 1.75D-13 BMatP= 1.94D-12
 IDIUse=1 WtCom= 1.00D+00 WtEn= 0.00D+00
 Coeff-Com:  0.161D-05-0.496D-03-0.831D-04 0.353D-02 0.604D-02 0.469D-03
 Coeff-Com: -0.994D-01 0.393D-01 0.105D+01
 Coeff:      0.161D-05-0.496D-03-0.831D-04 0.353D-02 0.604D-02 0.469D-03
 Coeff:     -0.994D-01 0.393D-01 0.105D+01
 Gap=     0.418 Goal=   None    Shift=    0.000
 RMSDP=5.79D-09 MaxDP=1.80D-07 DE=-2.00D-11 OVMax= 5.09D-07

 SCF Done:  E(RwB97XD) =  -2905.42661671     A.U. after    9 cycles
             Convg  =    0.5794D-08             -V/T =  2.0015
 KE= 2.900930497898D+03 PE=-7.225235912532D+03 EE= 1.275121554967D+03
 Leave Link  502 at Thu Apr 16 09:37:09 2020, MaxMem= 1073741824 cpu:     218.1
 (Enter /home/matheus/.gaussian/g09/l108.exe)
 Variable Step   Value    
 -------- ---- -----------
     1       3    6.236096
 Leave Link  108 at Thu Apr 16 09:37:09 2020, MaxMem= 1073741824 cpu:       0.0
 (Enter /home/matheus/.gaussian/g09/l202.exe)
 ---------------------------------------------------------------------------------------------------
                            Z-MATRIX (ANGSTROMS AND DEGREES)
   CD    Cent   Atom    N1       Length/X        N2       Alpha/Y        N3        Beta/Z          J
 ---------------------------------------------------------------------------------------------------
      1      1  O        0   0.000000          0.000000          0.725000
      2      2  O        0   0.000000          0.000000         -0.725000
      3      3  H        0   0.703781          0.590542          1.023510
      4      4  H        0   0.000000          0.918721         -1.023510
      5      5  Kr       0   0.000000          3.300000          0.000000
 ---------------------------------------------------------------------------------------------------
                         Z-Matrix orientation:                         
 ---------------------------------------------------------------------
 Center     Atomic      Atomic             Coordinates (Angstroms)
 Number     Number       Type             X           Y           Z
 ---------------------------------------------------------------------
      1          8           0        0.000000    0.000000    0.725000
      2          8           0        0.000000    0.000000   -0.725000
      3          1           0        0.703781    0.590542    1.023510
      4          1           0        0.000000    0.918721   -1.023510
      5         36           0        0.000000    3.300000    0.000000
 ---------------------------------------------------------------------
                    Distance matrix (angstroms):
                    1          2          3          4          5
     1  O    0.000000
     2  O    1.450000   0.000000
     3  H    0.966000   1.975180   0.000000
     4  H    1.975180   0.966000   2.189361   0.000000
     5  Kr   3.378702   3.378702   2.980611   2.591923   0.000000
 Stoichiometry    H2KrO2
 Framework group  C1[X(H2KrO2)]
 Deg. of freedom     9
 Full point group                 C1      NOp   1
 RotChk:  IX=0 Diff= 4.15D-04
 Largest Abelian subgroup         C1      NOp   1
 Largest concise Abelian subgroup C1      NOp   1
                         Standard orientation:                         
 ---------------------------------------------------------------------
 Center     Atomic      Atomic             Coordinates (Angstroms)
 Number     Number       Type             X           Y           Z
 ---------------------------------------------------------------------
      1          8           0        2.229889   -0.714143   -0.084554
      2          8           0        2.225558    0.732194    0.018356
      3          1           0        1.646781   -1.063975    0.601565
      4          1           0        1.305989    1.026610    0.047830
      5         36           0       -1.072121   -0.002973   -0.003328
 ---------------------------------------------------------------------
 Rotational constants (GHZ):     26.0310262      1.9586010      1.8276112
 Leave Link  202 at Thu Apr 16 09:37:09 2020, MaxMem= 1073741824 cpu:       0.0
 (Enter /home/matheus/.gaussian/g09/l301.exe)
 Standard basis: Aug-CC-pVTZ (5D, 7F)
 Ernie: Thresh=  0.10000D-02 Tol=  0.10000D-05 Strict=F.
 Ernie:  38 primitive shells out of 205 were deleted.
 There are   197 symmetry adapted basis functions of A   symmetry.
 Integral buffers will be    131072 words long.
 Raffenetti 2 integral format.
 Two-electron integral symmetry is turned on.
   197 basis functions,   415 primitive gaussians,   229 cartesian basis functions
    27 alpha electrons       27 beta electrons
       nuclear repulsion energy       140.6052454596 Hartrees.
 IExCor= 4639 DFT=T Ex+Corr=wB97XD ExCW=0 ScaHFX=  1.000000
 ScaDFX=  1.000000  1.000000  1.000000  1.000000 ScalE2=  1.000000  1.000000
 IRadAn=      5 IRanWt=     -1 IRanGd=            0 ICorTp=0
  HFx wShort=  0.000000 wLong=  0.250000 cFull=  0.222036 cShort=  0.000000 cLong=  0.777964
  DFx wShort=  0.000000 wLong=  0.250000 cFull=  0.000000 cShort=  0.000000 cLong=  1.000000
 NAtoms=    5 NActive=    5 NUniq=    5 SFac= 1.00D+00 NAtFMM=   60 NAOKFM=F Big=F
 R6Disp: Dispersion energy =        -0.0011244564 Hartrees.
 Nuclear repulsion after empirical dispersion term =      140.6041210032 Hartrees.
 Leave Link  301 at Thu Apr 16 09:37:09 2020, MaxMem= 1073741824 cpu:       0.2
 (Enter /home/matheus/.gaussian/g09/l302.exe)
 NPDir=0 NMtPBC=     1 NCelOv=     1 NCel=       1 NClECP=     1 NCelD=      1
         NCelK=      1 NCelE2=     1 NClLst=     1 CellRange=     0.0.
 One-electron integrals computed using PRISM.
 NBasis=   197 RedAO= T  NBF=   197
 NBsUse=   197 1.00D-06 NBFU=   197
 Precomputing XC quadrature grid using
 IXCGrd= 2 IRadAn=           5 IRanWt=          -1 IRanGd=           0 AccXCQ= 0.00D+00.
 NRdTot=     427 NPtTot=      123512 NUsed=      126579 NTot=      126611
 NSgBfM=   229   229   229   229   229 NAtAll=     5     5.
 Leave Link  302 at Thu Apr 16 09:37:09 2020, MaxMem= 1073741824 cpu:       1.0
 (Enter /home/matheus/.gaussian/g09/l303.exe)
 DipDrv:  MaxL=1.
 Leave Link  303 at Thu Apr 16 09:37:09 2020, MaxMem= 1073741824 cpu:       0.2
 (Enter /home/matheus/.gaussian/g09/l401.exe)
 Initial guess read from the read-write file.
 B after Tr=     0.000000    0.000000    0.000000
         Rot=    1.000000    0.000000    0.000000    0.000000 Ang=   0.00 deg.
 Guess basis will be translated and rotated to current coordinates.
 Initial guess orbital symmetries:
       Occupied  (A) (A) (A) (A) (A) (A) (A) (A) (A) (A) (A) (A)
                 (A) (A) (A) (A) (A) (A) (A) (A) (A) (A) (A) (A)
                 (A) (A) (A)
       Virtual   (A) (A) (A) (A) (A) (A) (A) (A) (A) (A) (A) (A)
                 (A) (A) (A) (A) (A) (A) (A) (A) (A) (A) (A) (A)
                 (A) (A) (A) (A) (A) (A) (A) (A) (A) (A) (A) (A)
                 (A) (A) (A) (A) (A) (A) (A) (A) (A) (A) (A) (A)
                 (A) (A) (A) (A) (A) (A) (A) (A) (A) (A) (A) (A)
                 (A) (A) (A) (A) (A) (A) (A) (A) (A) (A) (A) (A)
                 (A) (A) (A) (A) (A) (A) (A) (A) (A) (A) (A) (A)
                 (A) (A) (A) (A) (A) (A) (A) (A) (A) (A) (A) (A)
                 (A) (A) (A) (A) (A) (A) (A) (A) (A) (A) (A) (A)
                 (A) (A) (A) (A) (A) (A) (A) (A) (A) (A) (A) (A)
                 (A) (A) (A) (A) (A) (A) (A) (A) (A) (A) (A) (A)
                 (A) (A) (A) (A) (A) (A) (A) (A) (A) (A) (A) (A)
                 (A) (A) (A) (A) (A) (A) (A) (A) (A) (A) (A) (A)
                 (A) (A) (A) (A) (A) (A) (A) (A) (A) (A) (A) (A)
                 (A) (A)
 The electronic state of the initial guess is 1-A.
 Generating alternative initial guess.
 Harris functional with IExCor= 4639 diagonalized for initial guess.
 ExpMin= 2.53D-02 ExpMax= 1.17D+07 ExpMxC= 1.33D+04 IAcc=3 IRadAn=         5 AccDes= 0.00D+00
 HarFok:  IExCor= 4639 AccDes= 0.00D+00 IRadAn=         5 IDoV= 1
 ScaDFX=  1.000000  1.000000  1.000000  1.000000
 FoFCou: FMM=F IPFlag=           0 FMFlag=      100000 FMFlg1=           0
         NFxFlg=           0 DoJE=T BraDBF=F KetDBF=T FulRan=T
         Omega=  0.000000  0.000000  1.000000  0.000000  0.000000 ICntrl=     500 IOpCl=  0
         NMat0=    1 NMatS0=    1 NMatT0=    0 NMatD0=    1 NMtDS0=    0 NMtDT0=    0
         I1Cent=           4 NGrid=           0.
 Petite list used in FoFCou.
 Harris En= -2875.40222377491    
 Leave Link  401 at Thu Apr 16 09:37:09 2020, MaxMem= 1073741824 cpu:       4.6
 (Enter /home/matheus/.gaussian/g09/l502.exe)
 Closed shell SCF:
 Requested convergence on RMS density matrix=1.00D-08 within 128 cycles.
 Requested convergence on MAX density matrix=1.00D-06.
 Requested convergence on             energy=1.00D-06.
 No special actions if energy rises.
 Using DIIS extrapolation, IDIIS=  1040.
 Integral symmetry usage will be decided dynamically.
       126521 words used for storage of precomputed grid.
 IEnd=      305468 IEndB=      305468 NGot=  1073741824 MDV=  1073505667
 LenX=  1073505667 LenY=  1073452785
 Fock matrices will be formed incrementally for  20 cycles.

 Cycle   1  Pass 1  IDiag  1:
 FoFJK:  IHMeth= 1 ICntrl=     0 DoSepK=T KAlg= 1 I1Cent= 0 FoldK=F
 FoFCou: FMM=F IPFlag=           0 FMFlag=      100000 FMFlg1=           0
         NFxFlg=           0 DoJE=T BraDBF=F KetDBF=F FulRan=T
         Omega=  0.000000  0.000000  1.000000  0.000000  0.000000 ICntrl=     500 IOpCl=  0
         NMat0=    1 NMatS0=    1 NMatT0=    0 NMatD0=    1 NMtDS0=    0 NMtDT0=    0
         I1Cent=           0 NGrid=           0.
 Symmetry not used in FoFCou.
 E= -2905.42744591932    
 DIIS: error= 1.19D-03 at cycle   1 NSaved=   1.
 NSaved= 1 IEnMin= 1 EnMin= -2905.42744591932     IErMin= 1 ErrMin= 1.19D-03
 ErrMax= 1.19D-03 EMaxC= 1.00D-01 BMatC= 4.15D-04 BMatP= 4.15D-04
 IDIUse=3 WtCom= 9.88D-01 WtEn= 1.19D-02
 Coeff-Com:  0.100D+01
 Coeff-En:   0.100D+01
 Coeff:      0.100D+01
 Gap=     0.420 Goal=   None    Shift=    0.000
 GapD=    0.420 DampG=2.000 DampE=1.000 DampFc=2.0000 IDamp=-1.
 RMSDP=6.48D-05 MaxDP=1.87D-03              OVMax= 2.47D-03

 Cycle   2  Pass 1  IDiag  1:
 RMSU=  4.58D-05    CP:  1.00D+00
 FoFJK:  IHMeth= 1 ICntrl=     0 DoSepK=T KAlg= 1 I1Cent= 0 FoldK=F
 E= -2905.42751113099     Delta-E=       -0.000065211661 Rises=F Damp=F
 DIIS: error= 8.36D-05 at cycle   2 NSaved=   2.
 NSaved= 2 IEnMin= 2 EnMin= -2905.42751113099     IErMin= 2 ErrMin= 8.36D-05
 ErrMax= 8.36D-05 EMaxC= 1.00D-01 BMatC= 2.42D-06 BMatP= 4.15D-04
 IDIUse=1 WtCom= 1.00D+00 WtEn= 0.00D+00
 Coeff-Com: -0.428D-02 0.100D+01
 Coeff:     -0.428D-02 0.100D+01
 Gap=     0.417 Goal=   None    Shift=    0.000
 RMSDP=1.24D-05 MaxDP=4.31D-04 DE=-6.52D-05 OVMax= 6.44D-04

 Cycle   3  Pass 1  IDiag  1:
 RMSU=  6.65D-06    CP:  1.00D+00  1.12D+00
 FoFJK:  IHMeth= 1 ICntrl=     0 DoSepK=T KAlg= 1 I1Cent= 0 FoldK=F
 E= -2905.42751293535     Delta-E=       -0.000001804365 Rises=F Damp=F
 DIIS: error= 6.26D-05 at cycle   3 NSaved=   3.
 NSaved= 3 IEnMin= 3 EnMin= -2905.42751293535     IErMin= 3 ErrMin= 6.26D-05
 ErrMax= 6.26D-05 EMaxC= 1.00D-01 BMatC= 1.65D-06 BMatP= 2.42D-06
 IDIUse=1 WtCom= 1.00D+00 WtEn= 0.00D+00
 Coeff-Com: -0.655D-02 0.449D+00 0.558D+00
 Coeff:     -0.655D-02 0.449D+00 0.558D+00
 Gap=     0.418 Goal=   None    Shift=    0.000
 RMSDP=4.11D-06 MaxDP=2.12D-04 DE=-1.80D-06 OVMax= 2.77D-04

 Cycle   4  Pass 1  IDiag  1:
 RMSU=  2.27D-06    CP:  1.00D+00  1.14D+00  7.63D-01
 FoFJK:  IHMeth= 1 ICntrl=     0 DoSepK=T KAlg= 1 I1Cent= 0 FoldK=F
 E= -2905.42751397620     Delta-E=       -0.000001040848 Rises=F Damp=F
 DIIS: error= 2.11D-05 at cycle   4 NSaved=   4.
 NSaved= 4 IEnMin= 4 EnMin= -2905.42751397620     IErMin= 4 ErrMin= 2.11D-05
 ErrMax= 2.11D-05 EMaxC= 1.00D-01 BMatC= 1.01D-07 BMatP= 1.65D-06
 IDIUse=1 WtCom= 1.00D+00 WtEn= 0.00D+00
 Coeff-Com: -0.150D-02 0.268D-01 0.180D+00 0.795D+00
 Coeff:     -0.150D-02 0.268D-01 0.180D+00 0.795D+00
 Gap=     0.418 Goal=   None    Shift=    0.000
 RMSDP=1.67D-06 MaxDP=5.01D-05 DE=-1.04D-06 OVMax= 9.19D-05

 Cycle   5  Pass 1  IDiag  1:
 RMSU=  8.13D-07    CP:  1.00D+00  1.15D+00  8.61D-01  1.11D+00
 FoFJK:  IHMeth= 1 ICntrl=     0 DoSepK=T KAlg= 1 I1Cent= 0 FoldK=F
 E= -2905.42751404743     Delta-E=       -0.000000071234 Rises=F Damp=F
 DIIS: error= 9.54D-06 at cycle   5 NSaved=   5.
 NSaved= 5 IEnMin= 5 EnMin= -2905.42751404743     IErMin= 5 ErrMin= 9.54D-06
 ErrMax= 9.54D-06 EMaxC= 1.00D-01 BMatC= 2.68D-08 BMatP= 1.01D-07
 IDIUse=1 WtCom= 1.00D+00 WtEn= 0.00D+00
 Coeff-Com:  0.221D-03-0.567D-01 0.658D-02 0.404D+00 0.646D+00
 Coeff:      0.221D-03-0.567D-01 0.658D-02 0.404D+00 0.646D+00
 Gap=     0.418 Goal=   None    Shift=    0.000
 RMSDP=6.57D-07 MaxDP=2.89D-05 DE=-7.12D-08 OVMax= 3.98D-05

 Cycle   6  Pass 1  IDiag  1:
 RMSU=  2.50D-07    CP:  1.00D+00  1.16D+00  8.95D-01  1.22D+00  8.13D-01
 FoFJK:  IHMeth= 1 ICntrl=     0 DoSepK=T KAlg= 1 I1Cent= 0 FoldK=F
 E= -2905.42751406719     Delta-E=       -0.000000019753 Rises=F Damp=F
 DIIS: error= 1.54D-06 at cycle   6 NSaved=   6.
 NSaved= 6 IEnMin= 6 EnMin= -2905.42751406719     IErMin= 6 ErrMin= 1.54D-06
 ErrMax= 1.54D-06 EMaxC= 1.00D-01 BMatC= 6.98D-10 BMatP= 2.68D-08
 IDIUse=1 WtCom= 1.00D+00 WtEn= 0.00D+00
 Coeff-Com:  0.157D-03-0.198D-01-0.788D-02 0.793D-01 0.197D+00 0.751D+00
 Coeff:      0.157D-03-0.198D-01-0.788D-02 0.793D-01 0.197D+00 0.751D+00
 Gap=     0.418 Goal=   None    Shift=    0.000
 RMSDP=1.46D-07 MaxDP=5.18D-06 DE=-1.98D-08 OVMax= 7.26D-06

 Cycle   7  Pass 1  IDiag  1:
 RMSU=  5.88D-08    CP:  1.00D+00  1.16D+00  9.01D-01  1.24D+00  8.66D-01
                    CP:  1.03D+00
 FoFJK:  IHMeth= 1 ICntrl=     0 DoSepK=T KAlg= 1 I1Cent= 0 FoldK=F
 E= -2905.42751406794     Delta-E=       -0.000000000754 Rises=F Damp=F
 DIIS: error= 4.56D-07 at cycle   7 NSaved=   7.
 NSaved= 7 IEnMin= 7 EnMin= -2905.42751406794     IErMin= 7 ErrMin= 4.56D-07
 ErrMax= 4.56D-07 EMaxC= 1.00D-01 BMatC= 3.17D-11 BMatP= 6.98D-10
 IDIUse=1 WtCom= 1.00D+00 WtEn= 0.00D+00
 Coeff-Com: -0.236D-04 0.632D-02 0.626D-04-0.436D-01-0.731D-01-0.762D-02
 Coeff-Com:  0.112D+01
 Coeff:     -0.236D-04 0.632D-02 0.626D-04-0.436D-01-0.731D-01-0.762D-02
 Coeff:      0.112D+01
 Gap=     0.418 Goal=   None    Shift=    0.000
 RMSDP=6.16D-08 MaxDP=2.58D-06 DE=-7.54D-10 OVMax= 3.86D-06

 Cycle   8  Pass 1  IDiag  1:
 RMSU=  1.90D-08    CP:  1.00D+00  1.16D+00  9.03D-01  1.25D+00  8.80D-01
                    CP:  1.14D+00  1.23D+00
 FoFJK:  IHMeth= 1 ICntrl=     0 DoSepK=T KAlg= 1 I1Cent= 0 FoldK=F
 E= -2905.42751406800     Delta-E=       -0.000000000060 Rises=F Damp=F
 DIIS: error= 5.15D-08 at cycle   8 NSaved=   8.
 NSaved= 8 IEnMin= 8 EnMin= -2905.42751406800     IErMin= 8 ErrMin= 5.15D-08
 ErrMax= 5.15D-08 EMaxC= 1.00D-01 BMatC= 1.07D-12 BMatP= 3.17D-11
 IDIUse=1 WtCom= 1.00D+00 WtEn= 0.00D+00
 Coeff-Com: -0.860D-05 0.154D-02 0.223D-03-0.885D-02-0.162D-01-0.208D-01
 Coeff-Com:  0.155D+00 0.889D+00
 Coeff:     -0.860D-05 0.154D-02 0.223D-03-0.885D-02-0.162D-01-0.208D-01
 Coeff:      0.155D+00 0.889D+00
 Gap=     0.418 Goal=   None    Shift=    0.000
 RMSDP=9.23D-09 MaxDP=2.67D-07 DE=-6.00D-11 OVMax= 7.98D-07

 SCF Done:  E(RwB97XD) =  -2905.42751407     A.U. after    8 cycles
             Convg  =    0.9228D-08             -V/T =  2.0016
 KE= 2.900925131118D+03 PE=-7.218958465735D+03 EE= 1.272001699546D+03
 Leave Link  502 at Thu Apr 16 09:37:35 2020, MaxMem= 1073741824 cpu:     202.5
 (Enter /home/matheus/.gaussian/g09/l108.exe)
 Variable Step   Value    
 -------- ---- -----------
     1       4    6.425069
 Leave Link  108 at Thu Apr 16 09:37:35 2020, MaxMem= 1073741824 cpu:       0.0
 (Enter /home/matheus/.gaussian/g09/l202.exe)
 ---------------------------------------------------------------------------------------------------
                            Z-MATRIX (ANGSTROMS AND DEGREES)
   CD    Cent   Atom    N1       Length/X        N2       Alpha/Y        N3        Beta/Z          J
 ---------------------------------------------------------------------------------------------------
      1      1  O        0   0.000000          0.000000          0.725000
      2      2  O        0   0.000000          0.000000         -0.725000
      3      3  H        0   0.703781          0.590542          1.023510
      4      4  H        0   0.000000          0.918721         -1.023510
      5      5  Kr       0   0.000000          3.400000          0.000000
 ---------------------------------------------------------------------------------------------------
                         Z-Matrix orientation:                         
 ---------------------------------------------------------------------
 Center     Atomic      Atomic             Coordinates (Angstroms)
 Number     Number       Type             X           Y           Z
 ---------------------------------------------------------------------
      1          8           0        0.000000    0.000000    0.725000
      2          8           0        0.000000    0.000000   -0.725000
      3          1           0        0.703781    0.590542    1.023510
      4          1           0        0.000000    0.918721   -1.023510
      5         36           0        0.000000    3.400000    0.000000
 ---------------------------------------------------------------------
                    Distance matrix (angstroms):
                    1          2          3          4          5
     1  O    0.000000
     2  O    1.450000   0.000000
     3  H    0.966000   1.975180   0.000000
     4  H    1.975180   0.966000   2.189361   0.000000
     5  Kr   3.476439   3.476439   3.071797   2.684087   0.000000
 Stoichiometry    H2KrO2
 Framework group  C1[X(H2KrO2)]
 Deg. of freedom     9
 Full point group                 C1      NOp   1
 RotChk:  IX=0 Diff= 3.87D-04
 Largest Abelian subgroup         C1      NOp   1
 Largest concise Abelian subgroup C1      NOp   1
                         Standard orientation:                         
 ---------------------------------------------------------------------
 Center     Atomic      Atomic             Coordinates (Angstroms)
 Number     Number       Type             X           Y           Z
 ---------------------------------------------------------------------
[...]
 Coeff:     -0.498D-03 0.100D+01
 Gap=     0.416 Goal=   None    Shift=    0.000
 RMSDP=1.88D-06 MaxDP=4.56D-05 DE=-1.14D-06 OVMax= 1.02D-04

 Cycle   3  Pass 1  IDiag  1:
 RMSU=  8.70D-07    CP:  1.00D+00  1.10D+00
 FoFJK:  IHMeth= 1 ICntrl=     0 DoSepK=T KAlg= 1 I1Cent= 0 FoldK=F
 E= -2905.42742110696     Delta-E=       -0.000000040861 Rises=F Damp=F
 DIIS: error= 7.26D-06 at cycle   3 NSaved=   3.
 NSaved= 3 IEnMin= 3 EnMin= -2905.42742110696     IErMin= 3 ErrMin= 7.26D-06
 ErrMax= 7.26D-06 EMaxC= 1.00D-01 BMatC= 6.46D-09 BMatP= 3.52D-08
 IDIUse=1 WtCom= 1.00D+00 WtEn= 0.00D+00
 Coeff-Com: -0.614D-02 0.269D+00 0.737D+00
 Coeff:     -0.614D-02 0.269D+00 0.737D+00
 Gap=     0.416 Goal=   None    Shift=    0.000
 RMSDP=3.40D-07 MaxDP=9.90D-06 DE=-4.09D-08 OVMax= 3.36D-05

 Cycle   4  Pass 1  IDiag  1:
 RMSU=  2.06D-07    CP:  1.00D+00  1.11D+00  1.01D+00
 FoFJK:  IHMeth= 1 ICntrl=     0 DoSepK=T KAlg= 1 I1Cent= 0 FoldK=F
 E= -2905.42742111301     Delta-E=       -0.000000006053 Rises=F Damp=F
 DIIS: error= 1.39D-06 at cycle   4 NSaved=   4.
 NSaved= 4 IEnMin= 4 EnMin= -2905.42742111301     IErMin= 4 ErrMin= 1.39D-06
 ErrMax= 1.39D-06 EMaxC= 1.00D-01 BMatC= 5.18D-10 BMatP= 6.46D-09
 IDIUse=1 WtCom= 1.00D+00 WtEn= 0.00D+00
 Coeff-Com: -0.130D-02 0.750D-02 0.157D+00 0.837D+00
 Coeff:     -0.130D-02 0.750D-02 0.157D+00 0.837D+00
 Gap=     0.416 Goal=   None    Shift=    0.000
 RMSDP=1.64D-07 MaxDP=6.19D-06 DE=-6.05D-09 OVMax= 1.13D-05

 Cycle   5  Pass 1  IDiag  1:
 RMSU=  7.82D-08    CP:  1.00D+00  1.11D+00  1.09D+00  1.16D+00
 FoFJK:  IHMeth= 1 ICntrl=     0 DoSepK=T KAlg= 1 I1Cent= 0 FoldK=F
 E= -2905.42742111346     Delta-E=       -0.000000000443 Rises=F Damp=F
 DIIS: error= 1.32D-06 at cycle   5 NSaved=   5.
 NSaved= 5 IEnMin= 5 EnMin= -2905.42742111346     IErMin= 5 ErrMin= 1.32D-06
 ErrMax= 1.32D-06 EMaxC= 1.00D-01 BMatC= 2.89D-10 BMatP= 5.18D-10
 IDIUse=1 WtCom= 1.00D+00 WtEn= 0.00D+00
 Coeff-Com:  0.460D-03-0.492D-01-0.577D-01 0.475D+00 0.631D+00
 Coeff:      0.460D-03-0.492D-01-0.577D-01 0.475D+00 0.631D+00
 Gap=     0.416 Goal=   None    Shift=    0.000
 RMSDP=7.22D-08 MaxDP=2.96D-06 DE=-4.43D-10 OVMax= 5.17D-06

 Cycle   6  Pass 1  IDiag  1:
 RMSU=  2.76D-08    CP:  1.00D+00  1.11D+00  1.13D+00  1.30D+00  9.08D-01
 FoFJK:  IHMeth= 1 ICntrl=     0 DoSepK=T KAlg= 1 I1Cent= 0 FoldK=F
 E= -2905.42742111368     Delta-E=       -0.000000000228 Rises=F Damp=F
 DIIS: error= 1.49D-07 at cycle   6 NSaved=   6.
 NSaved= 6 IEnMin= 6 EnMin= -2905.42742111368     IErMin= 6 ErrMin= 1.49D-07
 ErrMax= 1.49D-07 EMaxC= 1.00D-01 BMatC= 7.22D-12 BMatP= 2.89D-10
 IDIUse=1 WtCom= 1.00D+00 WtEn= 0.00D+00
 Coeff-Com:  0.209D-03-0.146D-01-0.261D-01 0.952D-01 0.190D+00 0.756D+00
 Coeff:      0.209D-03-0.146D-01-0.261D-01 0.952D-01 0.190D+00 0.756D+00
 Gap=     0.416 Goal=   None    Shift=    0.000
 RMSDP=1.73D-08 MaxDP=7.53D-07 DE=-2.28D-10 OVMax= 1.30D-06

 Cycle   7  Pass 1  IDiag  1:
 RMSU=  8.27D-09    CP:  1.00D+00  1.11D+00  1.13D+00  1.33D+00  9.77D-01
                    CP:  1.12D+00
 FoFJK:  IHMeth= 1 ICntrl=     0 DoSepK=T KAlg= 1 I1Cent= 0 FoldK=F
 E= -2905.42742111368     Delta-E=        0.000000000002 Rises=F Damp=F
 DIIS: error= 6.16D-08 at cycle   7 NSaved=   7.
 NSaved= 7 IEnMin= 6 EnMin= -2905.42742111368     IErMin= 7 ErrMin= 6.16D-08
 ErrMax= 6.16D-08 EMaxC= 1.00D-01 BMatC= 1.22D-12 BMatP= 7.22D-12
 IDIUse=1 WtCom= 1.00D+00 WtEn= 0.00D+00
 Coeff-Com: -0.192D-04 0.514D-02 0.208D-02-0.647D-01-0.631D-01 0.262D+00
 Coeff-Com:  0.858D+00
 Coeff:     -0.192D-04 0.514D-02 0.208D-02-0.647D-01-0.631D-01 0.262D+00
 Coeff:      0.858D+00
 Gap=     0.416 Goal=   None    Shift=    0.000
 RMSDP=9.78D-09 MaxDP=4.19D-07 DE= 1.82D-12 OVMax= 7.30D-07

 SCF Done:  E(RwB97XD) =  -2905.42742111     A.U. after    7 cycles
             Convg  =    0.9783D-08             -V/T =  2.0015
 KE= 2.900939521016D+03 PE=-7.152325869551D+03 EE= 1.238892159564D+03
 Leave Link  502 at Thu Apr 16 09:43:26 2020, MaxMem= 1073741824 cpu:     135.2
 (Enter /home/matheus/.gaussian/g09/l108.exe)
 Variable Step   Value    
 -------- ---- -----------
     1      20    9.448631
 Leave Link  108 at Thu Apr 16 09:43:26 2020, MaxMem= 1073741824 cpu:       0.0
 (Enter /home/matheus/.gaussian/g09/l202.exe)
 ---------------------------------------------------------------------------------------------------
                            Z-MATRIX (ANGSTROMS AND DEGREES)
   CD    Cent   Atom    N1       Length/X        N2       Alpha/Y        N3        Beta/Z          J
 ---------------------------------------------------------------------------------------------------
      1      1  O        0   0.000000          0.000000          0.725000
      2      2  O        0   0.000000          0.000000         -0.725000
      3      3  H        0   0.703781          0.590542          1.023510
      4      4  H        0   0.000000          0.918721         -1.023510
      5      5  Kr       0   0.000000          5.000000          0.000000
 ---------------------------------------------------------------------------------------------------
                         Z-Matrix orientation:                         
 ---------------------------------------------------------------------
 Center     Atomic      Atomic             Coordinates (Angstroms)
 Number     Number       Type             X           Y           Z
 ---------------------------------------------------------------------
      1          8           0        0.000000    0.000000    0.725000
      2          8           0        0.000000    0.000000   -0.725000
      3          1           0        0.703781    0.590542    1.023510
      4          1           0        0.000000    0.918721   -1.023510
      5         36           0        0.000000    5.000000    0.000000
 ---------------------------------------------------------------------
                    Distance matrix (angstroms):
                    1          2          3          4          5
     1  O    0.000000
     2  O    1.450000   0.000000
     3  H    0.966000   1.975180   0.000000
     4  H    1.975180   0.966000   2.189361   0.000000
     5  Kr   5.052289   5.052289   4.581070   4.207661   0.000000
 Stoichiometry    H2KrO2
 Framework group  C1[X(H2KrO2)]
 Deg. of freedom     9
 Full point group                 C1      NOp   1
 RotChk:  IX=0 Diff= 1.77D-04
 Largest Abelian subgroup         C1      NOp   1
 Largest concise Abelian subgroup C1      NOp   1
                         Standard orientation:                         
 ---------------------------------------------------------------------
 Center     Atomic      Atomic             Coordinates (Angstroms)
 Number     Number       Type             X           Y           Z
 ---------------------------------------------------------------------
      1          8           0        3.361997   -0.716568   -0.086717
      2          8           0        3.360237    0.729768    0.016285
      3          1           0        2.776556   -1.065308    0.597969
      4          1           0        2.441175    1.025973    0.043562
      5         36           0       -1.638767   -0.001841   -0.002169
 ---------------------------------------------------------------------
 Rotational constants (GHZ):     26.0324859      0.8482427      0.8227032
 Leave Link  202 at Thu Apr 16 09:43:26 2020, MaxMem= 1073741824 cpu:       0.0
 (Enter /home/matheus/.gaussian/g09/l301.exe)
 Standard basis: Aug-CC-pVTZ (5D, 7F)
 Ernie: Thresh=  0.10000D-02 Tol=  0.10000D-05 Strict=F.
 Ernie:  38 primitive shells out of 205 were deleted.
 There are   197 symmetry adapted basis functions of A   symmetry.
 Integral buffers will be    131072 words long.
 Raffenetti 2 integral format.
 Two-electron integral symmetry is turned on.
   197 basis functions,   415 primitive gaussians,   229 cartesian basis functions
    27 alpha electrons       27 beta electrons
       nuclear repulsion energy       105.6662826785 Hartrees.
 IExCor= 4639 DFT=T Ex+Corr=wB97XD ExCW=0 ScaHFX=  1.000000
 ScaDFX=  1.000000  1.000000  1.000000  1.000000 ScalE2=  1.000000  1.000000
 IRadAn=      5 IRanWt=     -1 IRanGd=            0 ICorTp=0
  HFx wShort=  0.000000 wLong=  0.250000 cFull=  0.222036 cShort=  0.000000 cLong=  0.777964
  DFx wShort=  0.000000 wLong=  0.250000 cFull=  0.000000 cShort=  0.000000 cLong=  1.000000
 NAtoms=    5 NActive=    5 NUniq=    5 SFac= 1.00D+00 NAtFMM=   60 NAOKFM=F Big=F
 R6Disp: Dispersion energy =        -0.0005170348 Hartrees.
 Nuclear repulsion after empirical dispersion term =      105.6657656437 Hartrees.
 Leave Link  301 at Thu Apr 16 09:43:26 2020, MaxMem= 1073741824 cpu:       0.2
 (Enter /home/matheus/.gaussian/g09/l302.exe)
 NPDir=0 NMtPBC=     1 NCelOv=     1 NCel=       1 NClECP=     1 NCelD=      1
         NCelK=      1 NCelE2=     1 NClLst=     1 CellRange=     0.0.
 One-electron integrals computed using PRISM.
 NBasis=   197 RedAO= T  NBF=   197
 NBsUse=   197 1.00D-06 NBFU=   197
 Precomputing XC quadrature grid using
 IXCGrd= 2 IRadAn=           5 IRanWt=          -1 IRanGd=           0 AccXCQ= 0.00D+00.
 NRdTot=     427 NPtTot=      123814 NUsed=      126881 NTot=      126913
 NSgBfM=   228   228   229   229   229 NAtAll=     5     5.
 Leave Link  302 at Thu Apr 16 09:43:26 2020, MaxMem= 1073741824 cpu:       1.2
 (Enter /home/matheus/.gaussian/g09/l303.exe)
 DipDrv:  MaxL=1.
 Leave Link  303 at Thu Apr 16 09:43:27 2020, MaxMem= 1073741824 cpu:       0.2
 (Enter /home/matheus/.gaussian/g09/l401.exe)
 Initial guess read from the read-write file.
 B after Tr=     0.000000    0.000000    0.000000
         Rot=    1.000000    0.000000    0.000000    0.000000 Ang=   0.00 deg.
 Guess basis will be translated and rotated to current coordinates.
 Initial guess orbital symmetries:
       Occupied  (A) (A) (A) (A) (A) (A) (A) (A) (A) (A) (A) (A)
                 (A) (A) (A) (A) (A) (A) (A) (A) (A) (A) (A) (A)
                 (A) (A) (A)
       Virtual   (A) (A) (A) (A) (A) (A) (A) (A) (A) (A) (A) (A)
                 (A) (A) (A) (A) (A) (A) (A) (A) (A) (A) (A) (A)
                 (A) (A) (A) (A) (A) (A) (A) (A) (A) (A) (A) (A)
                 (A) (A) (A) (A) (A) (A) (A) (A) (A) (A) (A) (A)
                 (A) (A) (A) (A) (A) (A) (A) (A) (A) (A) (A) (A)
                 (A) (A) (A) (A) (A) (A) (A) (A) (A) (A) (A) (A)
                 (A) (A) (A) (A) (A) (A) (A) (A) (A) (A) (A) (A)
                 (A) (A) (A) (A) (A) (A) (A) (A) (A) (A) (A) (A)
                 (A) (A) (A) (A) (A) (A) (A) (A) (A) (A) (A) (A)
                 (A) (A) (A) (A) (A) (A) (A) (A) (A) (A) (A) (A)
                 (A) (A) (A) (A) (A) (A) (A) (A) (A) (A) (A) (A)
                 (A) (A) (A) (A) (A) (A) (A) (A) (A) (A) (A) (A)
                 (A) (A) (A) (A) (A) (A) (A) (A) (A) (A) (A) (A)
                 (A) (A) (A) (A) (A) (A) (A) (A) (A) (A) (A) (A)
                 (A) (A)
 The electronic state of the initial guess is 1-A.
 Generating alternative initial guess.
 Harris functional with IExCor= 4639 diagonalized for initial guess.
 ExpMin= 2.53D-02 ExpMax= 1.17D+07 ExpMxC= 1.33D+04 IAcc=3 IRadAn=         5 AccDes= 0.00D+00
 HarFok:  IExCor= 4639 AccDes= 0.00D+00 IRadAn=         5 IDoV= 1
 ScaDFX=  1.000000  1.000000  1.000000  1.000000
 FoFCou: FMM=F IPFlag=           0 FMFlag=      100000 FMFlg1=           0
         NFxFlg=           0 DoJE=T BraDBF=F KetDBF=T FulRan=T
         Omega=  0.000000  0.000000  1.000000  0.000000  0.000000 ICntrl=     500 IOpCl=  0
         NMat0=    1 NMatS0=    1 NMatT0=    0 NMatD0=    1 NMtDS0=    0 NMtDT0=    0
         I1Cent=           4 NGrid=           0.
 Petite list used in FoFCou.
 Harris En= -2875.40397498706    
 Leave Link  401 at Thu Apr 16 09:43:27 2020, MaxMem= 1073741824 cpu:       3.9
 (Enter /home/matheus/.gaussian/g09/l502.exe)
 Closed shell SCF:
 Requested convergence on RMS density matrix=1.00D-08 within 128 cycles.
 Requested convergence on MAX density matrix=1.00D-06.
 Requested convergence on             energy=1.00D-06.
 No special actions if energy rises.
 Using DIIS extrapolation, IDIIS=  1040.
 Integral symmetry usage will be decided dynamically.
       126823 words used for storage of precomputed grid.
 IEnd=      305770 IEndB=      305770 NGot=  1073741824 MDV=  1073505365
 LenX=  1073505365 LenY=  1073452483
 Fock matrices will be formed incrementally for  20 cycles.

 Cycle   1  Pass 1  IDiag  1:
 FoFJK:  IHMeth= 1 ICntrl=     0 DoSepK=T KAlg= 1 I1Cent= 0 FoldK=F
 FoFCou: FMM=F IPFlag=           0 FMFlag=      100000 FMFlg1=           0
         NFxFlg=           0 DoJE=T BraDBF=F KetDBF=F FulRan=T
         Omega=  0.000000  0.000000  1.000000  0.000000  0.000000 ICntrl=     500 IOpCl=  0
         NMat0=    1 NMatS0=    1 NMatT0=    0 NMatD0=    1 NMtDS0=    0 NMtDT0=    0
         I1Cent=           0 NGrid=           0.
 Symmetry not used in FoFCou.
 E= -2905.42736218161    
 DIIS: error= 1.42D-04 at cycle   1 NSaved=   1.
 NSaved= 1 IEnMin= 1 EnMin= -2905.42736218161     IErMin= 1 ErrMin= 1.42D-04
 ErrMax= 1.42D-04 EMaxC= 1.00D-01 BMatC= 3.76D-06 BMatP= 3.76D-06
 IDIUse=3 WtCom= 9.99D-01 WtEn= 1.42D-03
 Coeff-Com:  0.100D+01
 Coeff-En:   0.100D+01
 Coeff:      0.100D+01
 Gap=     0.416 Goal=   None    Shift=    0.000
 RMSDP=1.35D-05 MaxDP=5.01D-04              OVMax= 4.65D-04

 Cycle   2  Pass 1  IDiag  1:
 RMSU=  9.52D-06    CP:  1.00D+00
 FoFJK:  IHMeth= 1 ICntrl=     0 DoSepK=T KAlg= 1 I1Cent= 0 FoldK=F
 E= -2905.42736312942     Delta-E=       -0.000000947813 Rises=F Damp=F
 DIIS: error= 1.62D-05 at cycle   2 NSaved=   2.
 NSaved= 2 IEnMin= 2 EnMin= -2905.42736312942     IErMin= 2 ErrMin= 1.62D-05
 ErrMax= 1.62D-05 EMaxC= 1.00D-01 BMatC= 2.96D-08 BMatP= 3.76D-06
 IDIUse=1 WtCom= 1.00D+00 WtEn= 0.00D+00
 Coeff-Com:  0.716D-04 0.100D+01
 Coeff:      0.716D-04 0.100D+01
 Gap=     0.416 Goal=   None    Shift=    0.000
 RMSDP=1.71D-06 MaxDP=3.99D-05 DE=-9.48D-07 OVMax= 9.39D-05

 Cycle   3  Pass 1  IDiag  1:
 RMSU=  8.20D-07    CP:  1.00D+00  1.09D+00
 FoFJK:  IHMeth= 1 ICntrl=     0 DoSepK=T KAlg= 1 I1Cent= 0 FoldK=F
 E= -2905.42736316313     Delta-E=       -0.000000033713 Rises=F Damp=F
 DIIS: error= 7.16D-06 at cycle   3 NSaved=   3.
 NSaved= 3 IEnMin= 3 EnMin= -2905.42736316313     IErMin= 3 ErrMin= 7.16D-06
 ErrMax= 7.16D-06 EMaxC= 1.00D-01 BMatC= 5.45D-09 BMatP= 2.96D-08
 IDIUse=1 WtCom= 1.00D+00 WtEn= 0.00D+00
 Coeff-Com: -0.575D-02 0.271D+00 0.735D+00
 Coeff:     -0.575D-02 0.271D+00 0.735D+00
 Gap=     0.416 Goal=   None    Shift=    0.000
 RMSDP=3.06D-07 MaxDP=8.59D-06 DE=-3.37D-08 OVMax= 3.04D-05

 Cycle   4  Pass 1  IDiag  1:
 RMSU=  1.88D-07    CP:  1.00D+00  1.10D+00  1.01D+00
 FoFJK:  IHMeth= 1 ICntrl=     0 DoSepK=T KAlg= 1 I1Cent= 0 FoldK=F
 E= -2905.42736316822     Delta-E=       -0.000000005086 Rises=F Damp=F
 DIIS: error= 1.16D-06 at cycle   4 NSaved=   4.
 NSaved= 4 IEnMin= 4 EnMin= -2905.42736316822     IErMin= 4 ErrMin= 1.16D-06
 ErrMax= 1.16D-06 EMaxC= 1.00D-01 BMatC= 3.95D-10 BMatP= 5.45D-09
 IDIUse=1 WtCom= 1.00D+00 WtEn= 0.00D+00
 Coeff-Com: -0.116D-02 0.541D-02 0.145D+00 0.851D+00
 Coeff:     -0.116D-02 0.541D-02 0.145D+00 0.851D+00
 Gap=     0.416 Goal=   None    Shift=    0.000
 RMSDP=1.52D-07 MaxDP=5.53D-06 DE=-5.09D-09 OVMax= 1.02D-05

 Cycle   5  Pass 1  IDiag  1:
 RMSU=  7.08D-08    CP:  1.00D+00  1.11D+00  1.10D+00  1.18D+00
 FoFJK:  IHMeth= 1 ICntrl=     0 DoSepK=T KAlg= 1 I1Cent= 0 FoldK=F
 E= -2905.42736316857     Delta-E=       -0.000000000352 Rises=F Damp=F
 DIIS: error= 1.15D-06 at cycle   5 NSaved=   5.
 NSaved= 5 IEnMin= 5 EnMin= -2905.42736316857     IErMin= 5 ErrMin= 1.15D-06
 ErrMax= 1.15D-06 EMaxC= 1.00D-01 BMatC= 2.23D-10 BMatP= 3.95D-10
 IDIUse=1 WtCom= 1.00D+00 WtEn= 0.00D+00
 Coeff-Com:  0.419D-03-0.482D-01-0.575D-01 0.478D+00 0.627D+00
 Coeff:      0.419D-03-0.482D-01-0.575D-01 0.478D+00 0.627D+00
 Gap=     0.416 Goal=   None    Shift=    0.000
 RMSDP=6.33D-08 MaxDP=2.56D-06 DE=-3.52D-10 OVMax= 4.48D-06

 Cycle   6  Pass 1  IDiag  1:
 RMSU=  2.60D-08    CP:  1.00D+00  1.11D+00  1.12D+00  1.31D+00  9.26D-01
 FoFJK:  IHMeth= 1 ICntrl=     0 DoSepK=T KAlg= 1 I1Cent= 0 FoldK=F
 E= -2905.42736316874     Delta-E=       -0.000000000166 Rises=F Damp=F
 DIIS: error= 1.53D-07 at cycle   6 NSaved=   6.
 NSaved= 6 IEnMin= 6 EnMin= -2905.42736316874     IErMin= 6 ErrMin= 1.53D-07
 ErrMax= 1.53D-07 EMaxC= 1.00D-01 BMatC= 6.54D-12 BMatP= 2.23D-10
 IDIUse=1 WtCom= 1.00D+00 WtEn= 0.00D+00
 Coeff-Com:  0.204D-03-0.154D-01-0.272D-01 0.105D+00 0.204D+00 0.734D+00
 Coeff:      0.204D-03-0.154D-01-0.272D-01 0.105D+00 0.204D+00 0.734D+00
 Gap=     0.416 Goal=   None    Shift=    0.000
 RMSDP=1.58D-08 MaxDP=6.80D-07 DE=-1.66D-10 OVMax= 1.14D-06

 Cycle   7  Pass 1  IDiag  1:
 RMSU=  7.68D-09    CP:  1.00D+00  1.11D+00  1.13D+00  1.33D+00  9.98D-01
                    CP:  1.13D+00
 FoFJK:  IHMeth= 1 ICntrl=     0 DoSepK=T KAlg= 1 I1Cent= 0 FoldK=F
 E= -2905.42736316872     Delta-E=        0.000000000016 Rises=F Damp=F
 DIIS: error= 5.22D-08 at cycle   7 NSaved=   7.
 NSaved= 7 IEnMin= 6 EnMin= -2905.42736316874     IErMin= 7 ErrMin= 5.22D-08
 ErrMax= 5.22D-08 EMaxC= 1.00D-01 BMatC= 9.89D-13 BMatP= 6.54D-12
 IDIUse=1 WtCom= 1.00D+00 WtEn= 0.00D+00
 Coeff-Com: -0.168D-04 0.500D-02 0.217D-02-0.649D-01-0.617D-01 0.245D+00
 Coeff-Com:  0.874D+00
 Coeff:     -0.168D-04 0.500D-02 0.217D-02-0.649D-01-0.617D-01 0.245D+00
 Coeff:      0.874D+00
 Gap=     0.416 Goal=   None    Shift=    0.000
 RMSDP=9.18D-09 MaxDP=3.99D-07 DE= 1.64D-11 OVMax= 6.75D-07

 SCF Done:  E(RwB97XD) =  -2905.42736317     A.U. after    7 cycles
             Convg  =    0.9178D-08             -V/T =  2.0015
 KE= 2.900940032809D+03 PE=-7.149540605869D+03 EE= 1.237507444247D+03
 Leave Link  502 at Thu Apr 16 09:43:43 2020, MaxMem= 1073741824 cpu:     129.3
 (Enter /home/matheus/.gaussian/g09/l108.exe)
 Scan completed.

 Summary of the potential surface scan:
   N      R1          SCF    
 ----  ---------  -----------
    1     3.0000  -2905.42312
    2     3.1000  -2905.42523
    3     3.2000  -2905.42662
    4     3.3000  -2905.42751
    5     3.4000  -2905.42805
    6     3.5000  -2905.42836
    7     3.6000  -2905.42849
    8     3.7000  -2905.42852
    9     3.8000  -2905.42847
   10     3.9000  -2905.42839
   11     4.0000  -2905.42828
   12     4.1000  -2905.42817
   13     4.2000  -2905.42805
   14     4.3000  -2905.42793
   15     4.4000  -2905.42783
   16     4.5000  -2905.42773
   17     4.6000  -2905.42764
   18     4.7000  -2905.42756
   19     4.8000  -2905.42749
   20     4.9000  -2905.42742
   21     5.0000  -2905.42736
 ----  ---------  -----------
  
 Leave Link  108 at Thu Apr 16 09:43:43 2020, MaxMem= 1073741824 cpu:       0.0
 (Enter /home/matheus/.gaussian/g09/l9999.exe)

 Test job not archived.
 1\1\GINC-REDGIANT\Scan\RwB97XD\Aug-CC-pVTZ\H2Kr1O2\ROOT\16-Apr-2020\1\
 \#p wb97xd/aug-cc-PVTz iop(3/107=0250000000) iop(3/108=0250000000) int
 =ultrafine Scan\\TCC\\0,1\O,0,0.,0.,0.725\O,0,0.,0.,-0.725\H,0,0.70378
 08064,0.5905422151,1.0235104166\H,0,0.,0.9187205947,-1.0235104166\Kr,0
 ,0.,R1,0.\\R1=3.,s,20,0.1\\Version=EM64L-G09RevC.01\State=1-A\HF=-2905
 .4231221,-2905.4252281,-2905.4266167,-2905.4275141,-2905.428054,-2905.
 4283559,-2905.4284904,-2905.4285156,-2905.4284736,-2905.4283878,-2905.
 4282807,-2905.4281654,-2905.4280488,-2905.4279344,-2905.4278288,-2905.
 4277313,-2905.4276401,-2905.4275587,-2905.4274869,-2905.4274211,-2905.
 4273632\RMSD=5.136e-09,7.228e-09,5.794e-09,9.228e-09,9.024e-09,9.280e-
 09,9.267e-09,8.990e-09,8.068e-09,7.221e-09,6.150e-09,5.283e-09,4.437e-
 09,3.649e-09,2.778e-09,2.281e-09,1.930e-09,1.579e-09,1.428e-09,9.783e-
 09,9.178e-09\PG=C01 [X(H2Kr1O2)]\\@


 Standing in the middle of the road is very dangerous;
 you get knocked down by the traffic from both sides.
                                -- Margaret Thatcher
 Job cpu time:  0 days  1 hours  5 minutes  3.5 seconds.
 File lengths (MBytes):  RWF=     27 Int=      0 D2E=      0 Chk=      4 Scr=      1
 Normal termination of Gaussian 09 at Thu Apr 16 09:43:43 2020.
