 Entering Gaussian System, Link 0=g09
 Input=/home/matheus/.tcc/Inputs-wb97xd/H2O2-Kr_17.com
 Output=/home/matheus/.tcc/Logs-wb97xd/H2O2-Kr_17.log
 Initial command:
 /home/matheus/.gaussian/g09/l1.exe /home/matheus/.gaussian/g09/scratch/Gau-8773.inp -scrdir=/home/matheus/.gaussian/g09/scratch/
 Entering Link 1 = /home/matheus/.gaussian/g09/l1.exe PID=      8776.
  
 Copyright (c) 1988,1990,1992,1993,1995,1998,2003,2009,2011,
            Gaussian, Inc.  All Rights Reserved.
  
 This is part of the Gaussian(R) 09 program.  It is based on
 the Gaussian(R) 03 system (copyright 2003, Gaussian, Inc.),
 the Gaussian(R) 98 system (copyright 1998, Gaussian, Inc.),
 the Gaussian(R) 94 system (copyright 1995, Gaussian, Inc.),
 the Gaussian 92(TM) system (copyright 1992, Gaussian, Inc.),
 the Gaussian 90(TM) system (copyright 1990, Gaussian, Inc.),
 the Gaussian 88(TM) system (copyright 1988, Gaussian, Inc.),
 the Gaussian 86(TM) system (copyright 1986, Carnegie Mellon
 University), and the Gaussian 82(TM) system (copyright 1983,
 Carnegie Mellon University). Gaussian is a federally registered
 trademark of Gaussian, Inc.
  
 This software contains proprietary and confidential information,
 including trade secrets, belonging to Gaussian, Inc.
  
 This software is provided under written license and may be
 used, copied, transmitted, or stored only in accord with that
 written license.
  
 The following legend is applicable only to US Government
 contracts under FAR:
  
                    RESTRICTED RIGHTS LEGEND
  
 Use, reproduction and disclosure by the US Government is
 subject to restrictions as set forth in subparagraphs (a)
 and (c) of the Commercial Computer Software - Restricted
 Rights clause in FAR 52.227-19.
  
 Gaussian, Inc.
 340 Quinnipiac St., Bldg. 40, Wallingford CT 06492
  
  
 ---------------------------------------------------------------
 Warning -- This program may not be used in any manner that
 competes with the business of Gaussian, Inc. or will provide
 assistance to any competitor of Gaussian, Inc.  The licensee
 of this program is prohibited from giving any competitor of
 Gaussian, Inc. access to this program.  By using this program,
 the user acknowledges that Gaussian, Inc. is engaged in the
 business of creating and licensing software in the field of
 computational chemistry and represents and warrants to the
 licensee that it is not a competitor of Gaussian, Inc. and that
 it will not use this program in any manner prohibited above.
 ---------------------------------------------------------------
  

 Cite this work as:
 Gaussian 09, Revision C.01,
 M. J. Frisch, G. W. Trucks, H. B. Schlegel, G. E. Scuseria, 
 M. A. Robb, J. R. Cheeseman, G. Scalmani, V. Barone, B. Mennucci, 
 G. A. Petersson, H. Nakatsuji, M. Caricato, X. Li, H. P. Hratchian, 
 A. F. Izmaylov, J. Bloino, G. Zheng, J. L. Sonnenberg, M. Hada, 
 M. Ehara, K. Toyota, R. Fukuda, J. Hasegawa, M. Ishida, T. Nakajima, 
 Y. Honda, O. Kitao, H. Nakai, T. Vreven, J. A. Montgomery, Jr., 
 J. E. Peralta, F. Ogliaro, M. Bearpark, J. J. Heyd, E. Brothers, 
 K. N. Kudin, V. N. Staroverov, T. Keith, R. Kobayashi, J. Normand, 
 K. Raghavachari, A. Rendell, J. C. Burant, S. S. Iyengar, J. Tomasi, 
 M. Cossi, N. Rega, J. M. Millam, M. Klene, J. E. Knox, J. B. Cross, 
 V. Bakken, C. Adamo, J. Jaramillo, R. Gomperts, R. E. Stratmann, 
 O. Yazyev, A. J. Austin, R. Cammi, C. Pomelli, J. W. Ochterski, 
 R. L. Martin, K. Morokuma, V. G. Zakrzewski, G. A. Voth, 
 P. Salvador, J. J. Dannenberg, S. Dapprich, A. D. Daniels, 
 O. Farkas, J. B. Foresman, J. V. Ortiz, J. Cioslowski, 
 and D. J. Fox, Gaussian, Inc., Wallingford CT, 2010.
 
 ******************************************
 Gaussian 09:  EM64L-G09RevC.01 23-Sep-2011
                16-Apr-2020 
 ******************************************
 %mem=8GB
 %nproc=8
 Will use up to    8 processors via shared memory.
 ----------------------------------------------------------------------
 #p wb97xd/aug-cc-PVTz iop(3/107=0250000000) iop(3/108=0250000000) int=
 ultrafine Scan
 ----------------------------------------------------------------------
 1/38=1,60=1/1,8;
 2/12=2,17=6,18=5,29=3,40=1/2;
 3/5=16,6=1,7=10,11=2,16=1,25=1,30=1,74=-58,75=-5,107=250000000,108=250000000/1,2,3;
 4//1;
 5/5=2,38=5/2;
 6/7=2,8=2,9=2,10=2,18=1,28=1/1;
 1/60=1/8(1);
 99/9=1/99;
 2/29=3/2;
 3/5=16,6=1,7=10,11=2,16=1,25=1,30=1,74=-58,75=-5,107=250000000,108=250000000/1,2,3;
 4/5=5,16=3/1;
 5/5=2,38=5/2;
 1/60=1/8(-4);
 99/9=1/99;
 Leave Link    1 at Thu Apr 16 11:22:09 2020, MaxMem= 1073741824 cpu:       0.1
 (Enter /home/matheus/.gaussian/g09/l101.exe)
 ---
 TCC
 ---
 Charge =  0 Multiplicity = 1
 Symbolic Z-Matrix:
 O                     0.        0.        0.725 
 O                     0.        0.       -0.725 
 H                     0.15953  -0.90476   1.02351 
 H                     0.        0.91872  -1.02351 
 Kr                    0.       R1        0. 
       Variables:
  R1                    3.     Scan 20    0.1    
 
 NAtoms=      5 NQM=        0 NQMF=       0 NMMI=      5 NMMIF=      0
                NMic=       0 NMicF=      0.
                    Isotopes and Nuclear Properties:
 (Nuclear quadrupole moments (NQMom) in fm**2, nuclear magnetic moments (NMagM)
  in nuclear magnetons)

  Atom         1           2           3           4           5
 IAtWgt=          16          16           1           1          84
 AtmWgt=  15.9949146  15.9949146   1.0078250   1.0078250  83.9115064
 NucSpn=           0           0           1           1           0
 AtZEff=   0.0000000   0.0000000   0.0000000   0.0000000   0.0000000
 NQMom=    0.0000000   0.0000000   0.0000000   0.0000000   0.0000000
 NMagM=    0.0000000   0.0000000   2.7928460   2.7928460   0.0000000
 Leave Link  101 at Thu Apr 16 11:22:09 2020, MaxMem= 1073741824 cpu:       0.3
 (Enter /home/matheus/.gaussian/g09/l108.exe)
 Scan the potential surface.
 Variable   Value     No. Steps Step-Size
 -------- ----------- --------- ---------
     1       3.000000      20      0.1000
 A total of     21 points will be computed.
 Leave Link  108 at Thu Apr 16 11:22:09 2020, MaxMem= 1073741824 cpu:       0.0
 (Enter /home/matheus/.gaussian/g09/l202.exe)
 ---------------------------------------------------------------------------------------------------
                            Z-MATRIX (ANGSTROMS AND DEGREES)
   CD    Cent   Atom    N1       Length/X        N2       Alpha/Y        N3        Beta/Z          J
 ---------------------------------------------------------------------------------------------------
      1      1  O        0   0.000000          0.000000          0.725000
      2      2  O        0   0.000000          0.000000         -0.725000
      3      3  H        0   0.159534         -0.904763          1.023510
      4      4  H        0   0.000000          0.918721         -1.023510
      5      5  Kr       0   0.000000          3.000000          0.000000
 ---------------------------------------------------------------------------------------------------
                         Z-Matrix orientation:                         
 ---------------------------------------------------------------------
 Center     Atomic      Atomic             Coordinates (Angstroms)
 Number     Number       Type             X           Y           Z
 ---------------------------------------------------------------------
      1          8           0        0.000000    0.000000    0.725000
      2          8           0        0.000000    0.000000   -0.725000
      3          1           0        0.159534   -0.904763    1.023510
      4          1           0        0.000000    0.918721   -1.023510
      5         36           0        0.000000    3.000000    0.000000
 ---------------------------------------------------------------------
                    Distance matrix (angstroms):
                    1          2          3          4          5
     1  O    0.000000
     2  O    1.450000   0.000000
     3  H    0.966000   1.975180   0.000000
     4  H    1.975180   0.966000   2.746059   0.000000
     5  Kr   3.086361   3.086361   4.039827   2.319331   0.000000
 Stoichiometry    H2KrO2
 Framework group  C1[X(H2KrO2)]
 Deg. of freedom     9
 Full point group                 C1      NOp   1
 Largest Abelian subgroup         C1      NOp   1
 Largest concise Abelian subgroup C1      NOp   1
                         Standard orientation:                         
 ---------------------------------------------------------------------
 Center     Atomic      Atomic             Coordinates (Angstroms)
 Number     Number       Type             X           Y           Z
 ---------------------------------------------------------------------
      1          8           0        2.013524   -0.686962   -0.021683
      2          8           0        1.986222    0.762620   -0.000129
      3          1           0        2.924418   -0.970655    0.129799
      4          1           0        1.062052    1.043690    0.007960
      5         36           0       -0.999568   -0.018842    0.001020
 ---------------------------------------------------------------------
 Rotational constants (GHZ):     26.6931850      2.3029701      2.1204694
 Leave Link  202 at Thu Apr 16 11:22:09 2020, MaxMem= 1073741824 cpu:       0.0
 (Enter /home/matheus/.gaussian/g09/l301.exe)
 Standard basis: Aug-CC-pVTZ (5D, 7F)
 Ernie: Thresh=  0.10000D-02 Tol=  0.10000D-05 Strict=F.
 Ernie:  38 primitive shells out of 205 were deleted.
 There are   197 symmetry adapted basis functions of A   symmetry.
 Integral buffers will be    131072 words long.
 Raffenetti 2 integral format.
 Two-electron integral symmetry is turned on.
   197 basis functions,   415 primitive gaussians,   229 cartesian basis functions
    27 alpha electrons       27 beta electrons
       nuclear repulsion energy       148.2893698349 Hartrees.
 IExCor= 4639 DFT=T Ex+Corr=wB97XD ExCW=0 ScaHFX=  1.000000
 ScaDFX=  1.000000  1.000000  1.000000  1.000000 ScalE2=  1.000000  1.000000
 IRadAn=      5 IRanWt=     -1 IRanGd=            0 ICorTp=0
  HFx wShort=  0.000000 wLong=  0.250000 cFull=  0.222036 cShort=  0.000000 cLong=  0.777964
  DFx wShort=  0.000000 wLong=  0.250000 cFull=  0.000000 cShort=  0.000000 cLong=  1.000000
 NAtoms=    5 NActive=    5 NUniq=    5 SFac= 1.00D+00 NAtFMM=   60 NAOKFM=F Big=F
 R6Disp: Dispersion energy =        -0.0007663178 Hartrees.
 Nuclear repulsion after empirical dispersion term =      148.2886035171 Hartrees.
 Leave Link  301 at Thu Apr 16 11:22:09 2020, MaxMem= 1073741824 cpu:       0.2
 (Enter /home/matheus/.gaussian/g09/l302.exe)
 NPDir=0 NMtPBC=     1 NCelOv=     1 NCel=       1 NClECP=     1 NCelD=      1
         NCelK=      1 NCelE2=     1 NClLst=     1 CellRange=     0.0.
 One-electron integrals computed using PRISM.
 NBasis=   197 RedAO= T  NBF=   197
 NBsUse=   197 1.00D-06 NBFU=   197
 Precomputing XC quadrature grid using
 IXCGrd= 2 IRadAn=           5 IRanWt=          -1 IRanGd=           0 AccXCQ= 0.00D+00.
 NRdTot=     427 NPtTot=      123814 NUsed=      126881 NTot=      126913
 NSgBfM=   229   229   229   229   229 NAtAll=     5     5.
 Leave Link  302 at Thu Apr 16 11:22:09 2020, MaxMem= 1073741824 cpu:       0.9
 (Enter /home/matheus/.gaussian/g09/l303.exe)
 DipDrv:  MaxL=1.
 Leave Link  303 at Thu Apr 16 11:22:09 2020, MaxMem= 1073741824 cpu:       0.2
 (Enter /home/matheus/.gaussian/g09/l401.exe)
 Harris functional with IExCor= 4639 diagonalized for initial guess.
 ExpMin= 2.53D-02 ExpMax= 1.17D+07 ExpMxC= 1.33D+04 IAcc=3 IRadAn=         5 AccDes= 0.00D+00
 HarFok:  IExCor= 4639 AccDes= 0.00D+00 IRadAn=         5 IDoV= 1
 ScaDFX=  1.000000  1.000000  1.000000  1.000000
 FoFCou: FMM=F IPFlag=           0 FMFlag=      100000 FMFlg1=           0
         NFxFlg=           0 DoJE=T BraDBF=F KetDBF=T FulRan=T
         Omega=  0.000000  0.000000  1.000000  0.000000  0.000000 ICntrl=     500 IOpCl=  0
         NMat0=    1 NMatS0=    1 NMatT0=    0 NMatD0=    1 NMtDS0=    0 NMtDT0=    0
         I1Cent=           4 NGrid=           0.
 Petite list used in FoFCou.
 Harris En= -2875.39329031365    
 Initial guess orbital symmetries:
       Occupied  (A) (A) (A) (A) (A) (A) (A) (A) (A) (A) (A) (A)
                 (A) (A) (A) (A) (A) (A) (A) (A) (A) (A) (A) (A)
                 (A) (A) (A)
       Virtual   (A) (A) (A) (A) (A) (A) (A) (A) (A) (A) (A) (A)
                 (A) (A) (A) (A) (A) (A) (A) (A) (A) (A) (A) (A)
                 (A) (A) (A) (A) (A) (A) (A) (A) (A) (A) (A) (A)
                 (A) (A) (A) (A) (A) (A) (A) (A) (A) (A) (A) (A)
                 (A) (A) (A) (A) (A) (A) (A) (A) (A) (A) (A) (A)
                 (A) (A) (A) (A) (A) (A) (A) (A) (A) (A) (A) (A)
                 (A) (A) (A) (A) (A) (A) (A) (A) (A) (A) (A) (A)
                 (A) (A) (A) (A) (A) (A) (A) (A) (A) (A) (A) (A)
                 (A) (A) (A) (A) (A) (A) (A) (A) (A) (A) (A) (A)
                 (A) (A) (A) (A) (A) (A) (A) (A) (A) (A) (A) (A)
                 (A) (A) (A) (A) (A) (A) (A) (A) (A) (A) (A) (A)
                 (A) (A) (A) (A) (A) (A) (A) (A) (A) (A) (A) (A)
                 (A) (A) (A) (A) (A) (A) (A) (A) (A) (A) (A) (A)
                 (A) (A) (A) (A) (A) (A) (A) (A) (A) (A) (A) (A)
                 (A) (A)
 The electronic state of the initial guess is 1-A.
 Leave Link  401 at Thu Apr 16 11:22:10 2020, MaxMem= 1073741824 cpu:       3.8
 (Enter /home/matheus/.gaussian/g09/l502.exe)
 Closed shell SCF:
 Requested convergence on RMS density matrix=1.00D-08 within 128 cycles.
 Requested convergence on MAX density matrix=1.00D-06.
 Requested convergence on             energy=1.00D-06.
 No special actions if energy rises.
 Using DIIS extrapolation, IDIIS=  1040.
 Integral symmetry usage will be decided dynamically.
       126823 words used for storage of precomputed grid.
 IEnd=      305770 IEndB=      305770 NGot=  1073741824 MDV=  1073505365
 LenX=  1073505365 LenY=  1073452483
 Fock matrices will be formed incrementally for  20 cycles.

 Cycle   1  Pass 1  IDiag  1:
 FoFJK:  IHMeth= 1 ICntrl=     0 DoSepK=T KAlg= 1 I1Cent= 0 FoldK=F
 FoFCou: FMM=F IPFlag=           0 FMFlag=      100000 FMFlg1=           0
         NFxFlg=           0 DoJE=T BraDBF=F KetDBF=F FulRan=T
         Omega=  0.000000  0.000000  1.000000  0.000000  0.000000 ICntrl=     500 IOpCl=  0
         NMat0=    1 NMatS0=    1 NMatT0=    0 NMatD0=    1 NMtDS0=    0 NMtDT0=    0
         I1Cent=           0 NGrid=           0.
 Symmetry not used in FoFCou.
 E= -2904.90114332867    
 DIIS: error= 7.74D-02 at cycle   1 NSaved=   1.
 NSaved= 1 IEnMin= 1 EnMin= -2904.90114332867     IErMin= 1 ErrMin= 7.74D-02
 ErrMax= 7.74D-02 EMaxC= 1.00D-01 BMatC= 2.21D+00 BMatP= 2.21D+00
 IDIUse=3 WtCom= 2.26D-01 WtEn= 7.74D-01
 Coeff-Com:  0.100D+01
 Coeff-En:   0.100D+01
 Coeff:      0.100D+01
 Gap=     0.528 Goal=   None    Shift=    0.000
 GapD=    0.528 DampG=2.000 DampE=0.500 DampFc=1.0000 IDamp=-1.
 RMSDP=6.16D-03 MaxDP=3.67D-01              OVMax= 1.73D-01

 Cycle   2  Pass 1  IDiag  1:
 RMSU=  4.33D-03    CP:  1.03D+00
 FoFJK:  IHMeth= 1 ICntrl=     0 DoSepK=T KAlg= 1 I1Cent= 0 FoldK=F
 E= -2905.22022441660     Delta-E=       -0.319081087930 Rises=F Damp=F
 DIIS: error= 3.72D-02 at cycle   2 NSaved=   2.
 NSaved= 2 IEnMin= 2 EnMin= -2905.22022441660     IErMin= 2 ErrMin= 3.72D-02
 ErrMax= 3.72D-02 EMaxC= 1.00D-01 BMatC= 5.65D-01 BMatP= 2.21D+00
 IDIUse=3 WtCom= 6.28D-01 WtEn= 3.72D-01
 Coeff-Com:  0.328D+00 0.672D+00
 Coeff-En:   0.199D+00 0.801D+00
 Coeff:      0.280D+00 0.720D+00
 Gap=     0.468 Goal=   None    Shift=    0.000
 RMSDP=2.71D-03 MaxDP=1.59D-01 DE=-3.19D-01 OVMax= 7.43D-02

 Cycle   3  Pass 1  IDiag  1:
 RMSU=  5.82D-04    CP:  1.02D+00  5.80D-01
 FoFJK:  IHMeth= 1 ICntrl=     0 DoSepK=T KAlg= 1 I1Cent= 0 FoldK=F
 E= -2905.41358674570     Delta-E=       -0.193362329104 Rises=F Damp=F
 DIIS: error= 6.76D-03 at cycle   3 NSaved=   3.
 NSaved= 3 IEnMin= 3 EnMin= -2905.41358674570     IErMin= 3 ErrMin= 6.76D-03
 ErrMax= 6.76D-03 EMaxC= 1.00D-01 BMatC= 2.05D-02 BMatP= 5.65D-01
 IDIUse=3 WtCom= 9.32D-01 WtEn= 6.76D-02
 Coeff-Com:  0.322D-01 0.194D+00 0.774D+00
 Coeff-En:   0.000D+00 0.000D+00 0.100D+01
 Coeff:      0.300D-01 0.181D+00 0.789D+00
 Gap=     0.421 Goal=   None    Shift=    0.000
 RMSDP=4.95D-04 MaxDP=1.83D-02 DE=-1.93D-01 OVMax= 2.67D-02

 Cycle   4  Pass 1  IDiag  1:
 RMSU=  2.30D-04    CP:  1.02D+00  6.40D-01  9.01D-01
 FoFJK:  IHMeth= 1 ICntrl=     0 DoSepK=T KAlg= 1 I1Cent= 0 FoldK=F
 E= -2905.42278580805     Delta-E=       -0.009199062348 Rises=F Damp=F
 DIIS: error= 2.72D-03 at cycle   4 NSaved=   4.
 NSaved= 4 IEnMin= 4 EnMin= -2905.42278580805     IErMin= 4 ErrMin= 2.72D-03
 ErrMax= 2.72D-03 EMaxC= 1.00D-01 BMatC= 1.74D-03 BMatP= 2.05D-02
 IDIUse=3 WtCom= 9.73D-01 WtEn= 2.72D-02
 Coeff-Com: -0.259D-02 0.517D-01 0.368D+00 0.583D+00
 Coeff-En:   0.000D+00 0.000D+00 0.000D+00 0.100D+01
 Coeff:     -0.252D-02 0.503D-01 0.358D+00 0.594D+00
 Gap=     0.405 Goal=   None    Shift=    0.000
 RMSDP=1.13D-04 MaxDP=6.19D-03 DE=-9.20D-03 OVMax= 6.95D-03

 Cycle   5  Pass 1  IDiag  1:
 RMSU=  4.12D-05    CP:  1.02D+00  6.39D-01  9.47D-01  7.30D-01
 FoFJK:  IHMeth= 1 ICntrl=     0 DoSepK=T KAlg= 1 I1Cent= 0 FoldK=F
 E= -2905.42382513332     Delta-E=       -0.001039325270 Rises=F Damp=F
 DIIS: error= 2.94D-04 at cycle   5 NSaved=   5.
 NSaved= 5 IEnMin= 5 EnMin= -2905.42382513332     IErMin= 5 ErrMin= 2.94D-04
 ErrMax= 2.94D-04 EMaxC= 1.00D-01 BMatC= 2.73D-05 BMatP= 1.74D-03
 IDIUse=3 WtCom= 9.97D-01 WtEn= 2.94D-03
 Coeff-Com: -0.156D-02 0.120D-01 0.104D+00 0.191D+00 0.694D+00
 Coeff-En:   0.000D+00 0.000D+00 0.000D+00 0.000D+00 0.100D+01
 Coeff:     -0.156D-02 0.120D-01 0.103D+00 0.191D+00 0.695D+00
 Gap=     0.404 Goal=   None    Shift=    0.000
 RMSDP=2.40D-05 MaxDP=9.53D-04 DE=-1.04D-03 OVMax= 1.71D-03

 Cycle   6  Pass 1  IDiag  1:
 RMSU=  1.51D-05    CP:  1.02D+00  6.39D-01  9.54D-01  7.54D-01  1.07D+00
 FoFJK:  IHMeth= 1 ICntrl=     0 DoSepK=T KAlg= 1 I1Cent= 0 FoldK=F
 E= -2905.42383950762     Delta-E=       -0.000014374298 Rises=F Damp=F
 DIIS: error= 1.88D-04 at cycle   6 NSaved=   6.
 NSaved= 6 IEnMin= 6 EnMin= -2905.42383950762     IErMin= 6 ErrMin= 1.88D-04
 ErrMax= 1.88D-04 EMaxC= 1.00D-01 BMatC= 1.03D-05 BMatP= 2.73D-05
 IDIUse=3 WtCom= 9.98D-01 WtEn= 1.88D-03
 Coeff-Com: -0.227D-03-0.672D-02-0.355D-01-0.468D-01 0.387D+00 0.703D+00
 Coeff-En:   0.000D+00 0.000D+00 0.000D+00 0.000D+00 0.178D+00 0.822D+00
 Coeff:     -0.227D-03-0.671D-02-0.354D-01-0.468D-01 0.386D+00 0.703D+00
 Gap=     0.404 Goal=   None    Shift=    0.000
 RMSDP=1.36D-05 MaxDP=4.51D-04 DE=-1.44D-05 OVMax= 7.92D-04

 Cycle   7  Pass 1  IDiag  1:
 RMSU=  3.71D-06    CP:  1.02D+00  6.39D-01  9.62D-01  7.67D-01  1.23D+00
                    CP:  8.78D-01
 FoFJK:  IHMeth= 1 ICntrl=     0 DoSepK=T KAlg= 1 I1Cent= 0 FoldK=F
 E= -2905.42384710049     Delta-E=       -0.000007592866 Rises=F Damp=F
 DIIS: error= 1.79D-05 at cycle   7 NSaved=   7.
 NSaved= 7 IEnMin= 7 EnMin= -2905.42384710049     IErMin= 7 ErrMin= 1.79D-05
 ErrMax= 1.79D-05 EMaxC= 1.00D-01 BMatC= 5.00D-08 BMatP= 1.03D-05
 IDIUse=1 WtCom= 1.00D+00 WtEn= 0.00D+00
 Coeff-Com:  0.402D-04-0.674D-03-0.491D-02-0.732D-02-0.232D-01 0.144D-01
 Coeff-Com:  0.102D+01
 Coeff:      0.402D-04-0.674D-03-0.491D-02-0.732D-02-0.232D-01 0.144D-01
 Coeff:      0.102D+01
 Gap=     0.404 Goal=   None    Shift=    0.000
 RMSDP=2.88D-06 MaxDP=1.20D-04 DE=-7.59D-06 OVMax= 1.99D-04

 Cycle   8  Pass 1  IDiag  1:
 RMSU=  7.96D-07    CP:  1.02D+00  6.39D-01  9.63D-01  7.71D-01  1.26D+00
                    CP:  9.34D-01  1.21D+00
 FoFJK:  IHMeth= 1 ICntrl=     0 DoSepK=T KAlg= 1 I1Cent= 0 FoldK=F
 E= -2905.42384722061     Delta-E=       -0.000000120124 Rises=F Damp=F
 DIIS: error= 2.92D-06 at cycle   8 NSaved=   8.
 NSaved= 8 IEnMin= 8 EnMin= -2905.42384722061     IErMin= 8 ErrMin= 2.92D-06
 ErrMax= 2.92D-06 EMaxC= 1.00D-01 BMatC= 2.61D-09 BMatP= 5.00D-08
 IDIUse=1 WtCom= 1.00D+00 WtEn= 0.00D+00
 Coeff-Com:  0.900D-05 0.186D-03 0.942D-03 0.842D-03-0.160D-01-0.251D-01
 Coeff-Com:  0.395D-01 0.100D+01
 Coeff:      0.900D-05 0.186D-03 0.942D-03 0.842D-03-0.160D-01-0.251D-01
 Coeff:      0.395D-01 0.100D+01
 Gap=     0.404 Goal=   None    Shift=    0.000
 RMSDP=5.81D-07 MaxDP=2.28D-05 DE=-1.20D-07 OVMax= 4.36D-05

 Cycle   9  Pass 1  IDiag  1:
 RMSU=  1.67D-07    CP:  1.02D+00  6.39D-01  9.63D-01  7.71D-01  1.26D+00
                    CP:  9.45D-01  1.27D+00  1.21D+00
 FoFJK:  IHMeth= 1 ICntrl=     0 DoSepK=T KAlg= 1 I1Cent= 0 FoldK=F
 E= -2905.42384722686     Delta-E=       -0.000000006252 Rises=F Damp=F
 DIIS: error= 7.99D-07 at cycle   9 NSaved=   9.
 NSaved= 9 IEnMin= 9 EnMin= -2905.42384722686     IErMin= 9 ErrMin= 7.99D-07
 ErrMax= 7.99D-07 EMaxC= 1.00D-01 BMatC= 2.22D-10 BMatP= 2.61D-09
 IDIUse=1 WtCom= 1.00D+00 WtEn= 0.00D+00
 Coeff-Com: -0.166D-05 0.633D-04 0.415D-03 0.438D-03 0.732D-04-0.255D-02
 Coeff-Com: -0.631D-01 0.866D-01 0.978D+00
 Coeff:     -0.166D-05 0.633D-04 0.415D-03 0.438D-03 0.732D-04-0.255D-02
 Coeff:     -0.631D-01 0.866D-01 0.978D+00
 Gap=     0.404 Goal=   None    Shift=    0.000
 RMSDP=1.29D-07 MaxDP=3.85D-06 DE=-6.25D-09 OVMax= 1.03D-05

 Cycle  10  Pass 1  IDiag  1:
 RMSU=  4.84D-08    CP:  1.02D+00  6.39D-01  9.63D-01  7.71D-01  1.26D+00
                    CP:  9.46D-01  1.28D+00  1.28D+00  1.18D+00
 FoFJK:  IHMeth= 1 ICntrl=     0 DoSepK=T KAlg= 1 I1Cent= 0 FoldK=F
 E= -2905.42384722734     Delta-E=       -0.000000000481 Rises=F Damp=F
 DIIS: error= 1.82D-07 at cycle  10 NSaved=  10.
 NSaved=10 IEnMin=10 EnMin= -2905.42384722734     IErMin=10 ErrMin= 1.82D-07
 ErrMax= 1.82D-07 EMaxC= 1.00D-01 BMatC= 1.13D-11 BMatP= 2.22D-10
 IDIUse=1 WtCom= 1.00D+00 WtEn= 0.00D+00
 Coeff-Com: -0.250D-06-0.508D-05-0.275D-04-0.642D-05 0.101D-02 0.143D-02
 Coeff-Com: -0.432D-02-0.635D-01 0.514D-01 0.101D+01
 Coeff:     -0.250D-06-0.508D-05-0.275D-04-0.642D-05 0.101D-02 0.143D-02
 Coeff:     -0.432D-02-0.635D-01 0.514D-01 0.101D+01
 Gap=     0.404 Goal=   None    Shift=    0.000
 RMSDP=3.24D-08 MaxDP=7.13D-07 DE=-4.81D-10 OVMax= 2.79D-06

 Cycle  11  Pass 1  IDiag  1:
 RMSU=  1.16D-08    CP:  1.02D+00  6.39D-01  9.63D-01  7.71D-01  1.26D+00
                    CP:  9.46D-01  1.28D+00  1.28D+00  1.27D+00  1.21D+00
 FoFJK:  IHMeth= 1 ICntrl=     0 DoSepK=T KAlg= 1 I1Cent= 0 FoldK=F
 E= -2905.42384722736     Delta-E=       -0.000000000016 Rises=F Damp=F
 DIIS: error= 6.23D-08 at cycle  11 NSaved=  11.
 NSaved=11 IEnMin=11 EnMin= -2905.42384722736     IErMin=11 ErrMin= 6.23D-08
 ErrMax= 6.23D-08 EMaxC= 1.00D-01 BMatC= 8.78D-13 BMatP= 1.13D-11
 IDIUse=1 WtCom= 1.00D+00 WtEn= 0.00D+00
 Coeff-Com:  0.171D-06-0.237D-05-0.177D-04-0.704D-05-0.764D-04-0.128D-04
 Coeff-Com:  0.334D-02-0.195D-02-0.439D-01-0.483D-01 0.109D+01
 Coeff:      0.171D-06-0.237D-05-0.177D-04-0.704D-05-0.764D-04-0.128D-04
 Coeff:      0.334D-02-0.195D-02-0.439D-01-0.483D-01 0.109D+01
 Gap=     0.404 Goal=   None    Shift=    0.000
 RMSDP=9.83D-09 MaxDP=1.77D-07 DE=-1.59D-11 OVMax= 1.21D-06

 SCF Done:  E(RwB97XD) =  -2905.42384723     A.U. after   11 cycles
             Convg  =    0.9827D-08             -V/T =  2.0016
 KE= 2.900926710754D+03 PE=-7.234944484720D+03 EE= 1.280305323222D+03
 Leave Link  502 at Thu Apr 16 11:23:03 2020, MaxMem= 1073741824 cpu:     420.3
 (Enter /home/matheus/.gaussian/g09/l601.exe)
 Copying SCF densities to generalized density rwf, IOpCl= 0 IROHF=0.

 **********************************************************************

            Population analysis using the SCF density.

 **********************************************************************

 Orbital symmetries:
       Occupied  (A) (A) (A) (A) (A) (A) (A) (A) (A) (A) (A) (A)
                 (A) (A) (A) (A) (A) (A) (A) (A) (A) (A) (A) (A)
                 (A) (A) (A)
       Virtual   (A) (A) (A) (A) (A) (A) (A) (A) (A) (A) (A) (A)
                 (A) (A) (A) (A) (A) (A) (A) (A) (A) (A) (A) (A)
                 (A) (A) (A) (A) (A) (A) (A) (A) (A) (A) (A) (A)
                 (A) (A) (A) (A) (A) (A) (A) (A) (A) (A) (A) (A)
                 (A) (A) (A) (A) (A) (A) (A) (A) (A) (A) (A) (A)
                 (A) (A) (A) (A) (A) (A) (A) (A) (A) (A) (A) (A)
                 (A) (A) (A) (A) (A) (A) (A) (A) (A) (A) (A) (A)
                 (A) (A) (A) (A) (A) (A) (A) (A) (A) (A) (A) (A)
                 (A) (A) (A) (A) (A) (A) (A) (A) (A) (A) (A) (A)
                 (A) (A) (A) (A) (A) (A) (A) (A) (A) (A) (A) (A)
                 (A) (A) (A) (A) (A) (A) (A) (A) (A) (A) (A) (A)
                 (A) (A) (A) (A) (A) (A) (A) (A) (A) (A) (A) (A)
                 (A) (A) (A) (A) (A) (A) (A) (A) (A) (A) (A) (A)
                 (A) (A) (A) (A) (A) (A) (A) (A) (A) (A) (A) (A)
                 (A) (A)
 The electronic state is 1-A.
 Alpha  occ. eigenvalues -- -513.08937 -67.35763 -60.90644 -60.90630 -60.90623
 Alpha  occ. eigenvalues --  -19.33685 -19.33276  -9.81090  -7.50427  -7.50379
 Alpha  occ. eigenvalues --   -7.50359  -3.37107  -3.37097  -3.37082  -3.37042
 Alpha  occ. eigenvalues --   -3.37041  -1.24247  -1.03272  -1.01746  -0.64872
 Alpha  occ. eigenvalues --   -0.61696  -0.51907  -0.49778  -0.49006  -0.48580
 Alpha  occ. eigenvalues --   -0.45474  -0.36761
 Alpha virt. eigenvalues --    0.03675   0.04341   0.08124   0.10139   0.10805
 Alpha virt. eigenvalues --    0.11683   0.13591   0.14450   0.17139   0.17458
 Alpha virt. eigenvalues --    0.18672   0.19516   0.20726   0.23284   0.23573
 Alpha virt. eigenvalues --    0.24606   0.26723   0.28399   0.30271   0.33705
 Alpha virt. eigenvalues --    0.34221   0.34493   0.36687   0.38791   0.39832
 Alpha virt. eigenvalues --    0.40410   0.42802   0.48221   0.51618   0.54269
 Alpha virt. eigenvalues --    0.56578   0.59056   0.63852   0.64830   0.68187
 Alpha virt. eigenvalues --    0.70551   0.71061   0.72532   0.74022   0.74844
 Alpha virt. eigenvalues --    0.75862   0.76154   0.77848   0.79054   0.80108
 Alpha virt. eigenvalues --    0.82198   0.84764   0.86752   0.88346   0.90040
 Alpha virt. eigenvalues --    0.91157   0.93237   0.95320   0.97746   0.98667
 Alpha virt. eigenvalues --    1.02520   1.03234   1.04080   1.05292   1.07597
 Alpha virt. eigenvalues --    1.11632   1.12375   1.15073   1.17872   1.18623
 Alpha virt. eigenvalues --    1.26303   1.30513   1.34610   1.39372   1.40129
 Alpha virt. eigenvalues --    1.48254   1.51026   1.52393   1.55174   1.57437
 Alpha virt. eigenvalues --    1.61377   1.77084   1.78714   1.84792   1.93194
 Alpha virt. eigenvalues --    1.97933   1.98371   2.03475   2.12233   2.14044
 Alpha virt. eigenvalues --    2.14868   2.16231   2.17188   2.19192   2.25066
 Alpha virt. eigenvalues --    2.26870   2.28113   2.29931   2.32336   2.33867
 Alpha virt. eigenvalues --    2.37081   2.38119   2.43456   2.45773   2.47438
 Alpha virt. eigenvalues --    2.47662   2.49069   2.51364   2.54695   2.56663
 Alpha virt. eigenvalues --    2.58356   2.60988   2.65033   2.67737   2.69084
 Alpha virt. eigenvalues --    2.70259   2.73376   2.74771   2.80168   2.88385
 Alpha virt. eigenvalues --    2.95929   3.06735   3.08373   3.14757   3.51398
 Alpha virt. eigenvalues --    3.74221   3.83131   3.90286   4.04831   4.05509
 Alpha virt. eigenvalues --    4.11011   4.14621   4.18979   4.22756   4.26021
 Alpha virt. eigenvalues --    4.37941   4.42794   4.52673   4.54212   4.73239
 Alpha virt. eigenvalues --    4.89282   5.01534   5.02809   5.07319   5.07611
 Alpha virt. eigenvalues --    5.36665   5.44102   5.82911   5.97484   6.08496
 Alpha virt. eigenvalues --    6.13482   6.29759   6.35863   6.43456   6.46995
 Alpha virt. eigenvalues --    6.70410   6.71207   6.73883   6.80614   6.86065
 Alpha virt. eigenvalues --    6.88958   6.92239   6.94022   6.95063   6.97826
 Alpha virt. eigenvalues --    7.01541   7.22071   7.24886   7.38737   7.62092
 Alpha virt. eigenvalues --    7.83955   8.11547   8.14612  14.15574  14.59685
          Condensed to atoms (all electrons):
              1          2          3          4          5
     1  O    8.157492  -0.152507   0.198377   0.004470  -0.028062
     2  O   -0.152507   8.221765   0.005958   0.219286  -0.017726
     3  H    0.198377   0.005958   0.593479   0.003077   0.002744
     4  H    0.004470   0.219286   0.003077   0.526044  -0.003659
     5  Kr  -0.028062  -0.017726   0.002744  -0.003659  36.037300
 Mulliken atomic charges:
              1
     1  O   -0.179771
     2  O   -0.276777
     3  H    0.196365
     4  H    0.250782
     5  Kr   0.009402
 Sum of Mulliken atomic charges =   0.00000
 Mulliken charges with hydrogens summed into heavy atoms:
              1
     1  O    0.016593
     2  O   -0.025996
     5  Kr   0.009402
 Sum of Mulliken charges with hydrogens summed into heavy atoms =   0.00000
 Electronic spatial extent (au):  <R**2>=            492.3921
 Charge=              0.0000 electrons
 Dipole moment (field-independent basis, Debye):
    X=             -0.1979    Y=             -0.2885    Z=              0.2721  Tot=              0.4432
 Quadrupole moment (field-independent basis, Debye-Ang):
   XX=            -26.2454   YY=            -28.3527   ZZ=            -30.6437
   XY=             -3.8542   XZ=              0.8771   YZ=             -0.2856
 Traceless Quadrupole moment (field-independent basis, Debye-Ang):
   XX=              2.1685   YY=              0.0612   ZZ=             -2.2298
   XY=             -3.8542   XZ=              0.8771   YZ=             -0.2856
 Octapole moment (field-independent basis, Debye-Ang**2):
  XXX=              0.4478  YYY=             -0.6330  ZZZ=              0.0947  XYY=             -4.3038
  XXY=            -16.4081  XXZ=              2.6702  XZZ=             -8.6142  YZZ=             -0.3441
  YYZ=              0.3302  XYZ=             -0.9020
 Hexadecapole moment (field-independent basis, Debye-Ang**3):
 XXXX=           -340.5361 YYYY=            -64.0051 ZZZZ=            -29.7103 XXXY=            -51.8884
 XXXZ=              8.2049 YYYX=             -5.5309 YYYZ=             -0.3471 ZZZX=              0.3281
 ZZZY=             -0.1487 XXYY=            -75.0841 XXZZ=            -80.0822 YYZZ=            -17.5475
 XXYZ=             -2.7567 YYXZ=              0.9926 ZZXY=             -0.4530
 N-N= 1.482886035171D+02 E-N=-7.234944486107D+03  KE= 2.900926710754D+03
 No NMR shielding tensors so no spin-rotation constants.
 Leave Link  601 at Thu Apr 16 11:23:03 2020, MaxMem= 1073741824 cpu:       0.8
 (Enter /home/matheus/.gaussian/g09/l108.exe)
 Variable Step   Value    
 -------- ---- -----------
     1       1    5.858151
 Leave Link  108 at Thu Apr 16 11:23:03 2020, MaxMem= 1073741824 cpu:       0.0
 (Enter /home/matheus/.gaussian/g09/l202.exe)
 ---------------------------------------------------------------------------------------------------
                            Z-MATRIX (ANGSTROMS AND DEGREES)
   CD    Cent   Atom    N1       Length/X        N2       Alpha/Y        N3        Beta/Z          J
 ---------------------------------------------------------------------------------------------------
      1      1  O        0   0.000000          0.000000          0.725000
      2      2  O        0   0.000000          0.000000         -0.725000
      3      3  H        0   0.159534         -0.904763          1.023510
      4      4  H        0   0.000000          0.918721         -1.023510
      5      5  Kr       0   0.000000          3.100000          0.000000
 ---------------------------------------------------------------------------------------------------
                         Z-Matrix orientation:                         
 ---------------------------------------------------------------------
 Center     Atomic      Atomic             Coordinates (Angstroms)
 Number     Number       Type             X           Y           Z
 ---------------------------------------------------------------------
      1          8           0        0.000000    0.000000    0.725000
      2          8           0        0.000000    0.000000   -0.725000
      3          1           0        0.159534   -0.904763    1.023510
      4          1           0        0.000000    0.918721   -1.023510
      5         36           0        0.000000    3.100000    0.000000
 ---------------------------------------------------------------------
                    Distance matrix (angstroms):
                    1          2          3          4          5
     1  O    0.000000
     2  O    1.450000   0.000000
     3  H    0.966000   1.975180   0.000000
     4  H    1.975180   0.966000   2.746059   0.000000
     5  Kr   3.183650   3.183650   4.136563   2.409472   0.000000
 Stoichiometry    H2KrO2
 Framework group  C1[X(H2KrO2)]
 Deg. of freedom     9
 Full point group                 C1      NOp   1
 RotChk:  IX=0 Diff= 1.85D-03
 Largest Abelian subgroup         C1      NOp   1
 Largest concise Abelian subgroup C1      NOp   1
                         Standard orientation:                         
 ---------------------------------------------------------------------
 Center     Atomic      Atomic             Coordinates (Angstroms)
 Number     Number       Type             X           Y           Z
 ---------------------------------------------------------------------
      1          8           0        2.079291   -0.688399   -0.021641
      2          8           0        2.053865    0.761217   -0.000046
      3          1           0        2.989793   -0.973277    0.129975
      4          1           0        1.130059    1.043485    0.007906
      5         36           0       -1.032919   -0.018132    0.000989
 ---------------------------------------------------------------------
 Rotational constants (GHZ):     26.6914498      2.1578518      1.9968130
 Leave Link  202 at Thu Apr 16 11:23:03 2020, MaxMem= 1073741824 cpu:       0.0
 (Enter /home/matheus/.gaussian/g09/l301.exe)
 Standard basis: Aug-CC-pVTZ (5D, 7F)
 Ernie: Thresh=  0.10000D-02 Tol=  0.10000D-05 Strict=F.
 Ernie:  38 primitive shells out of 205 were deleted.
 There are   197 symmetry adapted basis functions of A   symmetry.
 Integral buffers will be    131072 words long.
 Raffenetti 2 integral format.
 Two-electron integral symmetry is turned on.
   197 basis functions,   415 primitive gaussians,   229 cartesian basis functions
    27 alpha electrons       27 beta electrons
       nuclear repulsion energy       144.8538509878 Hartrees.
 IExCor= 4639 DFT=T Ex+Corr=wB97XD ExCW=0 ScaHFX=  1.000000
 ScaDFX=  1.000000  1.000000  1.000000  1.000000 ScalE2=  1.000000  1.000000
 IRadAn=      5 IRanWt=     -1 IRanGd=            0 ICorTp=0
  HFx wShort=  0.000000 wLong=  0.250000 cFull=  0.222036 cShort=  0.000000 cLong=  0.777964
  DFx wShort=  0.000000 wLong=  0.250000 cFull=  0.000000 cShort=  0.000000 cLong=  1.000000
 NAtoms=    5 NActive=    5 NUniq=    5 SFac= 1.00D+00 NAtFMM=   60 NAOKFM=F Big=F
 R6Disp: Dispersion energy =        -0.0008203290 Hartrees.
 Nuclear repulsion after empirical dispersion term =      144.8530306588 Hartrees.
 Leave Link  301 at Thu Apr 16 11:23:03 2020, MaxMem= 1073741824 cpu:       0.2
 (Enter /home/matheus/.gaussian/g09/l302.exe)
 NPDir=0 NMtPBC=     1 NCelOv=     1 NCel=       1 NClECP=     1 NCelD=      1
         NCelK=      1 NCelE2=     1 NClLst=     1 CellRange=     0.0.
 One-electron integrals computed using PRISM.
 NBasis=   197 RedAO= T  NBF=   197
 NBsUse=   197 1.00D-06 NBFU=   197
 Precomputing XC quadrature grid using
 IXCGrd= 2 IRadAn=           5 IRanWt=          -1 IRanGd=           0 AccXCQ= 0.00D+00.
 NRdTot=     427 NPtTot=      123814 NUsed=      126881 NTot=      126913
 NSgBfM=   229   229   229   229   229 NAtAll=     5     5.
 Leave Link  302 at Thu Apr 16 11:23:03 2020, MaxMem= 1073741824 cpu:       1.1
 (Enter /home/matheus/.gaussian/g09/l303.exe)
 DipDrv:  MaxL=1.
 Leave Link  303 at Thu Apr 16 11:23:03 2020, MaxMem= 1073741824 cpu:       0.2
 (Enter /home/matheus/.gaussian/g09/l401.exe)
 Initial guess read from the read-write file.
 B after Tr=     0.000000    0.000000    0.000000
         Rot=    1.000000    0.000000    0.000000    0.000000 Ang=   0.00 deg.
 Guess basis will be translated and rotated to current coordinates.
 Initial guess orbital symmetries:
       Occupied  (A) (A) (A) (A) (A) (A) (A) (A) (A) (A) (A) (A)
                 (A) (A) (A) (A) (A) (A) (A) (A) (A) (A) (A) (A)
                 (A) (A) (A)
       Virtual   (A) (A) (A) (A) (A) (A) (A) (A) (A) (A) (A) (A)
                 (A) (A) (A) (A) (A) (A) (A) (A) (A) (A) (A) (A)
                 (A) (A) (A) (A) (A) (A) (A) (A) (A) (A) (A) (A)
                 (A) (A) (A) (A) (A) (A) (A) (A) (A) (A) (A) (A)
                 (A) (A) (A) (A) (A) (A) (A) (A) (A) (A) (A) (A)
                 (A) (A) (A) (A) (A) (A) (A) (A) (A) (A) (A) (A)
                 (A) (A) (A) (A) (A) (A) (A) (A) (A) (A) (A) (A)
                 (A) (A) (A) (A) (A) (A) (A) (A) (A) (A) (A) (A)
                 (A) (A) (A) (A) (A) (A) (A) (A) (A) (A) (A) (A)
                 (A) (A) (A) (A) (A) (A) (A) (A) (A) (A) (A) (A)
                 (A) (A) (A) (A) (A) (A) (A) (A) (A) (A) (A) (A)
                 (A) (A) (A) (A) (A) (A) (A) (A) (A) (A) (A) (A)
                 (A) (A) (A) (A) (A) (A) (A) (A) (A) (A) (A) (A)
                 (A) (A) (A) (A) (A) (A) (A) (A) (A) (A) (A) (A)
                 (A) (A)
 The electronic state of the initial guess is 1-A.
 Generating alternative initial guess.
 Harris functional with IExCor= 4639 diagonalized for initial guess.
 ExpMin= 2.53D-02 ExpMax= 1.17D+07 ExpMxC= 1.33D+04 IAcc=3 IRadAn=         5 AccDes= 0.00D+00
 HarFok:  IExCor= 4639 AccDes= 0.00D+00 IRadAn=         5 IDoV= 1
 ScaDFX=  1.000000  1.000000  1.000000  1.000000
 FoFCou: FMM=F IPFlag=           0 FMFlag=      100000 FMFlg1=           0
         NFxFlg=           0 DoJE=T BraDBF=F KetDBF=T FulRan=T
         Omega=  0.000000  0.000000  1.000000  0.000000  0.000000 ICntrl=     500 IOpCl=  0
         NMat0=    1 NMatS0=    1 NMatT0=    0 NMatD0=    1 NMtDS0=    0 NMtDT0=    0
         I1Cent=           4 NGrid=           0.
 Petite list used in FoFCou.
 Harris En= -2875.39643127671    
 Leave Link  401 at Thu Apr 16 11:23:04 2020, MaxMem= 1073741824 cpu:       6.3
 (Enter /home/matheus/.gaussian/g09/l502.exe)
 Closed shell SCF:
 Requested convergence on RMS density matrix=1.00D-08 within 128 cycles.
 Requested convergence on MAX density matrix=1.00D-06.
 Requested convergence on             energy=1.00D-06.
 No special actions if energy rises.
 Using DIIS extrapolation, IDIIS=  1040.
 Integral symmetry usage will be decided dynamically.
       126823 words used for storage of precomputed grid.
 IEnd=      305770 IEndB=      305770 NGot=  1073741824 MDV=  1073505365
 LenX=  1073505365 LenY=  1073452483
 Fock matrices will be formed incrementally for  20 cycles.

 Cycle   1  Pass 1  IDiag  1:
 FoFJK:  IHMeth= 1 ICntrl=     0 DoSepK=T KAlg= 1 I1Cent= 0 FoldK=F
 FoFCou: FMM=F IPFlag=           0 FMFlag=      100000 FMFlg1=           0
         NFxFlg=           0 DoJE=T BraDBF=F KetDBF=F FulRan=T
         Omega=  0.000000  0.000000  1.000000  0.000000  0.000000 ICntrl=     500 IOpCl=  0
         NMat0=    1 NMatS0=    1 NMatT0=    0 NMatD0=    1 NMtDS0=    0 NMtDT0=    0
         I1Cent=           0 NGrid=           0.
 Symmetry not used in FoFCou.
 E= -2905.42541775130    
 DIIS: error= 1.22D-03 at cycle   1 NSaved=   1.
 NSaved= 1 IEnMin= 1 EnMin= -2905.42541775130     IErMin= 1 ErrMin= 1.22D-03
 ErrMax= 1.22D-03 EMaxC= 1.00D-01 BMatC= 5.19D-04 BMatP= 5.19D-04
 IDIUse=3 WtCom= 9.88D-01 WtEn= 1.22D-02
 Coeff-Com:  0.100D+01
 Coeff-En:   0.100D+01
 Coeff:      0.100D+01
 Gap=     0.406 Goal=   None    Shift=    0.000
 GapD=    0.406 DampG=2.000 DampE=1.000 DampFc=2.0000 IDamp=-1.
 RMSDP=7.97D-05 MaxDP=2.55D-03              OVMax= 3.85D-03

 Cycle   2  Pass 1  IDiag  1:
 RMSU=  5.63D-05    CP:  1.00D+00
 FoFJK:  IHMeth= 1 ICntrl=     0 DoSepK=T KAlg= 1 I1Cent= 0 FoldK=F
 E= -2905.42551824204     Delta-E=       -0.000100490740 Rises=F Damp=F
 DIIS: error= 1.29D-04 at cycle   2 NSaved=   2.
 NSaved= 2 IEnMin= 2 EnMin= -2905.42551824204     IErMin= 2 ErrMin= 1.29D-04
 ErrMax= 1.29D-04 EMaxC= 1.00D-01 BMatC= 5.23D-06 BMatP= 5.19D-04
 IDIUse=3 WtCom= 9.99D-01 WtEn= 1.29D-03
 Coeff-Com:  0.347D-04 0.100D+01
 Coeff-En:   0.000D+00 0.100D+01
 Coeff:      0.346D-04 0.100D+01
 Gap=     0.404 Goal=   None    Shift=    0.000
 RMSDP=1.80D-05 MaxDP=7.22D-04 DE=-1.00D-04 OVMax= 9.15D-04

 Cycle   3  Pass 1  IDiag  1:
 RMSU=  1.01D-05    CP:  1.00D+00  1.14D+00
 FoFJK:  IHMeth= 1 ICntrl=     0 DoSepK=T KAlg= 1 I1Cent= 0 FoldK=F
 E= -2905.42552078060     Delta-E=       -0.000002538557 Rises=F Damp=F
 DIIS: error= 1.24D-04 at cycle   3 NSaved=   3.
 NSaved= 3 IEnMin= 3 EnMin= -2905.42552078060     IErMin= 3 ErrMin= 1.24D-04
 ErrMax= 1.24D-04 EMaxC= 1.00D-01 BMatC= 4.76D-06 BMatP= 5.23D-06
 IDIUse=3 WtCom= 9.99D-01 WtEn= 1.24D-03
 Coeff-Com: -0.841D-02 0.491D+00 0.518D+00
 Coeff-En:   0.000D+00 0.238D+00 0.762D+00
 Coeff:     -0.840D-02 0.491D+00 0.518D+00
 Gap=     0.405 Goal=   None    Shift=    0.000
 RMSDP=6.05D-06 MaxDP=3.06D-04 DE=-2.54D-06 OVMax= 5.26D-04

 Cycle   4  Pass 1  IDiag  1:
 RMSU=  3.35D-06    CP:  1.00D+00  1.15D+00  7.52D-01
 FoFJK:  IHMeth= 1 ICntrl=     0 DoSepK=T KAlg= 1 I1Cent= 0 FoldK=F
 E= -2905.42552366779     Delta-E=       -0.000002887193 Rises=F Damp=F
 DIIS: error= 3.15D-05 at cycle   4 NSaved=   4.
 NSaved= 4 IEnMin= 4 EnMin= -2905.42552366779     IErMin= 4 ErrMin= 3.15D-05
 ErrMax= 3.15D-05 EMaxC= 1.00D-01 BMatC= 2.28D-07 BMatP= 4.76D-06
 IDIUse=1 WtCom= 1.00D+00 WtEn= 0.00D+00
 Coeff-Com: -0.277D-02 0.649D-01 0.182D+00 0.756D+00
 Coeff:     -0.277D-02 0.649D-01 0.182D+00 0.756D+00
 Gap=     0.405 Goal=   None    Shift=    0.000
 RMSDP=2.15D-06 MaxDP=6.81D-05 DE=-2.89D-06 OVMax= 1.36D-04

 Cycle   5  Pass 1  IDiag  1:
 RMSU=  1.11D-06    CP:  1.00D+00  1.16D+00  8.33D-01  1.03D+00
 FoFJK:  IHMeth= 1 ICntrl=     0 DoSepK=T KAlg= 1 I1Cent= 0 FoldK=F
 E= -2905.42552383666     Delta-E=       -0.000000168871 Rises=F Damp=F
 DIIS: error= 1.25D-05 at cycle   5 NSaved=   5.
 NSaved= 5 IEnMin= 5 EnMin= -2905.42552383666     IErMin= 5 ErrMin= 1.25D-05
 ErrMax= 1.25D-05 EMaxC= 1.00D-01 BMatC= 3.55D-08 BMatP= 2.28D-07
 IDIUse=1 WtCom= 1.00D+00 WtEn= 0.00D+00
 Coeff-Com:  0.202D-03-0.547D-01-0.107D-01 0.308D+00 0.757D+00
 Coeff:      0.202D-03-0.547D-01-0.107D-01 0.308D+00 0.757D+00
 Gap=     0.405 Goal=   None    Shift=    0.000
 RMSDP=1.11D-06 MaxDP=6.50D-05 DE=-1.69D-07 OVMax= 5.62D-05

 Cycle   6  Pass 1  IDiag  1:
 RMSU=  3.80D-07    CP:  1.00D+00  1.17D+00  8.74D-01  1.17D+00  9.64D-01
 FoFJK:  IHMeth= 1 ICntrl=     0 DoSepK=T KAlg= 1 I1Cent= 0 FoldK=F
 E= -2905.42552386701     Delta-E=       -0.000000030345 Rises=F Damp=F
 DIIS: error= 2.53D-06 at cycle   6 NSaved=   6.
 NSaved= 6 IEnMin= 6 EnMin= -2905.42552386701     IErMin= 6 ErrMin= 2.53D-06
 ErrMax= 2.53D-06 EMaxC= 1.00D-01 BMatC= 1.46D-09 BMatP= 3.55D-08
 IDIUse=1 WtCom= 1.00D+00 WtEn= 0.00D+00
 Coeff-Com:  0.193D-03-0.202D-01-0.125D-01 0.548D-01 0.235D+00 0.743D+00
 Coeff:      0.193D-03-0.202D-01-0.125D-01 0.548D-01 0.235D+00 0.743D+00
 Gap=     0.405 Goal=   None    Shift=    0.000
 RMSDP=2.14D-07 MaxDP=7.17D-06 DE=-3.03D-08 OVMax= 1.22D-05

 Cycle   7  Pass 1  IDiag  1:
 RMSU=  9.18D-08    CP:  1.00D+00  1.17D+00  8.80D-01  1.19D+00  1.03D+00
                    CP:  1.07D+00
 FoFJK:  IHMeth= 1 ICntrl=     0 DoSepK=T KAlg= 1 I1Cent= 0 FoldK=F
 E= -2905.42552386857     Delta-E=       -0.000000001562 Rises=F Damp=F
 DIIS: error= 7.46D-07 at cycle   7 NSaved=   7.
 NSaved= 7 IEnMin= 7 EnMin= -2905.42552386857     IErMin= 7 ErrMin= 7.46D-07
 ErrMax= 7.46D-07 EMaxC= 1.00D-01 BMatC= 7.54D-11 BMatP= 1.46D-09
 IDIUse=1 WtCom= 1.00D+00 WtEn= 0.00D+00
 Coeff-Com: -0.189D-04 0.627D-02 0.149D-02-0.364D-01-0.855D-01 0.820D-02
 Coeff-Com:  0.111D+01
 Coeff:     -0.189D-04 0.627D-02 0.149D-02-0.364D-01-0.855D-01 0.820D-02
 Coeff:      0.111D+01
 Gap=     0.405 Goal=   None    Shift=    0.000
 RMSDP=1.13D-07 MaxDP=5.83D-06 DE=-1.56D-09 OVMax= 7.75D-06

 Cycle   8  Pass 1  IDiag  1:
 RMSU=  3.10D-08    CP:  1.00D+00  1.17D+00  8.83D-01  1.20D+00  1.05D+00
                    CP:  1.21D+00  1.22D+00
 FoFJK:  IHMeth= 1 ICntrl=     0 DoSepK=T KAlg= 1 I1Cent= 0 FoldK=F
 E= -2905.42552386875     Delta-E=       -0.000000000182 Rises=F Damp=F
 DIIS: error= 6.34D-08 at cycle   8 NSaved=   8.
 NSaved= 8 IEnMin= 8 EnMin= -2905.42552386875     IErMin= 8 ErrMin= 6.34D-08
 ErrMax= 6.34D-08 EMaxC= 1.00D-01 BMatC= 2.99D-12 BMatP= 7.54D-11
 IDIUse=1 WtCom= 1.00D+00 WtEn= 0.00D+00
 Coeff-Com: -0.119D-04 0.199D-02 0.758D-03-0.917D-02-0.242D-01-0.251D-01
 Coeff-Com:  0.180D+00 0.876D+00
 Coeff:     -0.119D-04 0.199D-02 0.758D-03-0.917D-02-0.242D-01-0.251D-01
 Coeff:      0.180D+00 0.876D+00
 Gap=     0.405 Goal=   None    Shift=    0.000
 RMSDP=1.48D-08 MaxDP=7.06D-07 DE=-1.82D-10 OVMax= 1.16D-06

 Cycle   9  Pass 1  IDiag  1:
 RMSU=  5.78D-09    CP:  1.00D+00  1.17D+00  8.83D-01  1.20D+00  1.05D+00
                    CP:  1.22D+00  1.26D+00  1.21D+00
 FoFJK:  IHMeth= 1 ICntrl=     0 DoSepK=T KAlg= 1 I1Cent= 0 FoldK=F
 E= -2905.42552386876     Delta-E=       -0.000000000006 Rises=F Damp=F
 DIIS: error= 2.04D-08 at cycle   9 NSaved=   9.
 NSaved= 9 IEnMin= 9 EnMin= -2905.42552386876     IErMin= 9 ErrMin= 2.04D-08
 ErrMax= 2.04D-08 EMaxC= 1.00D-01 BMatC= 1.99D-13 BMatP= 2.99D-12
 IDIUse=1 WtCom= 1.00D+00 WtEn= 0.00D+00
 Coeff-Com:  0.823D-06-0.354D-03-0.763D-04 0.211D-02 0.521D-02-0.192D-02
 Coeff-Com: -0.748D-01 0.692D-01 0.100D+01
 Coeff:      0.823D-06-0.354D-03-0.763D-04 0.211D-02 0.521D-02-0.192D-02
 Coeff:     -0.748D-01 0.692D-01 0.100D+01
 Gap=     0.405 Goal=   None    Shift=    0.000
 RMSDP=6.53D-09 MaxDP=2.54D-07 DE=-6.37D-12 OVMax= 3.63D-07

 SCF Done:  E(RwB97XD) =  -2905.42552387     A.U. after    9 cycles
             Convg  =    0.6528D-08             -V/T =  2.0016
 KE= 2.900914640881D+03 PE=-7.228071953077D+03 EE= 1.276878757669D+03
 Leave Link  502 at Thu Apr 16 11:23:46 2020, MaxMem= 1073741824 cpu:     331.9
 (Enter /home/matheus/.gaussian/g09/l108.exe)
 Variable Step   Value    
 -------- ---- -----------
     1       2    6.047124
 Leave Link  108 at Thu Apr 16 11:23:46 2020, MaxMem= 1073741824 cpu:       0.0
 (Enter /home/matheus/.gaussian/g09/l202.exe)
 ---------------------------------------------------------------------------------------------------
                            Z-MATRIX (ANGSTROMS AND DEGREES)
   CD    Cent   Atom    N1       Length/X        N2       Alpha/Y        N3        Beta/Z          J
 ---------------------------------------------------------------------------------------------------
      1      1  O        0   0.000000          0.000000          0.725000
      2      2  O        0   0.000000          0.000000         -0.725000
      3      3  H        0   0.159534         -0.904763          1.023510
      4      4  H        0   0.000000          0.918721         -1.023510
      5      5  Kr       0   0.000000          3.200000          0.000000
 ---------------------------------------------------------------------------------------------------
                         Z-Matrix orientation:                         
 ---------------------------------------------------------------------
 Center     Atomic      Atomic             Coordinates (Angstroms)
 Number     Number       Type             X           Y           Z
 ---------------------------------------------------------------------
      1          8           0        0.000000    0.000000    0.725000
      2          8           0        0.000000    0.000000   -0.725000
      3          1           0        0.159534   -0.904763    1.023510
      4          1           0        0.000000    0.918721   -1.023510
      5         36           0        0.000000    3.200000    0.000000
 ---------------------------------------------------------------------
                    Distance matrix (angstroms):
                    1          2          3          4          5
     1  O    0.000000
     2  O    1.450000   0.000000
     3  H    0.966000   1.975180   0.000000
     4  H    1.975180   0.966000   2.746059   0.000000
     5  Kr   3.281101   3.281101   4.233451   2.500362   0.000000
 Stoichiometry    H2KrO2
 Framework group  C1[X(H2KrO2)]
 Deg. of freedom     9
 Full point group                 C1      NOp   1
 RotChk:  IX=0 Diff= 1.66D-03
 Largest Abelian subgroup         C1      NOp   1
 Largest concise Abelian subgroup C1      NOp   1
                         Standard orientation:                         
 ---------------------------------------------------------------------
 Center     Atomic      Atomic             Coordinates (Angstroms)
 Number     Number       Type             X           Y           Z
 ---------------------------------------------------------------------
      1          8           0        2.145149   -0.689724   -0.021601
      2          8           0        2.121407    0.759920    0.000031
      3          1           0        3.055296   -0.975666    0.130140
      4          1           0        1.197929    1.043263    0.007857
      5         36           0       -1.066269   -0.017477    0.000960
 ---------------------------------------------------------------------
 Rotational constants (GHZ):     26.6898902      2.0259988      1.8833810
 Leave Link  202 at Thu Apr 16 11:23:46 2020, MaxMem= 1073741824 cpu:       0.0
 (Enter /home/matheus/.gaussian/g09/l301.exe)
 Standard basis: Aug-CC-pVTZ (5D, 7F)
 Ernie: Thresh=  0.10000D-02 Tol=  0.10000D-05 Strict=F.
 Ernie:  38 primitive shells out of 205 were deleted.
 There are   197 symmetry adapted basis functions of A   symmetry.
 Integral buffers will be    131072 words long.
 Raffenetti 2 integral format.
 Two-electron integral symmetry is turned on.
   197 basis functions,   415 primitive gaussians,   229 cartesian basis functions
    27 alpha electrons       27 beta electrons
       nuclear repulsion energy       141.6174519096 Hartrees.
 IExCor= 4639 DFT=T Ex+Corr=wB97XD ExCW=0 ScaHFX=  1.000000
 ScaDFX=  1.000000  1.000000  1.000000  1.000000 ScalE2=  1.000000  1.000000
 IRadAn=      5 IRanWt=     -1 IRanGd=            0 ICorTp=0
  HFx wShort=  0.000000 wLong=  0.250000 cFull=  0.222036 cShort=  0.000000 cLong=  0.777964
  DFx wShort=  0.000000 wLong=  0.250000 cFull=  0.000000 cShort=  0.000000 cLong=  1.000000
 NAtoms=    5 NActive=    5 NUniq=    5 SFac= 1.00D+00 NAtFMM=   60 NAOKFM=F Big=F
 R6Disp: Dispersion energy =        -0.0008727961 Hartrees.
 Nuclear repulsion after empirical dispersion term =      141.6165791135 Hartrees.
 Leave Link  301 at Thu Apr 16 11:23:46 2020, MaxMem= 1073741824 cpu:       0.2
 (Enter /home/matheus/.gaussian/g09/l302.exe)
 NPDir=0 NMtPBC=     1 NCelOv=     1 NCel=       1 NClECP=     1 NCelD=      1
         NCelK=      1 NCelE2=     1 NClLst=     1 CellRange=     0.0.
 One-electron integrals computed using PRISM.
 NBasis=   197 RedAO= T  NBF=   197
 NBsUse=   197 1.00D-06 NBFU=   197
 Precomputing XC quadrature grid using
 IXCGrd= 2 IRadAn=           5 IRanWt=          -1 IRanGd=           0 AccXCQ= 0.00D+00.
 NRdTot=     427 NPtTot=      123814 NUsed=      126881 NTot=      126913
 NSgBfM=   229   229   229   229   229 NAtAll=     5     5.
 Leave Link  302 at Thu Apr 16 11:23:46 2020, MaxMem= 1073741824 cpu:       1.6
 (Enter /home/matheus/.gaussian/g09/l303.exe)
 DipDrv:  MaxL=1.
 Leave Link  303 at Thu Apr 16 11:23:46 2020, MaxMem= 1073741824 cpu:       0.3
 (Enter /home/matheus/.gaussian/g09/l401.exe)
 Initial guess read from the read-write file.
 B after Tr=     0.000000    0.000000    0.000000
         Rot=    1.000000    0.000000    0.000000    0.000000 Ang=   0.00 deg.
 Guess basis will be translated and rotated to current coordinates.
 Initial guess orbital symmetries:
       Occupied  (A) (A) (A) (A) (A) (A) (A) (A) (A) (A) (A) (A)
                 (A) (A) (A) (A) (A) (A) (A) (A) (A) (A) (A) (A)
                 (A) (A) (A)
       Virtual   (A) (A) (A) (A) (A) (A) (A) (A) (A) (A) (A) (A)
                 (A) (A) (A) (A) (A) (A) (A) (A) (A) (A) (A) (A)
                 (A) (A) (A) (A) (A) (A) (A) (A) (A) (A) (A) (A)
                 (A) (A) (A) (A) (A) (A) (A) (A) (A) (A) (A) (A)
                 (A) (A) (A) (A) (A) (A) (A) (A) (A) (A) (A) (A)
                 (A) (A) (A) (A) (A) (A) (A) (A) (A) (A) (A) (A)
                 (A) (A) (A) (A) (A) (A) (A) (A) (A) (A) (A) (A)
                 (A) (A) (A) (A) (A) (A) (A) (A) (A) (A) (A) (A)
                 (A) (A) (A) (A) (A) (A) (A) (A) (A) (A) (A) (A)
                 (A) (A) (A) (A) (A) (A) (A) (A) (A) (A) (A) (A)
                 (A) (A) (A) (A) (A) (A) (A) (A) (A) (A) (A) (A)
                 (A) (A) (A) (A) (A) (A) (A) (A) (A) (A) (A) (A)
                 (A) (A) (A) (A) (A) (A) (A) (A) (A) (A) (A) (A)
                 (A) (A) (A) (A) (A) (A) (A) (A) (A) (A) (A) (A)
                 (A) (A)
 The electronic state of the initial guess is 1-A.
 Generating alternative initial guess.
 Harris functional with IExCor= 4639 diagonalized for initial guess.
 ExpMin= 2.53D-02 ExpMax= 1.17D+07 ExpMxC= 1.33D+04 IAcc=3 IRadAn=         5 AccDes= 0.00D+00
 HarFok:  IExCor= 4639 AccDes= 0.00D+00 IRadAn=         5 IDoV= 1
 ScaDFX=  1.000000  1.000000  1.000000  1.000000
 FoFCou: FMM=F IPFlag=           0 FMFlag=      100000 FMFlg1=           0
         NFxFlg=           0 DoJE=T BraDBF=F KetDBF=T FulRan=T
         Omega=  0.000000  0.000000  1.000000  0.000000  0.000000 ICntrl=     500 IOpCl=  0
         NMat0=    1 NMatS0=    1 NMatT0=    0 NMatD0=    1 NMtDS0=    0 NMtDT0=    0
         I1Cent=           4 NGrid=           0.
 Petite list used in FoFCou.
 Harris En= -2875.39870099206    
 Leave Link  401 at Thu Apr 16 11:23:47 2020, MaxMem= 1073741824 cpu:       6.6
 (Enter /home/matheus/.gaussian/g09/l502.exe)
 Closed shell SCF:
 Requested convergence on RMS density matrix=1.00D-08 within 128 cycles.
 Requested convergence on MAX density matrix=1.00D-06.
 Requested convergence on             energy=1.00D-06.
 No special actions if energy rises.
 Using DIIS extrapolation, IDIIS=  1040.
 Integral symmetry usage will be decided dynamically.
       126823 words used for storage of precomputed grid.
 IEnd=      305770 IEndB=      305770 NGot=  1073741824 MDV=  1073505365
 LenX=  1073505365 LenY=  1073452483
 Fock matrices will be formed incrementally for  20 cycles.

 Cycle   1  Pass 1  IDiag  1:
 FoFJK:  IHMeth= 1 ICntrl=     0 DoSepK=T KAlg= 1 I1Cent= 0 FoldK=F
 FoFCou: FMM=F IPFlag=           0 FMFlag=      100000 FMFlg1=           0
         NFxFlg=           0 DoJE=T BraDBF=F KetDBF=F FulRan=T
         Omega=  0.000000  0.000000  1.000000  0.000000  0.000000 ICntrl=     500 IOpCl=  0
         NMat0=    1 NMatS0=    1 NMatT0=    0 NMatD0=    1 NMtDS0=    0 NMtDT0=    0
         I1Cent=           0 NGrid=           0.
 Symmetry not used in FoFCou.
 E= -2905.42653678429    
 DIIS: error= 1.10D-03 at cycle   1 NSaved=   1.
 NSaved= 1 IEnMin= 1 EnMin= -2905.42653678429     IErMin= 1 ErrMin= 1.10D-03
 ErrMax= 1.10D-03 EMaxC= 1.00D-01 BMatC= 3.99D-04 BMatP= 3.99D-04
 IDIUse=3 WtCom= 9.89D-01 WtEn= 1.10D-02
 Coeff-Com:  0.100D+01
 Coeff-En:   0.100D+01
 Coeff:      0.100D+01
 Gap=     0.406 Goal=   None    Shift=    0.000
 GapD=    0.406 DampG=2.000 DampE=1.000 DampFc=2.0000 IDamp=-1.
 RMSDP=7.75D-05 MaxDP=2.21D-03              OVMax= 3.50D-03

 Cycle   2  Pass 1  IDiag  1:
 RMSU=  5.48D-05    CP:  1.00D+00
 FoFJK:  IHMeth= 1 ICntrl=     0 DoSepK=T KAlg= 1 I1Cent= 0 FoldK=F
 E= -2905.42661370454     Delta-E=       -0.000076920242 Rises=F Damp=F
 DIIS: error= 1.06D-04 at cycle   2 NSaved=   2.
 NSaved= 2 IEnMin= 2 EnMin= -2905.42661370454     IErMin= 2 ErrMin= 1.06D-04
 ErrMax= 1.06D-04 EMaxC= 1.00D-01 BMatC= 3.50D-06 BMatP= 3.99D-04
 IDIUse=3 WtCom= 9.99D-01 WtEn= 1.06D-03
 Coeff-Com: -0.235D-02 0.100D+01
 Coeff-En:   0.000D+00 0.100D+01
 Coeff:     -0.234D-02 0.100D+01
 Gap=     0.405 Goal=   None    Shift=    0.000
 RMSDP=1.61D-05 MaxDP=5.67D-04 DE=-7.69D-05 OVMax= 7.46D-04

 Cycle   3  Pass 1  IDiag  1:
 RMSU=  8.30D-06    CP:  1.00D+00  1.14D+00
 FoFJK:  IHMeth= 1 ICntrl=     0 DoSepK=T KAlg= 1 I1Cent= 0 FoldK=F
 E= -2905.42661575505     Delta-E=       -0.000002050516 Rises=F Damp=F
 DIIS: error= 1.01D-04 at cycle   3 NSaved=   3.
 NSaved= 3 IEnMin= 3 EnMin= -2905.42661575505     IErMin= 3 ErrMin= 1.01D-04
 ErrMax= 1.01D-04 EMaxC= 1.00D-01 BMatC= 2.98D-06 BMatP= 3.50D-06
 IDIUse=3 WtCom= 9.99D-01 WtEn= 1.01D-03
 Coeff-Com: -0.831D-02 0.482D+00 0.526D+00
 Coeff-En:   0.000D+00 0.154D+00 0.846D+00
 Coeff:     -0.830D-02 0.482D+00 0.527D+00
 Gap=     0.405 Goal=   None    Shift=    0.000
 RMSDP=4.98D-06 MaxDP=2.50D-04 DE=-2.05D-06 OVMax= 4.23D-04

 Cycle   4  Pass 1  IDiag  1:
 RMSU=  2.87D-06    CP:  1.00D+00  1.16D+00  7.81D-01
 FoFJK:  IHMeth= 1 ICntrl=     0 DoSepK=T KAlg= 1 I1Cent= 0 FoldK=F
 E= -2905.42661757171     Delta-E=       -0.000001816658 Rises=F Damp=F
 DIIS: error= 2.71D-05 at cycle   4 NSaved=   4.
 NSaved= 4 IEnMin= 4 EnMin= -2905.42661757171     IErMin= 4 ErrMin= 2.71D-05
 ErrMax= 2.71D-05 EMaxC= 1.00D-01 BMatC= 1.67D-07 BMatP= 2.98D-06
 IDIUse=1 WtCom= 1.00D+00 WtEn= 0.00D+00
 Coeff-Com: -0.247D-02 0.496D-01 0.185D+00 0.768D+00
 Coeff:     -0.247D-02 0.496D-01 0.185D+00 0.768D+00
 Gap=     0.405 Goal=   None    Shift=    0.000
 RMSDP=2.00D-06 MaxDP=6.53D-05 DE=-1.82D-06 OVMax= 1.19D-04

 Cycle   5  Pass 1  IDiag  1:
 RMSU=  9.52D-07    CP:  1.00D+00  1.17D+00  8.74D-01  1.04D+00
 FoFJK:  IHMeth= 1 ICntrl=     0 DoSepK=T KAlg= 1 I1Cent= 0 FoldK=F
 E= -2905.42661769680     Delta-E=       -0.000000125091 Rises=F Damp=F
 DIIS: error= 1.01D-05 at cycle   5 NSaved=   5.
 NSaved= 5 IEnMin= 5 EnMin= -2905.42661769680     IErMin= 5 ErrMin= 1.01D-05
 ErrMax= 1.01D-05 EMaxC= 1.00D-01 BMatC= 2.66D-08 BMatP= 1.67D-07
 IDIUse=1 WtCom= 1.00D+00 WtEn= 0.00D+00
 Coeff-Com:  0.234D-03-0.563D-01-0.548D-02 0.321D+00 0.740D+00
 Coeff:      0.234D-03-0.563D-01-0.548D-02 0.321D+00 0.740D+00
 Gap=     0.405 Goal=   None    Shift=    0.000
 RMSDP=9.80D-07 MaxDP=6.15D-05 DE=-1.25D-07 OVMax= 4.81D-05

 Cycle   6  Pass 1  IDiag  1:
 RMSU=  3.16D-07    CP:  1.00D+00  1.18D+00  9.18D-01  1.18D+00  9.53D-01
 FoFJK:  IHMeth= 1 ICntrl=     0 DoSepK=T KAlg= 1 I1Cent= 0 FoldK=F
 E= -2905.42661771936     Delta-E=       -0.000000022558 Rises=F Damp=F
 DIIS: error= 2.12D-06 at cycle   6 NSaved=   6.
 NSaved= 6 IEnMin= 6 EnMin= -2905.42661771936     IErMin= 6 ErrMin= 2.12D-06
 ErrMax= 2.12D-06 EMaxC= 1.00D-01 BMatC= 1.05D-09 BMatP= 2.66D-08
 IDIUse=1 WtCom= 1.00D+00 WtEn= 0.00D+00
 Coeff-Com:  0.190D-03-0.196D-01-0.113D-01 0.546D-01 0.225D+00 0.751D+00
 Coeff:      0.190D-03-0.196D-01-0.113D-01 0.546D-01 0.225D+00 0.751D+00
 Gap=     0.405 Goal=   None    Shift=    0.000
 RMSDP=1.88D-07 MaxDP=6.82D-06 DE=-2.26D-08 OVMax= 1.08D-05

 Cycle   7  Pass 1  IDiag  1:
 RMSU=  7.78D-08    CP:  1.00D+00  1.18D+00  9.25D-01  1.20D+00  1.02D+00
                    CP:  1.06D+00
 FoFJK:  IHMeth= 1 ICntrl=     0 DoSepK=T KAlg= 1 I1Cent= 0 FoldK=F
 E= -2905.42661772052     Delta-E=       -0.000000001162 Rises=F Damp=F
 DIIS: error= 6.45D-07 at cycle   7 NSaved=   7.
 NSaved= 7 IEnMin= 7 EnMin= -2905.42661772052     IErMin= 7 ErrMin= 6.45D-07
 ErrMax= 6.45D-07 EMaxC= 1.00D-01 BMatC= 5.78D-11 BMatP= 1.05D-09
 IDIUse=1 WtCom= 1.00D+00 WtEn= 0.00D+00
 Coeff-Com: -0.228D-04 0.665D-02 0.858D-03-0.396D-01-0.852D-01 0.128D-01
 Coeff-Com:  0.110D+01
 Coeff:     -0.228D-04 0.665D-02 0.858D-03-0.396D-01-0.852D-01 0.128D-01
 Coeff:      0.110D+01
 Gap=     0.405 Goal=   None    Shift=    0.000
 RMSDP=9.85D-08 MaxDP=5.56D-06 DE=-1.16D-09 OVMax= 6.78D-06

 Cycle   8  Pass 1  IDiag  1:
 RMSU=  2.77D-08    CP:  1.00D+00  1.18D+00  9.28D-01  1.21D+00  1.04D+00
                    CP:  1.20D+00  1.23D+00
 FoFJK:  IHMeth= 1 ICntrl=     0 DoSepK=T KAlg= 1 I1Cent= 0 FoldK=F
 E= -2905.42661772066     Delta-E=       -0.000000000139 Rises=F Damp=F
 DIIS: error= 5.75D-08 at cycle   8 NSaved=   8.
 NSaved= 8 IEnMin= 8 EnMin= -2905.42661772066     IErMin= 8 ErrMin= 5.75D-08
 ErrMax= 5.75D-08 EMaxC= 1.00D-01 BMatC= 2.08D-12 BMatP= 5.78D-11
 IDIUse=1 WtCom= 1.00D+00 WtEn= 0.00D+00
 Coeff-Com: -0.116D-04 0.190D-02 0.541D-03-0.917D-02-0.221D-01-0.229D-01
 Coeff-Com:  0.170D+00 0.882D+00
 Coeff:     -0.116D-04 0.190D-02 0.541D-03-0.917D-02-0.221D-01-0.229D-01
 Coeff:      0.170D+00 0.882D+00
 Gap=     0.405 Goal=   None    Shift=    0.000
 RMSDP=1.31D-08 MaxDP=6.28D-07 DE=-1.39D-10 OVMax= 9.92D-07

 Cycle   9  Pass 1  IDiag  1:
 RMSU=  4.95D-09    CP:  1.00D+00  1.18D+00  9.28D-01  1.21D+00  1.04D+00
                    CP:  1.21D+00  1.28D+00  1.22D+00
 FoFJK:  IHMeth= 1 ICntrl=     0 DoSepK=T KAlg= 1 I1Cent= 0 FoldK=F
 E= -2905.42661772066     Delta-E=       -0.000000000003 Rises=F Damp=F
 DIIS: error= 1.85D-08 at cycle   9 NSaved=   9.
 NSaved= 9 IEnMin= 9 EnMin= -2905.42661772066     IErMin= 9 ErrMin= 1.85D-08
 ErrMax= 1.85D-08 EMaxC= 1.00D-01 BMatC= 1.61D-13 BMatP= 2.08D-12
 IDIUse=1 WtCom= 1.00D+00 WtEn= 0.00D+00
 Coeff-Com:  0.122D-05-0.424D-03-0.445D-04 0.257D-02 0.584D-02-0.244D-02
 Coeff-Com: -0.811D-01 0.749D-01 0.100D+01
 Coeff:      0.122D-05-0.424D-03-0.445D-04 0.257D-02 0.584D-02-0.244D-02
 Coeff:     -0.811D-01 0.749D-01 0.100D+01
 Gap=     0.405 Goal=   None    Shift=    0.000
 RMSDP=5.99D-09 MaxDP=2.59D-07 DE=-2.73D-12 OVMax= 3.37D-07

 SCF Done:  E(RwB97XD) =  -2905.42661772     A.U. after    9 cycles
             Convg  =    0.5985D-08             -V/T =  2.0016
 KE= 2.900907066676D+03 PE=-7.221603286810D+03 EE= 1.273653023299D+03
 Leave Link  502 at Thu Apr 16 11:24:28 2020, MaxMem= 1073741824 cpu:     331.7
 (Enter /home/matheus/.gaussian/g09/l108.exe)
 Variable Step   Value    
 -------- ---- -----------
     1       3    6.236096
 Leave Link  108 at Thu Apr 16 11:24:28 2020, MaxMem= 1073741824 cpu:       0.0
 (Enter /home/matheus/.gaussian/g09/l202.exe)
 ---------------------------------------------------------------------------------------------------
                            Z-MATRIX (ANGSTROMS AND DEGREES)
   CD    Cent   Atom    N1       Length/X        N2       Alpha/Y        N3        Beta/Z          J
 ---------------------------------------------------------------------------------------------------
      1      1  O        0   0.000000          0.000000          0.725000
      2      2  O        0   0.000000          0.000000         -0.725000
      3      3  H        0   0.159534         -0.904763          1.023510
      4      4  H        0   0.000000          0.918721         -1.023510
      5      5  Kr       0   0.000000          3.300000          0.000000
 ---------------------------------------------------------------------------------------------------
                         Z-Matrix orientation:                         
 ---------------------------------------------------------------------
 Center     Atomic      Atomic             Coordinates (Angstroms)
 Number     Number       Type             X           Y           Z
 ---------------------------------------------------------------------
      1          8           0        0.000000    0.000000    0.725000
      2          8           0        0.000000    0.000000   -0.725000
      3          1           0        0.159534   -0.904763    1.023510
      4          1           0        0.000000    0.918721   -1.023510
      5         36           0        0.000000    3.300000    0.000000
 ---------------------------------------------------------------------
                    Distance matrix (angstroms):
                    1          2          3          4          5
     1  O    0.000000
     2  O    1.450000   0.000000
     3  H    0.966000   1.975180   0.000000
     4  H    1.975180   0.966000   2.746059   0.000000
     5  Kr   3.378702   3.378702   4.330480   2.591923   0.000000
 Stoichiometry    H2KrO2
 Framework group  C1[X(H2KrO2)]
 Deg. of freedom     9
 Full point group                 C1      NOp   1
 RotChk:  IX=0 Diff= 1.50D-03
 Largest Abelian subgroup         C1      NOp   1
 Largest concise Abelian subgroup C1      NOp   1
                         Standard orientation:                         
 ---------------------------------------------------------------------
 Center     Atomic      Atomic             Coordinates (Angstroms)
 Number     Number       Type             X           Y           Z
 ---------------------------------------------------------------------
      1          8           0        2.211084   -0.690950   -0.021564
      2          8           0        2.188862    0.758718    0.000104
      3          1           0        3.120910   -0.977852    0.130294
      4          1           0        1.265681    1.043030    0.007812
      5         36           0       -1.099616   -0.016870    0.000933
 ---------------------------------------------------------------------
 Rotational constants (GHZ):     26.6884828      1.9058458      1.7791073
 Leave Link  202 at Thu Apr 16 11:24:28 2020, MaxMem= 1073741824 cpu:       0.0
 (Enter /home/matheus/.gaussian/g09/l301.exe)
 Standard basis: Aug-CC-pVTZ (5D, 7F)
 Ernie: Thresh=  0.10000D-02 Tol=  0.10000D-05 Strict=F.
 Ernie:  38 primitive shells out of 205 were deleted.
 There are   197 symmetry adapted basis functions of A   symmetry.
 Integral buffers will be    131072 words long.
 Raffenetti 2 integral format.
 Two-electron integral symmetry is turned on.
   197 basis functions,   415 primitive gaussians,   229 cartesian basis functions
    27 alpha electrons       27 beta electrons
       nuclear repulsion energy       138.5639496256 Hartrees.
 IExCor= 4639 DFT=T Ex+Corr=wB97XD ExCW=0 ScaHFX=  1.000000
 ScaDFX=  1.000000  1.000000  1.000000  1.000000 ScalE2=  1.000000  1.000000
 IRadAn=      5 IRanWt=     -1 IRanGd=            0 ICorTp=0
  HFx wShort=  0.000000 wLong=  0.250000 cFull=  0.222036 cShort=  0.000000 cLong=  0.777964
  DFx wShort=  0.000000 wLong=  0.250000 cFull=  0.000000 cShort=  0.000000 cLong=  1.000000
 NAtoms=    5 NActive=    5 NUniq=    5 SFac= 1.00D+00 NAtFMM=   60 NAOKFM=F Big=F
 R6Disp: Dispersion energy =        -0.0009192541 Hartrees.
 Nuclear repulsion after empirical dispersion term =      138.5630303716 Hartrees.
 Leave Link  301 at Thu Apr 16 11:24:28 2020, MaxMem= 1073741824 cpu:       0.2
 (Enter /home/matheus/.gaussian/g09/l302.exe)
 NPDir=0 NMtPBC=     1 NCelOv=     1 NCel=       1 NClECP=     1 NCelD=      1
         NCelK=      1 NCelE2=     1 NClLst=     1 CellRange=     0.0.
 One-electron integrals computed using PRISM.
 NBasis=   197 RedAO= T  NBF=   197
 NBsUse=   197 1.00D-06 NBFU=   197
 Precomputing XC quadrature grid using
 IXCGrd= 2 IRadAn=           5 IRanWt=          -1 IRanGd=           0 AccXCQ= 0.00D+00.
 NRdTot=     427 NPtTot=      123814 NUsed=      126881 NTot=      126913
 NSgBfM=   229   229   229   229   229 NAtAll=     5     5.
 Leave Link  302 at Thu Apr 16 11:24:29 2020, MaxMem= 1073741824 cpu:       1.1
 (Enter /home/matheus/.gaussian/g09/l303.exe)
 DipDrv:  MaxL=1.
 Leave Link  303 at Thu Apr 16 11:24:29 2020, MaxMem= 1073741824 cpu:       0.3
 (Enter /home/matheus/.gaussian/g09/l401.exe)
 Initial guess read from the read-write file.
 B after Tr=     0.000000    0.000000    0.000000
         Rot=    1.000000    0.000000    0.000000    0.000000 Ang=   0.00 deg.
 Guess basis will be translated and rotated to current coordinates.
 Initial guess orbital symmetries:
       Occupied  (A) (A) (A) (A) (A) (A) (A) (A) (A) (A) (A) (A)
                 (A) (A) (A) (A) (A) (A) (A) (A) (A) (A) (A) (A)
                 (A) (A) (A)
       Virtual   (A) (A) (A) (A) (A) (A) (A) (A) (A) (A) (A) (A)
                 (A) (A) (A) (A) (A) (A) (A) (A) (A) (A) (A) (A)
                 (A) (A) (A) (A) (A) (A) (A) (A) (A) (A) (A) (A)
                 (A) (A) (A) (A) (A) (A) (A) (A) (A) (A) (A) (A)
                 (A) (A) (A) (A) (A) (A) (A) (A) (A) (A) (A) (A)
                 (A) (A) (A) (A) (A) (A) (A) (A) (A) (A) (A) (A)
                 (A) (A) (A) (A) (A) (A) (A) (A) (A) (A) (A) (A)
                 (A) (A) (A) (A) (A) (A) (A) (A) (A) (A) (A) (A)
                 (A) (A) (A) (A) (A) (A) (A) (A) (A) (A) (A) (A)
                 (A) (A) (A) (A) (A) (A) (A) (A) (A) (A) (A) (A)
                 (A) (A) (A) (A) (A) (A) (A) (A) (A) (A) (A) (A)
                 (A) (A) (A) (A) (A) (A) (A) (A) (A) (A) (A) (A)
                 (A) (A) (A) (A) (A) (A) (A) (A) (A) (A) (A) (A)
                 (A) (A) (A) (A) (A) (A) (A) (A) (A) (A) (A) (A)
                 (A) (A)
 The electronic state of the initial guess is 1-A.
 Generating alternative initial guess.
 Harris functional with IExCor= 4639 diagonalized for initial guess.
 ExpMin= 2.53D-02 ExpMax= 1.17D+07 ExpMxC= 1.33D+04 IAcc=3 IRadAn=         5 AccDes= 0.00D+00
 HarFok:  IExCor= 4639 AccDes= 0.00D+00 IRadAn=         5 IDoV= 1
 ScaDFX=  1.000000  1.000000  1.000000  1.000000
 FoFCou: FMM=F IPFlag=           0 FMFlag=      100000 FMFlg1=           0
         NFxFlg=           0 DoJE=T BraDBF=F KetDBF=T FulRan=T
         Omega=  0.000000  0.000000  1.000000  0.000000  0.000000 ICntrl=     500 IOpCl=  0
         NMat0=    1 NMatS0=    1 NMatT0=    0 NMatD0=    1 NMtDS0=    0 NMtDT0=    0
         I1Cent=           4 NGrid=           0.
 Petite list used in FoFCou.
 Harris En= -2875.40033249399    
 Leave Link  401 at Thu Apr 16 11:24:29 2020, MaxMem= 1073741824 cpu:       6.3
 (Enter /home/matheus/.gaussian/g09/l502.exe)
 Closed shell SCF:
 Requested convergence on RMS density matrix=1.00D-08 within 128 cycles.
 Requested convergence on MAX density matrix=1.00D-06.
 Requested convergence on             energy=1.00D-06.
 No special actions if energy rises.
 Using DIIS extrapolation, IDIIS=  1040.
 Integral symmetry usage will be decided dynamically.
       126823 words used for storage of precomputed grid.
 IEnd=      305770 IEndB=      305770 NGot=  1073741824 MDV=  1073505365
 LenX=  1073505365 LenY=  1073452483
 Fock matrices will be formed incrementally for  20 cycles.

 Cycle   1  Pass 1  IDiag  1:
 FoFJK:  IHMeth= 1 ICntrl=     0 DoSepK=T KAlg= 1 I1Cent= 0 FoldK=F
 FoFCou: FMM=F IPFlag=           0 FMFlag=      100000 FMFlg1=           0
         NFxFlg=           0 DoJE=T BraDBF=F KetDBF=F FulRan=T
         Omega=  0.000000  0.000000  1.000000  0.000000  0.000000 ICntrl=     500 IOpCl=  0
         NMat0=    1 NMatS0=    1 NMatT0=    0 NMatD0=    1 NMtDS0=    0 NMtDT0=    0
         I1Cent=           0 NGrid=           0.
 Symmetry not used in FoFCou.
 E= -2905.42725829653    
 DIIS: error= 8.71D-04 at cycle   1 NSaved=   1.
 NSaved= 1 IEnMin= 1 EnMin= -2905.42725829653     IErMin= 1 ErrMin= 8.71D-04
 ErrMax= 8.71D-04 EMaxC= 1.00D-01 BMatC= 2.98D-04 BMatP= 2.98D-04
 IDIUse=3 WtCom= 9.91D-01 WtEn= 8.71D-03
 Coeff-Com:  0.100D+01
 Coeff-En:   0.100D+01
 Coeff:      0.100D+01
 Gap=     0.406 Goal=   None    Shift=    0.000
 RMSDP=7.19D-05 MaxDP=1.85D-03              OVMax= 3.17D-03

 Cycle   2  Pass 1  IDiag  1:
 RMSU=  5.09D-05    CP:  1.00D+00
 FoFJK:  IHMeth= 1 ICntrl=     0 DoSepK=T KAlg= 1 I1Cent= 0 FoldK=F
 E= -2905.42731684297     Delta-E=       -0.000058546441 Rises=F Damp=F
 DIIS: error= 7.91D-05 at cycle   2 NSaved=   2.
 NSaved= 2 IEnMin= 2 EnMin= -2905.42731684297     IErMin= 2 ErrMin= 7.91D-05
 ErrMax= 7.91D-05 EMaxC= 1.00D-01 BMatC= 2.35D-06 BMatP= 2.98D-04
 IDIUse=1 WtCom= 1.00D+00 WtEn= 0.00D+00
 Coeff-Com: -0.423D-02 0.100D+01
 Coeff:     -0.423D-02 0.100D+01
 Gap=     0.405 Goal=   None    Shift=    0.000
 RMSDP=1.39D-05 MaxDP=4.58D-04 DE=-5.85D-05 OVMax= 6.53D-04

 Cycle   3  Pass 1  IDiag  1:
 RMSU=  6.85D-06    CP:  1.00D+00  1.14D+00
 FoFJK:  IHMeth= 1 ICntrl=     0 DoSepK=T KAlg= 1 I1Cent= 0 FoldK=F
 E= -2905.42731844145     Delta-E=       -0.000001598485 Rises=F Damp=F
 DIIS: error= 8.31D-05 at cycle   3 NSaved=   3.
 NSaved= 3 IEnMin= 3 EnMin= -2905.42731844145     IErMin= 2 ErrMin= 7.91D-05
 ErrMax= 8.31D-05 EMaxC= 1.00D-01 BMatC= 1.90D-06 BMatP= 2.35D-06
 IDIUse=1 WtCom= 1.00D+00 WtEn= 0.00D+00
 Coeff-Com: -0.829D-02 0.474D+00 0.534D+00
 Coeff:     -0.829D-02 0.474D+00 0.534D+00
 Gap=     0.405 Goal=   None    Shift=    0.000
 RMSDP=4.09D-06 MaxDP=2.03D-04 DE=-1.60D-06 OVMax= 3.42D-04

 Cycle   4  Pass 1  IDiag  1:
 RMSU=  2.49D-06    CP:  1.00D+00  1.15D+00  8.13D-01
 FoFJK:  IHMeth= 1 ICntrl=     0 DoSepK=T KAlg= 1 I1Cent= 0 FoldK=F
 E= -2905.42731959979     Delta-E=       -0.000001158336 Rises=F Damp=F
 DIIS: error= 2.21D-05 at cycle   4 NSaved=   4.
 NSaved= 4 IEnMin= 4 EnMin= -2905.42731959979     IErMin= 4 ErrMin= 2.21D-05
 ErrMax= 2.21D-05 EMaxC= 1.00D-01 BMatC= 1.22D-07 BMatP= 1.90D-06
 IDIUse=1 WtCom= 1.00D+00 WtEn= 0.00D+00
 Coeff-Com: -0.224D-02 0.365D-01 0.190D+00 0.776D+00
 Coeff:     -0.224D-02 0.365D-01 0.190D+00 0.776D+00
 Gap=     0.405 Goal=   None    Shift=    0.000
 RMSDP=1.80D-06 MaxDP=5.95D-05 DE=-1.16D-06 OVMax= 1.05D-04

 Cycle   5  Pass 1  IDiag  1:
 RMSU=  8.05D-07    CP:  1.00D+00  1.17D+00  9.20D-01  1.06D+00
 FoFJK:  IHMeth= 1 ICntrl=     0 DoSepK=T KAlg= 1 I1Cent= 0 FoldK=F
 E= -2905.42731969209     Delta-E=       -0.000000092302 Rises=F Damp=F
 DIIS: error= 8.06D-06 at cycle   5 NSaved=   5.
 NSaved= 5 IEnMin= 5 EnMin= -2905.42731969209     IErMin= 5 ErrMin= 8.06D-06
 ErrMax= 8.06D-06 EMaxC= 1.00D-01 BMatC= 1.88D-08 BMatP= 1.22D-07
 IDIUse=1 WtCom= 1.00D+00 WtEn= 0.00D+00
 Coeff-Com:  0.256D-03-0.566D-01 0.167D-03 0.326D+00 0.730D+00
 Coeff:      0.256D-03-0.566D-01 0.167D-03 0.326D+00 0.730D+00
 Gap=     0.405 Goal=   None    Shift=    0.000
 RMSDP=8.30D-07 MaxDP=5.11D-05 DE=-9.23D-08 OVMax= 3.91D-05

 Cycle   6  Pass 1  IDiag  1:
 RMSU=  2.60D-07    CP:  1.00D+00  1.17D+00  9.68D-01  1.20D+00  9.41D-01
 FoFJK:  IHMeth= 1 ICntrl=     0 DoSepK=T KAlg= 1 I1Cent= 0 FoldK=F
 E= -2905.42731970797     Delta-E=       -0.000000015883 Rises=F Damp=F
 DIIS: error= 1.72D-06 at cycle   6 NSaved=   6.
 NSaved= 6 IEnMin= 6 EnMin= -2905.42731970797     IErMin= 6 ErrMin= 1.72D-06
 ErrMax= 1.72D-06 EMaxC= 1.00D-01 BMatC= 7.52D-10 BMatP= 1.88D-08
 IDIUse=1 WtCom= 1.00D+00 WtEn= 0.00D+00
 Coeff-Com:  0.190D-03-0.189D-01-0.101D-01 0.537D-01 0.221D+00 0.754D+00
 Coeff:      0.190D-03-0.189D-01-0.101D-01 0.537D-01 0.221D+00 0.754D+00
 Gap=     0.405 Goal=   None    Shift=    0.000
 RMSDP=1.63D-07 MaxDP=6.45D-06 DE=-1.59D-08 OVMax= 8.98D-06

 Cycle   7  Pass 1  IDiag  1:
 RMSU=  6.58D-08    CP:  1.00D+00  1.17D+00  9.76D-01  1.22D+00  1.00D+00
                    CP:  1.05D+00
 FoFJK:  IHMeth= 1 ICntrl=     0 DoSepK=T KAlg= 1 I1Cent= 0 FoldK=F
 E= -2905.42731970880     Delta-E=       -0.000000000825 Rises=F Damp=F
 DIIS: error= 5.51D-07 at cycle   7 NSaved=   7.
 NSaved= 7 IEnMin= 7 EnMin= -2905.42731970880     IErMin= 7 ErrMin= 5.51D-07
 ErrMax= 5.51D-07 EMaxC= 1.00D-01 BMatC= 4.24D-11 BMatP= 7.52D-10
 IDIUse=1 WtCom= 1.00D+00 WtEn= 0.00D+00
 Coeff-Com: -0.264D-04 0.689D-02 0.195D-03-0.413D-01-0.861D-01 0.153D-01
 Coeff-Com:  0.111D+01
 Coeff:     -0.264D-04 0.689D-02 0.195D-03-0.413D-01-0.861D-01 0.153D-01
 Coeff:      0.111D+01
 Gap=     0.405 Goal=   None    Shift=    0.000
 RMSDP=8.41D-08 MaxDP=4.95D-06 DE=-8.25D-10 OVMax= 5.56D-06

 Cycle   8  Pass 1  IDiag  1:
 RMSU=  2.43D-08    CP:  1.00D+00  1.17D+00  9.79D-01  1.23D+00  1.02D+00
                    CP:  1.19D+00  1.26D+00
 FoFJK:  IHMeth= 1 ICntrl=     0 DoSepK=T KAlg= 1 I1Cent= 0 FoldK=F
 E= -2905.42731970890     Delta-E=       -0.000000000103 Rises=F Damp=F
 DIIS: error= 4.83D-08 at cycle   8 NSaved=   8.
 NSaved= 8 IEnMin= 8 EnMin= -2905.42731970890     IErMin= 8 ErrMin= 4.83D-08
 ErrMax= 4.83D-08 EMaxC= 1.00D-01 BMatC= 1.31D-12 BMatP= 4.24D-11
 IDIUse=1 WtCom= 1.00D+00 WtEn= 0.00D+00
 Coeff-Com: -0.107D-04 0.168D-02 0.329D-03-0.822D-02-0.192D-01-0.205D-01
 Coeff-Com:  0.147D+00 0.899D+00
 Coeff:     -0.107D-04 0.168D-02 0.329D-03-0.822D-02-0.192D-01-0.205D-01
 Coeff:      0.147D+00 0.899D+00
 Gap=     0.405 Goal=   None    Shift=    0.000
 RMSDP=1.18D-08 MaxDP=5.29D-07 DE=-1.03D-10 OVMax= 8.06D-07

 Cycle   9  Pass 1  IDiag  1:
 RMSU=  4.05D-09    CP:  1.00D+00  1.17D+00  9.79D-01  1.23D+00  1.02D+00
                    CP:  1.20D+00  1.31D+00  1.24D+00
 FoFJK:  IHMeth= 1 ICntrl=     0 DoSepK=T KAlg= 1 I1Cent= 0 FoldK=F
 E= -2905.42731970890     Delta-E=        0.000000000000 Rises=F Damp=F
 DIIS: error= 1.62D-08 at cycle   9 NSaved=   9.
 NSaved= 9 IEnMin= 8 EnMin= -2905.42731970890     IErMin= 9 ErrMin= 1.62D-08
 ErrMax= 1.62D-08 EMaxC= 1.00D-01 BMatC= 1.25D-13 BMatP= 1.31D-12
 IDIUse=1 WtCom= 1.00D+00 WtEn= 0.00D+00
 Coeff-Com:  0.162D-05-0.489D-03 0.123D-05 0.298D-02 0.652D-02-0.306D-02
 Coeff-Com: -0.884D-01 0.893D-01 0.993D+00
 Coeff:      0.162D-05-0.489D-03 0.123D-05 0.298D-02 0.652D-02-0.306D-02
 Coeff:     -0.884D-01 0.893D-01 0.993D+00
 Gap=     0.405 Goal=   None    Shift=    0.000
 RMSDP=5.38D-09 MaxDP=2.49D-07 DE= 0.00D+00 OVMax= 2.90D-07

 SCF Done:  E(RwB97XD) =  -2905.42731971     A.U. after    9 cycles
             Convg  =    0.5382D-08             -V/T =  2.0016
 KE= 2.900902652119D+03 PE=-7.215504319700D+03 EE= 1.270611317501D+03
 Leave Link  502 at Thu Apr 16 11:25:10 2020, MaxMem= 1073741824 cpu:     323.4
 (Enter /home/matheus/.gaussian/g09/l108.exe)
 Variable Step   Value    
 -------- ---- -----------
     1       4    6.425069
 Leave Link  108 at Thu Apr 16 11:25:10 2020, MaxMem= 1073741824 cpu:       0.0
 (Enter /home/matheus/.gaussian/g09/l202.exe)
 ---------------------------------------------------------------------------------------------------
                            Z-MATRIX (ANGSTROMS AND DEGREES)
   CD    Cent   Atom    N1       Length/X        N2       Alpha/Y        N3        Beta/Z          J
 ---------------------------------------------------------------------------------------------------
      1      1  O        0   0.000000          0.000000          0.725000
      2      2  O        0   0.000000          0.000000         -0.725000
      3      3  H        0   0.159534         -0.904763          1.023510
      4      4  H        0   0.000000          0.918721         -1.023510
      5      5  Kr       0   0.000000          3.400000          0.000000
 ---------------------------------------------------------------------------------------------------
                         Z-Matrix orientation:                         
 ---------------------------------------------------------------------
 Center     Atomic      Atomic             Coordinates (Angstroms)
 Number     Number       Type             X           Y           Z
 ---------------------------------------------------------------------
      1          8           0        0.000000    0.000000    0.725000
      2          8           0        0.000000    0.000000   -0.725000
      3          1           0        0.159534   -0.904763    1.023510
      4          1           0        0.000000    0.918721   -1.023510
      5         36           0        0.000000    3.400000    0.000000
 ---------------------------------------------------------------------
                    Distance matrix (angstroms):
                    1          2          3          4          5
     1  O    0.000000
     2  O    1.450000   0.000000
     3  H    0.966000   1.975180   0.000000
     4  H    1.975180   0.966000   2.746059   0.000000
     5  Kr   3.476439   3.476439   4.427642   2.684087   0.000000
 Stoichiometry    H2KrO2
 Framework group  C1[X(H2KrO2)]
 Deg. of freedom     9
 Full point group                 C1      NOp   1
 RotChk:  IX=0 Diff= 1.36D-03
 Largest Abelian subgroup         C1      NOp   1
 Largest concise Abelian subgroup C1      NOp   1
                         Standard orientation:                         
 ---------------------------------------------------------------------
 Center     Atomic      Atomic             Coordinates (Angstroms)
 Number     Number       Type             X           Y           Z
 ---------------------------------------------------------------------
      1          8           0        2.277089   -0.692089   -0.021528
      2          8           0        2.256242    0.757598    0.000173
[...]
 ErrMax= 1.21D-05 EMaxC= 1.00D-01 BMatC= 2.63D-08 BMatP= 4.39D-06
 IDIUse=1 WtCom= 1.00D+00 WtEn= 0.00D+00
 Coeff-Com: -0.441D-02 0.100D+01
 Coeff:     -0.441D-02 0.100D+01
 Gap=     0.406 Goal=   None    Shift=    0.000
 RMSDP=2.37D-06 MaxDP=7.65D-05 DE=-9.61D-07 OVMax= 8.54D-05

 Cycle   3  Pass 1  IDiag  1:
 RMSU=  8.62D-07    CP:  1.00D+00  1.09D+00
 FoFJK:  IHMeth= 1 ICntrl=     0 DoSepK=T KAlg= 1 I1Cent= 0 FoldK=F
 E= -2905.42734951443     Delta-E=       -0.000000031002 Rises=F Damp=F
 DIIS: error= 6.54D-06 at cycle   3 NSaved=   3.
 NSaved= 3 IEnMin= 3 EnMin= -2905.42734951443     IErMin= 3 ErrMin= 6.54D-06
 ErrMax= 6.54D-06 EMaxC= 1.00D-01 BMatC= 8.03D-09 BMatP= 2.63D-08
 IDIUse=1 WtCom= 1.00D+00 WtEn= 0.00D+00
 Coeff-Com: -0.573D-02 0.324D+00 0.681D+00
 Coeff:     -0.573D-02 0.324D+00 0.681D+00
 Gap=     0.406 Goal=   None    Shift=    0.000
 RMSDP=3.58D-07 MaxDP=1.38D-05 DE=-3.10D-08 OVMax= 2.48D-05

 Cycle   4  Pass 1  IDiag  1:
 RMSU=  2.15D-07    CP:  1.00D+00  1.10D+00  9.95D-01
 FoFJK:  IHMeth= 1 ICntrl=     0 DoSepK=T KAlg= 1 I1Cent= 0 FoldK=F
 E= -2905.42734952014     Delta-E=       -0.000000005713 Rises=F Damp=F
 DIIS: error= 3.18D-06 at cycle   4 NSaved=   4.
 NSaved= 4 IEnMin= 4 EnMin= -2905.42734952014     IErMin= 4 ErrMin= 3.18D-06
 ErrMax= 3.18D-06 EMaxC= 1.00D-01 BMatC= 1.73D-09 BMatP= 8.03D-09
 IDIUse=1 WtCom= 1.00D+00 WtEn= 0.00D+00
 Coeff-Com: -0.215D-02 0.483D-01 0.308D+00 0.646D+00
 Coeff:     -0.215D-02 0.483D-01 0.308D+00 0.646D+00
 Gap=     0.406 Goal=   None    Shift=    0.000
 RMSDP=1.82D-07 MaxDP=6.20D-06 DE=-5.71D-09 OVMax= 1.09D-05

 Cycle   5  Pass 1  IDiag  1:
 RMSU=  8.66D-08    CP:  1.00D+00  1.10D+00  1.08D+00  9.15D-01
 FoFJK:  IHMeth= 1 ICntrl=     0 DoSepK=T KAlg= 1 I1Cent= 0 FoldK=F
 E= -2905.42734952137     Delta-E=       -0.000000001226 Rises=F Damp=F
 DIIS: error= 8.90D-07 at cycle   5 NSaved=   5.
 NSaved= 5 IEnMin= 5 EnMin= -2905.42734952137     IErMin= 5 ErrMin= 8.90D-07
 ErrMax= 8.90D-07 EMaxC= 1.00D-01 BMatC= 2.01D-10 BMatP= 1.73D-09
 IDIUse=1 WtCom= 1.00D+00 WtEn= 0.00D+00
 Coeff-Com:  0.409D-03-0.555D-01-0.338D-01 0.246D+00 0.843D+00
 Coeff:      0.409D-03-0.555D-01-0.338D-01 0.246D+00 0.843D+00
 Gap=     0.406 Goal=   None    Shift=    0.000
 RMSDP=9.00D-08 MaxDP=3.47D-06 DE=-1.23D-09 OVMax= 6.23D-06

 Cycle   6  Pass 1  IDiag  1:
 RMSU=  3.51D-08    CP:  1.00D+00  1.10D+00  1.12D+00  1.05D+00  1.05D+00
 FoFJK:  IHMeth= 1 ICntrl=     0 DoSepK=T KAlg= 1 I1Cent= 0 FoldK=F
 E= -2905.42734952159     Delta-E=       -0.000000000219 Rises=F Damp=F
 DIIS: error= 2.39D-07 at cycle   6 NSaved=   6.
 NSaved= 6 IEnMin= 6 EnMin= -2905.42734952159     IErMin= 6 ErrMin= 2.39D-07
 ErrMax= 2.39D-07 EMaxC= 1.00D-01 BMatC= 1.07D-11 BMatP= 2.01D-10
 IDIUse=1 WtCom= 1.00D+00 WtEn= 0.00D+00
 Coeff-Com:  0.232D-03-0.201D-01-0.254D-01 0.505D-01 0.286D+00 0.709D+00
 Coeff:      0.232D-03-0.201D-01-0.254D-01 0.505D-01 0.286D+00 0.709D+00
 Gap=     0.406 Goal=   None    Shift=    0.000
 RMSDP=1.53D-08 MaxDP=6.10D-07 DE=-2.19D-10 OVMax= 1.05D-06

 Cycle   7  Pass 1  IDiag  1:
 RMSU=  8.17D-09    CP:  1.00D+00  1.10D+00  1.13D+00  1.06D+00  1.11D+00
                    CP:  1.07D+00
 FoFJK:  IHMeth= 1 ICntrl=     0 DoSepK=T KAlg= 1 I1Cent= 0 FoldK=F
 E= -2905.42734952162     Delta-E=       -0.000000000028 Rises=F Damp=F
 DIIS: error= 8.18D-08 at cycle   7 NSaved=   7.
 NSaved= 7 IEnMin= 7 EnMin= -2905.42734952162     IErMin= 7 ErrMin= 8.18D-08
 ErrMax= 8.18D-08 EMaxC= 1.00D-01 BMatC= 9.09D-13 BMatP= 1.07D-11
 IDIUse=1 WtCom= 1.00D+00 WtEn= 0.00D+00
 Coeff-Com: -0.242D-04 0.589D-02 0.278D-03-0.348D-01-0.908D-01 0.139D+00
 Coeff-Com:  0.980D+00
 Coeff:     -0.242D-04 0.589D-02 0.278D-03-0.348D-01-0.908D-01 0.139D+00
 Coeff:      0.980D+00
 Gap=     0.406 Goal=   None    Shift=    0.000
 RMSDP=9.96D-09 MaxDP=3.48D-07 DE=-2.82D-11 OVMax= 5.82D-07

 SCF Done:  E(RwB97XD) =  -2905.42734952     A.U. after    7 cycles
             Convg  =    0.9961D-08             -V/T =  2.0016
 KE= 2.900915631765D+03 PE=-7.150564799879D+03 EE= 1.238220812738D+03
 Leave Link  502 at Thu Apr 16 11:33:37 2020, MaxMem= 1073741824 cpu:     199.9
 (Enter /home/matheus/.gaussian/g09/l108.exe)
 Variable Step   Value    
 -------- ---- -----------
     1      20    9.448631
 Leave Link  108 at Thu Apr 16 11:33:37 2020, MaxMem= 1073741824 cpu:       0.0
 (Enter /home/matheus/.gaussian/g09/l202.exe)
 ---------------------------------------------------------------------------------------------------
                            Z-MATRIX (ANGSTROMS AND DEGREES)
   CD    Cent   Atom    N1       Length/X        N2       Alpha/Y        N3        Beta/Z          J
 ---------------------------------------------------------------------------------------------------
      1      1  O        0   0.000000          0.000000          0.725000
      2      2  O        0   0.000000          0.000000         -0.725000
      3      3  H        0   0.159534         -0.904763          1.023510
      4      4  H        0   0.000000          0.918721         -1.023510
      5      5  Kr       0   0.000000          5.000000          0.000000
 ---------------------------------------------------------------------------------------------------
                         Z-Matrix orientation:                         
 ---------------------------------------------------------------------
 Center     Atomic      Atomic             Coordinates (Angstroms)
 Number     Number       Type             X           Y           Z
 ---------------------------------------------------------------------
      1          8           0        0.000000    0.000000    0.725000
      2          8           0        0.000000    0.000000   -0.725000
      3          1           0        0.159534   -0.904763    1.023510
      4          1           0        0.000000    0.918721   -1.023510
      5         36           0        0.000000    5.000000    0.000000
 ---------------------------------------------------------------------
                    Distance matrix (angstroms):
                    1          2          3          4          5
     1  O    0.000000
     2  O    1.450000   0.000000
     3  H    0.966000   1.975180   0.000000
     4  H    1.975180   0.966000   2.746059   0.000000
     5  Kr   5.052289   5.052289   5.994936   4.207661   0.000000
 Stoichiometry    H2KrO2
 Framework group  C1[X(H2KrO2)]
 Deg. of freedom     9
 Full point group                 C1      NOp   1
 RotChk:  IX=0 Diff= 3.94D-04
 Largest Abelian subgroup         C1      NOp   1
 Largest concise Abelian subgroup C1      NOp   1
                         Standard orientation:                         
 ---------------------------------------------------------------------
 Center     Atomic      Atomic             Coordinates (Angstroms)
 Number     Number       Type             X           Y           Z
 ---------------------------------------------------------------------
      1          8           0        3.338158   -0.703367   -0.021128
      2          8           0        3.328859    0.746436    0.000898
      3          1           0        4.245173   -0.998426    0.131910
      4          1           0        2.408245    1.038983    0.007406
      5         36           0       -1.666376   -0.010697    0.000625
 ---------------------------------------------------------------------
 Rotational constants (GHZ):     26.6764592      0.8331669      0.8079932
 Leave Link  202 at Thu Apr 16 11:33:37 2020, MaxMem= 1073741824 cpu:       0.0
 (Enter /home/matheus/.gaussian/g09/l301.exe)
 Standard basis: Aug-CC-pVTZ (5D, 7F)
 Ernie: Thresh=  0.10000D-02 Tol=  0.10000D-05 Strict=F.
 Ernie:  38 primitive shells out of 205 were deleted.
 There are   197 symmetry adapted basis functions of A   symmetry.
 Integral buffers will be    131072 words long.
 Raffenetti 2 integral format.
 Two-electron integral symmetry is turned on.
   197 basis functions,   415 primitive gaussians,   229 cartesian basis functions
    27 alpha electrons       27 beta electrons
       nuclear repulsion energy       104.6365281813 Hartrees.
 IExCor= 4639 DFT=T Ex+Corr=wB97XD ExCW=0 ScaHFX=  1.000000
 ScaDFX=  1.000000  1.000000  1.000000  1.000000 ScalE2=  1.000000  1.000000
 IRadAn=      5 IRanWt=     -1 IRanGd=            0 ICorTp=0
  HFx wShort=  0.000000 wLong=  0.250000 cFull=  0.222036 cShort=  0.000000 cLong=  0.777964
  DFx wShort=  0.000000 wLong=  0.250000 cFull=  0.000000 cShort=  0.000000 cLong=  1.000000
 NAtoms=    5 NActive=    5 NUniq=    5 SFac= 1.00D+00 NAtFMM=   60 NAOKFM=F Big=F
 R6Disp: Dispersion energy =        -0.0004256902 Hartrees.
 Nuclear repulsion after empirical dispersion term =      104.6361024910 Hartrees.
 Leave Link  301 at Thu Apr 16 11:33:37 2020, MaxMem= 1073741824 cpu:       0.3
 (Enter /home/matheus/.gaussian/g09/l302.exe)
 NPDir=0 NMtPBC=     1 NCelOv=     1 NCel=       1 NClECP=     1 NCelD=      1
         NCelK=      1 NCelE2=     1 NClLst=     1 CellRange=     0.0.
 One-electron integrals computed using PRISM.
 NBasis=   197 RedAO= T  NBF=   197
 NBsUse=   197 1.00D-06 NBFU=   197
 Precomputing XC quadrature grid using
 IXCGrd= 2 IRadAn=           5 IRanWt=          -1 IRanGd=           0 AccXCQ= 0.00D+00.
 NRdTot=     428 NPtTot=      124116 NUsed=      127190 NTot=      127222
 NSgBfM=   228   228   229   229   229 NAtAll=     5     5.
 Leave Link  302 at Thu Apr 16 11:33:37 2020, MaxMem= 1073741824 cpu:       1.2
 (Enter /home/matheus/.gaussian/g09/l303.exe)
 DipDrv:  MaxL=1.
 Leave Link  303 at Thu Apr 16 11:33:37 2020, MaxMem= 1073741824 cpu:       0.2
 (Enter /home/matheus/.gaussian/g09/l401.exe)
 Initial guess read from the read-write file.
 B after Tr=     0.000000    0.000000    0.000000
         Rot=    1.000000    0.000000    0.000000    0.000000 Ang=   0.00 deg.
 Guess basis will be translated and rotated to current coordinates.
 Initial guess orbital symmetries:
       Occupied  (A) (A) (A) (A) (A) (A) (A) (A) (A) (A) (A) (A)
                 (A) (A) (A) (A) (A) (A) (A) (A) (A) (A) (A) (A)
                 (A) (A) (A)
       Virtual   (A) (A) (A) (A) (A) (A) (A) (A) (A) (A) (A) (A)
                 (A) (A) (A) (A) (A) (A) (A) (A) (A) (A) (A) (A)
                 (A) (A) (A) (A) (A) (A) (A) (A) (A) (A) (A) (A)
                 (A) (A) (A) (A) (A) (A) (A) (A) (A) (A) (A) (A)
                 (A) (A) (A) (A) (A) (A) (A) (A) (A) (A) (A) (A)
                 (A) (A) (A) (A) (A) (A) (A) (A) (A) (A) (A) (A)
                 (A) (A) (A) (A) (A) (A) (A) (A) (A) (A) (A) (A)
                 (A) (A) (A) (A) (A) (A) (A) (A) (A) (A) (A) (A)
                 (A) (A) (A) (A) (A) (A) (A) (A) (A) (A) (A) (A)
                 (A) (A) (A) (A) (A) (A) (A) (A) (A) (A) (A) (A)
                 (A) (A) (A) (A) (A) (A) (A) (A) (A) (A) (A) (A)
                 (A) (A) (A) (A) (A) (A) (A) (A) (A) (A) (A) (A)
                 (A) (A) (A) (A) (A) (A) (A) (A) (A) (A) (A) (A)
                 (A) (A) (A) (A) (A) (A) (A) (A) (A) (A) (A) (A)
                 (A) (A)
 The electronic state of the initial guess is 1-A.
 Generating alternative initial guess.
 Harris functional with IExCor= 4639 diagonalized for initial guess.
 ExpMin= 2.53D-02 ExpMax= 1.17D+07 ExpMxC= 1.33D+04 IAcc=3 IRadAn=         5 AccDes= 0.00D+00
 HarFok:  IExCor= 4639 AccDes= 0.00D+00 IRadAn=         5 IDoV= 1
 ScaDFX=  1.000000  1.000000  1.000000  1.000000
 FoFCou: FMM=F IPFlag=           0 FMFlag=      100000 FMFlg1=           0
         NFxFlg=           0 DoJE=T BraDBF=F KetDBF=T FulRan=T
         Omega=  0.000000  0.000000  1.000000  0.000000  0.000000 ICntrl=     500 IOpCl=  0
         NMat0=    1 NMatS0=    1 NMatT0=    0 NMatD0=    1 NMtDS0=    0 NMtDT0=    0
         I1Cent=           4 NGrid=           0.
 Petite list used in FoFCou.
 Harris En= -2875.40161472156    
 Leave Link  401 at Thu Apr 16 11:33:38 2020, MaxMem= 1073741824 cpu:       5.6
 (Enter /home/matheus/.gaussian/g09/l502.exe)
 Closed shell SCF:
 Requested convergence on RMS density matrix=1.00D-08 within 128 cycles.
 Requested convergence on MAX density matrix=1.00D-06.
 Requested convergence on             energy=1.00D-06.
 No special actions if energy rises.
 Using DIIS extrapolation, IDIIS=  1040.
 Integral symmetry usage will be decided dynamically.
       127132 words used for storage of precomputed grid.
 IEnd=      306079 IEndB=      306079 NGot=  1073741824 MDV=  1073505056
 LenX=  1073505056 LenY=  1073452174
 Fock matrices will be formed incrementally for  20 cycles.

 Cycle   1  Pass 1  IDiag  1:
 FoFJK:  IHMeth= 1 ICntrl=     0 DoSepK=T KAlg= 1 I1Cent= 0 FoldK=F
 FoFCou: FMM=F IPFlag=           0 FMFlag=      100000 FMFlg1=           0
         NFxFlg=           0 DoJE=T BraDBF=F KetDBF=F FulRan=T
         Omega=  0.000000  0.000000  1.000000  0.000000  0.000000 ICntrl=     500 IOpCl=  0
         NMat0=    1 NMatS0=    1 NMatT0=    0 NMatD0=    1 NMtDS0=    0 NMtDT0=    0
         I1Cent=           0 NGrid=           0.
 Symmetry not used in FoFCou.
 E= -2905.42730384511    
 DIIS: error= 1.30D-04 at cycle   1 NSaved=   1.
 NSaved= 1 IEnMin= 1 EnMin= -2905.42730384511     IErMin= 1 ErrMin= 1.30D-04
 ErrMax= 1.30D-04 EMaxC= 1.00D-01 BMatC= 3.87D-06 BMatP= 3.87D-06
 IDIUse=3 WtCom= 9.99D-01 WtEn= 1.30D-03
 Coeff-Com:  0.100D+01
 Coeff-En:   0.100D+01
 Coeff:      0.100D+01
 Gap=     0.406 Goal=   None    Shift=    0.000
 RMSDP=2.05D-05 MaxDP=7.03D-04              OVMax= 3.96D-04

 Cycle   2  Pass 1  IDiag  1:
 RMSU=  1.45D-05    CP:  1.00D+00
 FoFJK:  IHMeth= 1 ICntrl=     0 DoSepK=T KAlg= 1 I1Cent= 0 FoldK=F
 E= -2905.42730465593     Delta-E=       -0.000000810825 Rises=F Damp=F
 DIIS: error= 1.11D-05 at cycle   2 NSaved=   2.
 NSaved= 2 IEnMin= 2 EnMin= -2905.42730465593     IErMin= 2 ErrMin= 1.11D-05
 ErrMax= 1.11D-05 EMaxC= 1.00D-01 BMatC= 2.17D-08 BMatP= 3.87D-06
 IDIUse=1 WtCom= 1.00D+00 WtEn= 0.00D+00
 Coeff-Com: -0.439D-02 0.100D+01
 Coeff:     -0.439D-02 0.100D+01
 Gap=     0.406 Goal=   None    Shift=    0.000
 RMSDP=2.06D-06 MaxDP=6.05D-05 DE=-8.11D-07 OVMax= 7.64D-05

 Cycle   3  Pass 1  IDiag  1:
 RMSU=  8.13D-07    CP:  1.00D+00  1.08D+00
 FoFJK:  IHMeth= 1 ICntrl=     0 DoSepK=T KAlg= 1 I1Cent= 0 FoldK=F
 E= -2905.42730468139     Delta-E=       -0.000000025461 Rises=F Damp=F
 DIIS: error= 6.10D-06 at cycle   3 NSaved=   3.
 NSaved= 3 IEnMin= 3 EnMin= -2905.42730468139     IErMin= 3 ErrMin= 6.10D-06
 ErrMax= 6.10D-06 EMaxC= 1.00D-01 BMatC= 6.52D-09 BMatP= 2.17D-08
 IDIUse=1 WtCom= 1.00D+00 WtEn= 0.00D+00
 Coeff-Com: -0.542D-02 0.322D+00 0.683D+00
 Coeff:     -0.542D-02 0.322D+00 0.683D+00
 Gap=     0.406 Goal=   None    Shift=    0.000
 RMSDP=3.08D-07 MaxDP=1.20D-05 DE=-2.55D-08 OVMax= 2.20D-05

 Cycle   4  Pass 1  IDiag  1:
 RMSU=  1.91D-07    CP:  1.00D+00  1.09D+00  9.96D-01
 FoFJK:  IHMeth= 1 ICntrl=     0 DoSepK=T KAlg= 1 I1Cent= 0 FoldK=F
 E= -2905.42730468604     Delta-E=       -0.000000004647 Rises=F Damp=F
 DIIS: error= 2.88D-06 at cycle   4 NSaved=   4.
 NSaved= 4 IEnMin= 4 EnMin= -2905.42730468604     IErMin= 4 ErrMin= 2.88D-06
 ErrMax= 2.88D-06 EMaxC= 1.00D-01 BMatC= 1.39D-09 BMatP= 6.52D-09
 IDIUse=1 WtCom= 1.00D+00 WtEn= 0.00D+00
 Coeff-Com: -0.200D-02 0.472D-01 0.306D+00 0.649D+00
 Coeff:     -0.200D-02 0.472D-01 0.306D+00 0.649D+00
 Gap=     0.406 Goal=   None    Shift=    0.000
 RMSDP=1.67D-07 MaxDP=5.89D-06 DE=-4.65D-09 OVMax= 9.86D-06

 Cycle   5  Pass 1  IDiag  1:
 RMSU=  7.88D-08    CP:  1.00D+00  1.09D+00  1.09D+00  9.27D-01
 FoFJK:  IHMeth= 1 ICntrl=     0 DoSepK=T KAlg= 1 I1Cent= 0 FoldK=F
 E= -2905.42730468702     Delta-E=       -0.000000000985 Rises=F Damp=F
 DIIS: error= 8.16D-07 at cycle   5 NSaved=   5.
 NSaved= 5 IEnMin= 5 EnMin= -2905.42730468702     IErMin= 5 ErrMin= 8.16D-07
 ErrMax= 8.16D-07 EMaxC= 1.00D-01 BMatC= 1.69D-10 BMatP= 1.39D-09
 IDIUse=1 WtCom= 1.00D+00 WtEn= 0.00D+00
 Coeff-Com:  0.383D-03-0.550D-01-0.319D-01 0.253D+00 0.834D+00
 Coeff:      0.383D-03-0.550D-01-0.319D-01 0.253D+00 0.834D+00
 Gap=     0.406 Goal=   None    Shift=    0.000
 RMSDP=7.88D-08 MaxDP=3.08D-06 DE=-9.85D-10 OVMax= 5.30D-06

 Cycle   6  Pass 1  IDiag  1:
 RMSU=  3.21D-08    CP:  1.00D+00  1.10D+00  1.13D+00  1.05D+00  1.05D+00
 FoFJK:  IHMeth= 1 ICntrl=     0 DoSepK=T KAlg= 1 I1Cent= 0 FoldK=F
 E= -2905.42730468719     Delta-E=       -0.000000000169 Rises=F Damp=F
 DIIS: error= 2.16D-07 at cycle   6 NSaved=   6.
 NSaved= 6 IEnMin= 6 EnMin= -2905.42730468719     IErMin= 6 ErrMin= 2.16D-07
 ErrMax= 2.16D-07 EMaxC= 1.00D-01 BMatC= 9.22D-12 BMatP= 1.69D-10
 IDIUse=1 WtCom= 1.00D+00 WtEn= 0.00D+00
 Coeff-Com:  0.222D-03-0.202D-01-0.253D-01 0.522D-01 0.285D+00 0.708D+00
 Coeff:      0.222D-03-0.202D-01-0.253D-01 0.522D-01 0.285D+00 0.708D+00
 Gap=     0.406 Goal=   None    Shift=    0.000
 RMSDP=1.40D-08 MaxDP=5.60D-07 DE=-1.69D-10 OVMax= 9.87D-07

 Cycle   7  Pass 1  IDiag  1:
 RMSU=  7.71D-09    CP:  1.00D+00  1.10D+00  1.13D+00  1.07D+00  1.10D+00
                    CP:  1.08D+00
 FoFJK:  IHMeth= 1 ICntrl=     0 DoSepK=T KAlg= 1 I1Cent= 0 FoldK=F
 E= -2905.42730468721     Delta-E=       -0.000000000014 Rises=F Damp=F
 DIIS: error= 7.48D-08 at cycle   7 NSaved=   7.
 NSaved= 7 IEnMin= 7 EnMin= -2905.42730468721     IErMin= 7 ErrMin= 7.48D-08
 ErrMax= 7.48D-08 EMaxC= 1.00D-01 BMatC= 7.61D-13 BMatP= 9.22D-12
 IDIUse=1 WtCom= 1.00D+00 WtEn= 0.00D+00
 Coeff-Com: -0.225D-04 0.583D-02 0.861D-04-0.357D-01-0.898D-01 0.135D+00
 Coeff-Com:  0.984D+00
 Coeff:     -0.225D-04 0.583D-02 0.861D-04-0.357D-01-0.898D-01 0.135D+00
 Coeff:      0.984D+00
 Gap=     0.406 Goal=   None    Shift=    0.000
 RMSDP=9.02D-09 MaxDP=3.20D-07 DE=-1.36D-11 OVMax= 5.06D-07

 SCF Done:  E(RwB97XD) =  -2905.42730469     A.U. after    7 cycles
             Convg  =    0.9024D-08             -V/T =  2.0016
 KE= 2.900916123441D+03 PE=-7.147841151330D+03 EE= 1.236861620711D+03
 Leave Link  502 at Thu Apr 16 11:34:02 2020, MaxMem= 1073741824 cpu:     195.0
 (Enter /home/matheus/.gaussian/g09/l108.exe)
 Scan completed.

 Summary of the potential surface scan:
   N      R1          SCF    
 ----  ---------  -----------
    1     3.0000  -2905.42385
    2     3.1000  -2905.42552
    3     3.2000  -2905.42662
    4     3.3000  -2905.42732
    5     3.4000  -2905.42774
    6     3.5000  -2905.42798
    7     3.6000  -2905.42809
    8     3.7000  -2905.42812
    9     3.8000  -2905.42810
   10     3.9000  -2905.42805
   11     4.0000  -2905.42798
   12     4.1000  -2905.42790
   13     4.2000  -2905.42782
   14     4.3000  -2905.42774
   15     4.4000  -2905.42766
   16     4.5000  -2905.42759
   17     4.6000  -2905.42752
   18     4.7000  -2905.42745
   19     4.8000  -2905.42740
   20     4.9000  -2905.42735
   21     5.0000  -2905.42730
 ----  ---------  -----------
  
 Leave Link  108 at Thu Apr 16 11:34:02 2020, MaxMem= 1073741824 cpu:       0.0
 (Enter /home/matheus/.gaussian/g09/l9999.exe)

 Test job not archived.
 1\1\GINC-REDGIANT\Scan\RwB97XD\Aug-CC-pVTZ\H2Kr1O2\ROOT\16-Apr-2020\1\
 \#p wb97xd/aug-cc-PVTz iop(3/107=0250000000) iop(3/108=0250000000) int
 =ultrafine Scan\\TCC\\0,1\O,0,0.,0.,0.725\O,0,0.,0.,-0.725\H,0,0.15953
 41571,-0.9047631646,1.0235104166\H,0,0.,0.9187205947,-1.0235104166\Kr,
 0,0.,R1,0.\\R1=3.,s,20,0.1\\Version=EM64L-G09RevC.01\State=1-A\HF=-290
 5.4238472,-2905.4255239,-2905.4266177,-2905.4273197,-2905.4277424,-290
 5.4279825,-2905.428088,-2905.4281184,-2905.4281006,-2905.428047,-2905.
 4279776,-2905.4278993,-2905.4278182,-2905.4277356,-2905.4276586,-2905.
 4275859,-2905.4275166,-2905.4274548,-2905.4274,-2905.4273495,-2905.427
 3047\RMSD=9.827e-09,6.528e-09,5.985e-09,5.382e-09,4.624e-09,3.584e-09,
 9.885e-09,9.242e-09,8.247e-09,7.270e-09,6.269e-09,5.173e-09,4.293e-09,
 3.467e-09,2.707e-09,2.222e-09,1.849e-09,1.588e-09,1.412e-09,9.961e-09,
 9.024e-09\PG=C01 [X(H2Kr1O2)]\\@


 QED = W**5 (WHICH WAS WHAT WE WANTED)
 Job cpu time:  0 days  1 hours 34 minutes 23.5 seconds.
 File lengths (MBytes):  RWF=     27 Int=      0 D2E=      0 Chk=      4 Scr=      1
 Normal termination of Gaussian 09 at Thu Apr 16 11:34:02 2020.
