 Entering Gaussian System, Link 0=g09
 Input=/home/matheus/.tcc/Inputs-wb97xd/H2O2-Kr_18.com
 Output=/home/matheus/.tcc/Logs-wb97xd/H2O2-Kr_18.log
 Initial command:
 /home/matheus/.gaussian/g09/l1.exe /home/matheus/.gaussian/g09/scratch/Gau-10051.inp -scrdir=/home/matheus/.gaussian/g09/scratch/
 Entering Link 1 = /home/matheus/.gaussian/g09/l1.exe PID=     10054.
  
 Copyright (c) 1988,1990,1992,1993,1995,1998,2003,2009,2011,
            Gaussian, Inc.  All Rights Reserved.
  
 This is part of the Gaussian(R) 09 program.  It is based on
 the Gaussian(R) 03 system (copyright 2003, Gaussian, Inc.),
 the Gaussian(R) 98 system (copyright 1998, Gaussian, Inc.),
 the Gaussian(R) 94 system (copyright 1995, Gaussian, Inc.),
 the Gaussian 92(TM) system (copyright 1992, Gaussian, Inc.),
 the Gaussian 90(TM) system (copyright 1990, Gaussian, Inc.),
 the Gaussian 88(TM) system (copyright 1988, Gaussian, Inc.),
 the Gaussian 86(TM) system (copyright 1986, Carnegie Mellon
 University), and the Gaussian 82(TM) system (copyright 1983,
 Carnegie Mellon University). Gaussian is a federally registered
 trademark of Gaussian, Inc.
  
 This software contains proprietary and confidential information,
 including trade secrets, belonging to Gaussian, Inc.
  
 This software is provided under written license and may be
 used, copied, transmitted, or stored only in accord with that
 written license.
  
 The following legend is applicable only to US Government
 contracts under FAR:
  
                    RESTRICTED RIGHTS LEGEND
  
 Use, reproduction and disclosure by the US Government is
 subject to restrictions as set forth in subparagraphs (a)
 and (c) of the Commercial Computer Software - Restricted
 Rights clause in FAR 52.227-19.
  
 Gaussian, Inc.
 340 Quinnipiac St., Bldg. 40, Wallingford CT 06492
  
  
 ---------------------------------------------------------------
 Warning -- This program may not be used in any manner that
 competes with the business of Gaussian, Inc. or will provide
 assistance to any competitor of Gaussian, Inc.  The licensee
 of this program is prohibited from giving any competitor of
 Gaussian, Inc. access to this program.  By using this program,
 the user acknowledges that Gaussian, Inc. is engaged in the
 business of creating and licensing software in the field of
 computational chemistry and represents and warrants to the
 licensee that it is not a competitor of Gaussian, Inc. and that
 it will not use this program in any manner prohibited above.
 ---------------------------------------------------------------
  

 Cite this work as:
 Gaussian 09, Revision C.01,
 M. J. Frisch, G. W. Trucks, H. B. Schlegel, G. E. Scuseria, 
 M. A. Robb, J. R. Cheeseman, G. Scalmani, V. Barone, B. Mennucci, 
 G. A. Petersson, H. Nakatsuji, M. Caricato, X. Li, H. P. Hratchian, 
 A. F. Izmaylov, J. Bloino, G. Zheng, J. L. Sonnenberg, M. Hada, 
 M. Ehara, K. Toyota, R. Fukuda, J. Hasegawa, M. Ishida, T. Nakajima, 
 Y. Honda, O. Kitao, H. Nakai, T. Vreven, J. A. Montgomery, Jr., 
 J. E. Peralta, F. Ogliaro, M. Bearpark, J. J. Heyd, E. Brothers, 
 K. N. Kudin, V. N. Staroverov, T. Keith, R. Kobayashi, J. Normand, 
 K. Raghavachari, A. Rendell, J. C. Burant, S. S. Iyengar, J. Tomasi, 
 M. Cossi, N. Rega, J. M. Millam, M. Klene, J. E. Knox, J. B. Cross, 
 V. Bakken, C. Adamo, J. Jaramillo, R. Gomperts, R. E. Stratmann, 
 O. Yazyev, A. J. Austin, R. Cammi, C. Pomelli, J. W. Ochterski, 
 R. L. Martin, K. Morokuma, V. G. Zakrzewski, G. A. Voth, 
 P. Salvador, J. J. Dannenberg, S. Dapprich, A. D. Daniels, 
 O. Farkas, J. B. Foresman, J. V. Ortiz, J. Cioslowski, 
 and D. J. Fox, Gaussian, Inc., Wallingford CT, 2010.
 
 ******************************************
 Gaussian 09:  EM64L-G09RevC.01 23-Sep-2011
                16-Apr-2020 
 ******************************************
 %mem=8GB
 %nproc=8
 Will use up to    8 processors via shared memory.
 ----------------------------------------------------------------------
 #p wb97xd/aug-cc-PVTz iop(3/107=0250000000) iop(3/108=0250000000) int=
 ultrafine Scan
 ----------------------------------------------------------------------
 1/38=1,60=1/1,8;
 2/12=2,17=6,18=5,29=3,40=1/2;
 3/5=16,6=1,7=10,11=2,16=1,25=1,30=1,74=-58,75=-5,107=250000000,108=250000000/1,2,3;
 4//1;
 5/5=2,38=5/2;
 6/7=2,8=2,9=2,10=2,18=1,28=1/1;
 1/60=1/8(1);
 99/9=1/99;
 2/29=3/2;
 3/5=16,6=1,7=10,11=2,16=1,25=1,30=1,74=-58,75=-5,107=250000000,108=250000000/1,2,3;
 4/5=5,16=3/1;
 5/5=2,38=5/2;
 1/60=1/8(-4);
 99/9=1/99;
 Leave Link    1 at Thu Apr 16 11:34:04 2020, MaxMem= 1073741824 cpu:       0.1
 (Enter /home/matheus/.gaussian/g09/l101.exe)
 ---
 TCC
 ---
 Charge =  0 Multiplicity = 1
 Symbolic Z-Matrix:
 O                     0.        0.        0.725 
 O                     0.        0.       -0.725 
 H                     0.       -0.91872   1.02351 
 H                     0.        0.91872  -1.02351 
 Kr                    0.       R1        0. 
       Variables:
  R1                    3.     Scan 20    0.1    
 
 NAtoms=      5 NQM=        0 NQMF=       0 NMMI=      5 NMMIF=      0
                NMic=       0 NMicF=      0.
                    Isotopes and Nuclear Properties:
 (Nuclear quadrupole moments (NQMom) in fm**2, nuclear magnetic moments (NMagM)
  in nuclear magnetons)

  Atom         1           2           3           4           5
 IAtWgt=          16          16           1           1          84
 AtmWgt=  15.9949146  15.9949146   1.0078250   1.0078250  83.9115064
 NucSpn=           0           0           1           1           0
 AtZEff=   0.0000000   0.0000000   0.0000000   0.0000000   0.0000000
 NQMom=    0.0000000   0.0000000   0.0000000   0.0000000   0.0000000
 NMagM=    0.0000000   0.0000000   2.7928460   2.7928460   0.0000000
 Leave Link  101 at Thu Apr 16 11:34:04 2020, MaxMem= 1073741824 cpu:       0.4
 (Enter /home/matheus/.gaussian/g09/l108.exe)
 Scan the potential surface.
 Variable   Value     No. Steps Step-Size
 -------- ----------- --------- ---------
     1       3.000000      20      0.1000
 A total of     21 points will be computed.
 Leave Link  108 at Thu Apr 16 11:34:04 2020, MaxMem= 1073741824 cpu:       0.0
 (Enter /home/matheus/.gaussian/g09/l202.exe)
 ---------------------------------------------------------------------------------------------------
                            Z-MATRIX (ANGSTROMS AND DEGREES)
   CD    Cent   Atom    N1       Length/X        N2       Alpha/Y        N3        Beta/Z          J
 ---------------------------------------------------------------------------------------------------
      1      1  O        0   0.000000          0.000000          0.725000
      2      2  O        0   0.000000          0.000000         -0.725000
      3      3  H        0   0.000000         -0.918721          1.023510
      4      4  H        0   0.000000          0.918721         -1.023510
      5      5  Kr       0   0.000000          3.000000          0.000000
 ---------------------------------------------------------------------------------------------------
                         Z-Matrix orientation:                         
 ---------------------------------------------------------------------
 Center     Atomic      Atomic             Coordinates (Angstroms)
 Number     Number       Type             X           Y           Z
 ---------------------------------------------------------------------
      1          8           0        0.000000    0.000000    0.725000
      2          8           0        0.000000    0.000000   -0.725000
      3          1           0        0.000000   -0.918721    1.023510
      4          1           0        0.000000    0.918721   -1.023510
      5         36           0        0.000000    3.000000    0.000000
 ---------------------------------------------------------------------
                    Distance matrix (angstroms):
                    1          2          3          4          5
     1  O    0.000000
     2  O    1.450000   0.000000
     3  H    0.966000   1.975180   0.000000
     4  H    1.975180   0.966000   2.750724   0.000000
     5  Kr   3.086361   3.086361   4.050178   2.319331   0.000000
 Stoichiometry    H2KrO2
 Framework group  CS[SG(H2KrO2)]
 Deg. of freedom     7
 Full point group                 CS      NOp   2
 Largest Abelian subgroup         CS      NOp   2
 Largest concise Abelian subgroup C1      NOp   1
                         Standard orientation:                         
 ---------------------------------------------------------------------
 Center     Atomic      Atomic             Coordinates (Angstroms)
 Number     Number       Type             X           Y           Z
 ---------------------------------------------------------------------
      1          8           0        0.725000   -2.000000    0.000000
      2          8           0       -0.725000   -2.000000    0.000000
      3          1           0        1.023510   -2.918721    0.000000
      4          1           0       -1.023510   -1.081279    0.000000
      5         36           0        0.000000    1.000000    0.000000
 ---------------------------------------------------------------------
 Rotational constants (GHZ):     26.7279120      2.3023206      2.1197289
 Leave Link  202 at Thu Apr 16 11:34:04 2020, MaxMem= 1073741824 cpu:       0.0
 (Enter /home/matheus/.gaussian/g09/l301.exe)
 Standard basis: Aug-CC-pVTZ (5D, 7F)
 Ernie: Thresh=  0.10000D-02 Tol=  0.10000D-05 Strict=F.
 Ernie:  38 primitive shells out of 205 were deleted.
 There are   131 symmetry adapted basis functions of A'  symmetry.
 There are    66 symmetry adapted basis functions of A"  symmetry.
 Integral buffers will be    131072 words long.
 Raffenetti 2 integral format.
 Two-electron integral symmetry is turned on.
   197 basis functions,   415 primitive gaussians,   229 cartesian basis functions
    27 alpha electrons       27 beta electrons
       nuclear repulsion energy       148.2769905491 Hartrees.
 IExCor= 4639 DFT=T Ex+Corr=wB97XD ExCW=0 ScaHFX=  1.000000
 ScaDFX=  1.000000  1.000000  1.000000  1.000000 ScalE2=  1.000000  1.000000
 IRadAn=      5 IRanWt=     -1 IRanGd=            0 ICorTp=0
  HFx wShort=  0.000000 wLong=  0.250000 cFull=  0.222036 cShort=  0.000000 cLong=  0.777964
  DFx wShort=  0.000000 wLong=  0.250000 cFull=  0.000000 cShort=  0.000000 cLong=  1.000000
 NAtoms=    5 NActive=    5 NUniq=    5 SFac= 1.00D+00 NAtFMM=   60 NAOKFM=F Big=F
 R6Disp: Dispersion energy =        -0.0007639909 Hartrees.
 Nuclear repulsion after empirical dispersion term =      148.2762265582 Hartrees.
 Leave Link  301 at Thu Apr 16 11:34:04 2020, MaxMem= 1073741824 cpu:       0.2
 (Enter /home/matheus/.gaussian/g09/l302.exe)
 NPDir=0 NMtPBC=     1 NCelOv=     1 NCel=       1 NClECP=     1 NCelD=      1
         NCelK=      1 NCelE2=     1 NClLst=     1 CellRange=     0.0.
 One-electron integrals computed using PRISM.
 NBasis=   197 RedAO= T  NBF=   131    66
 NBsUse=   197 1.00D-06 NBFU=   131    66
 Precomputing XC quadrature grid using
 IXCGrd= 2 IRadAn=           5 IRanWt=          -1 IRanGd=           0 AccXCQ= 0.00D+00.
 NRdTot=     427 NPtTot=      123814 NUsed=      126881 NTot=      126913
 NSgBfM=   229   229   229   229   229 NAtAll=     5     5.
 Leave Link  302 at Thu Apr 16 11:34:05 2020, MaxMem= 1073741824 cpu:       1.1
 (Enter /home/matheus/.gaussian/g09/l303.exe)
 DipDrv:  MaxL=1.
 Leave Link  303 at Thu Apr 16 11:34:05 2020, MaxMem= 1073741824 cpu:       0.2
 (Enter /home/matheus/.gaussian/g09/l401.exe)
 Harris functional with IExCor= 4639 diagonalized for initial guess.
 ExpMin= 2.53D-02 ExpMax= 1.17D+07 ExpMxC= 1.33D+04 IAcc=3 IRadAn=         5 AccDes= 0.00D+00
 HarFok:  IExCor= 4639 AccDes= 0.00D+00 IRadAn=         5 IDoV= 1
 ScaDFX=  1.000000  1.000000  1.000000  1.000000
 FoFCou: FMM=F IPFlag=           0 FMFlag=      100000 FMFlg1=           0
         NFxFlg=           0 DoJE=T BraDBF=F KetDBF=T FulRan=T
         Omega=  0.000000  0.000000  1.000000  0.000000  0.000000 ICntrl=     500 IOpCl=  0
         NMat0=    1 NMatS0=    1 NMatT0=    0 NMatD0=    1 NMtDS0=    0 NMtDT0=    0
         I1Cent=           4 NGrid=           0.
 Petite list used in FoFCou.
 Harris En= -2875.39312900961    
 Initial guess orbital symmetries:
       Occupied  (A') (A') (A') (A') (A") (A') (A') (A') (A') (A')
                 (A") (A') (A') (A") (A') (A") (A') (A') (A') (A')
                 (A') (A") (A') (A") (A') (A') (A")
       Virtual   (A') (A') (A') (A") (A') (A') (A') (A') (A") (A')
                 (A") (A') (A') (A") (A') (A') (A") (A') (A') (A')
                 (A") (A') (A') (A") (A') (A') (A') (A') (A") (A')
                 (A') (A') (A") (A') (A") (A') (A") (A') (A") (A')
                 (A") (A') (A') (A') (A") (A') (A') (A") (A") (A')
                 (A') (A') (A") (A') (A") (A") (A') (A') (A') (A')
                 (A") (A') (A") (A') (A") (A') (A') (A') (A") (A')
                 (A') (A") (A") (A') (A') (A') (A') (A") (A') (A')
                 (A") (A') (A') (A") (A") (A') (A') (A") (A') (A")
                 (A') (A') (A") (A') (A') (A') (A") (A") (A') (A")
                 (A') (A') (A") (A") (A') (A') (A") (A') (A") (A')
                 (A') (A") (A') (A') (A') (A') (A') (A") (A') (A')
                 (A') (A") (A") (A') (A") (A") (A') (A") (A') (A")
                 (A') (A') (A') (A') (A') (A') (A') (A') (A") (A")
                 (A') (A') (A') (A") (A') (A') (A") (A') (A") (A')
                 (A") (A") (A') (A") (A") (A") (A") (A') (A') (A')
                 (A') (A") (A') (A') (A') (A') (A') (A') (A') (A')
 The electronic state of the initial guess is 1-A'.
 Leave Link  401 at Thu Apr 16 11:34:05 2020, MaxMem= 1073741824 cpu:       3.4
 (Enter /home/matheus/.gaussian/g09/l502.exe)
 Closed shell SCF:
 Requested convergence on RMS density matrix=1.00D-08 within 128 cycles.
 Requested convergence on MAX density matrix=1.00D-06.
 Requested convergence on             energy=1.00D-06.
 No special actions if energy rises.
 Using DIIS extrapolation, IDIIS=  1040.
 Integral symmetry usage will be decided dynamically.
       126823 words used for storage of precomputed grid.
 IEnd=      305835 IEndB=      305835 NGot=  1073741824 MDV=  1073505300
 LenX=  1073505300 LenY=  1073452418
 Fock matrices will be formed incrementally for  20 cycles.

 Cycle   1  Pass 1  IDiag  1:
 FoFJK:  IHMeth= 1 ICntrl=     0 DoSepK=T KAlg= 1 I1Cent= 0 FoldK=F
 FoFCou: FMM=F IPFlag=           0 FMFlag=      100000 FMFlg1=           0
         NFxFlg=           0 DoJE=T BraDBF=F KetDBF=F FulRan=T
         Omega=  0.000000  0.000000  1.000000  0.000000  0.000000 ICntrl=     500 IOpCl=  0
         NMat0=    1 NMatS0=    1 NMatT0=    0 NMatD0=    1 NMtDS0=    0 NMtDT0=    0
         I1Cent=           0 NGrid=           0.
 Petite list used in FoFCou.
 E= -2904.90104252757    
 DIIS: error= 7.72D-02 at cycle   1 NSaved=   1.
 NSaved= 1 IEnMin= 1 EnMin= -2904.90104252757     IErMin= 1 ErrMin= 7.72D-02
 ErrMax= 7.72D-02 EMaxC= 1.00D-01 BMatC= 2.21D+00 BMatP= 2.21D+00
 IDIUse=3 WtCom= 2.28D-01 WtEn= 7.72D-01
 Coeff-Com:  0.100D+01
 Coeff-En:   0.100D+01
 Coeff:      0.100D+01
 Gap=     0.528 Goal=   None    Shift=    0.000
 GapD=    0.528 DampG=2.000 DampE=0.500 DampFc=1.0000 IDamp=-1.
 RMSDP=6.18D-03 MaxDP=3.67D-01              OVMax= 1.78D-01

 Cycle   2  Pass 1  IDiag  1:
 RMSU=  4.34D-03    CP:  1.03D+00
 FoFJK:  IHMeth= 1 ICntrl=     0 DoSepK=T KAlg= 1 I1Cent= 0 FoldK=F
 E= -2905.22013178196     Delta-E=       -0.319089254384 Rises=F Damp=F
 DIIS: error= 3.80D-02 at cycle   2 NSaved=   2.
 NSaved= 2 IEnMin= 2 EnMin= -2905.22013178196     IErMin= 2 ErrMin= 3.80D-02
 ErrMax= 3.80D-02 EMaxC= 1.00D-01 BMatC= 5.65D-01 BMatP= 2.21D+00
 IDIUse=3 WtCom= 6.20D-01 WtEn= 3.80D-01
 Coeff-Com:  0.328D+00 0.672D+00
 Coeff-En:   0.199D+00 0.801D+00
 Coeff:      0.279D+00 0.721D+00
 Gap=     0.434 Goal=   None    Shift=    0.000
 RMSDP=2.72D-03 MaxDP=1.59D-01 DE=-3.19D-01 OVMax= 7.45D-02

 Cycle   3  Pass 1  IDiag  1:
 RMSU=  5.84D-04    CP:  1.02D+00  5.80D-01
 FoFJK:  IHMeth= 1 ICntrl=     0 DoSepK=T KAlg= 1 I1Cent= 0 FoldK=F
 E= -2905.41330898515     Delta-E=       -0.193177203199 Rises=F Damp=F
 DIIS: error= 7.92D-03 at cycle   3 NSaved=   3.
 NSaved= 3 IEnMin= 3 EnMin= -2905.41330898515     IErMin= 3 ErrMin= 7.92D-03
 ErrMax= 7.92D-03 EMaxC= 1.00D-01 BMatC= 2.09D-02 BMatP= 5.65D-01
 IDIUse=3 WtCom= 9.21D-01 WtEn= 7.92D-02
 Coeff-Com:  0.320D-01 0.195D+00 0.773D+00
 Coeff-En:   0.000D+00 0.000D+00 0.100D+01
 Coeff:      0.295D-01 0.180D+00 0.791D+00
 Gap=     0.420 Goal=   None    Shift=    0.000
 RMSDP=5.02D-04 MaxDP=1.84D-02 DE=-1.93D-01 OVMax= 2.70D-02

 Cycle   4  Pass 1  IDiag  1:
 RMSU=  2.31D-04    CP:  1.02D+00  6.40D-01  8.98D-01
 FoFJK:  IHMeth= 1 ICntrl=     0 DoSepK=T KAlg= 1 I1Cent= 0 FoldK=F
 E= -2905.42261263017     Delta-E=       -0.009303645017 Rises=F Damp=F
 DIIS: error= 2.92D-03 at cycle   4 NSaved=   4.
 NSaved= 4 IEnMin= 4 EnMin= -2905.42261263017     IErMin= 4 ErrMin= 2.92D-03
 ErrMax= 2.92D-03 EMaxC= 1.00D-01 BMatC= 1.78D-03 BMatP= 2.09D-02
 IDIUse=3 WtCom= 9.71D-01 WtEn= 2.92D-02
 Coeff-Com: -0.260D-02 0.518D-01 0.370D+00 0.581D+00
 Coeff-En:   0.000D+00 0.000D+00 0.000D+00 0.100D+01
 Coeff:     -0.253D-02 0.503D-01 0.359D+00 0.593D+00
 Gap=     0.405 Goal=   None    Shift=    0.000
 RMSDP=1.14D-04 MaxDP=6.30D-03 DE=-9.30D-03 OVMax= 7.07D-03

 Cycle   5  Pass 1  IDiag  1:
 RMSU=  4.13D-05    CP:  1.02D+00  6.39D-01  9.45D-01  7.27D-01
 FoFJK:  IHMeth= 1 ICntrl=     0 DoSepK=T KAlg= 1 I1Cent= 0 FoldK=F
 E= -2905.42368490052     Delta-E=       -0.001072270346 Rises=F Damp=F
 DIIS: error= 3.12D-04 at cycle   5 NSaved=   5.
 NSaved= 5 IEnMin= 5 EnMin= -2905.42368490052     IErMin= 5 ErrMin= 3.12D-04
 ErrMax= 3.12D-04 EMaxC= 1.00D-01 BMatC= 2.76D-05 BMatP= 1.78D-03
 IDIUse=3 WtCom= 9.97D-01 WtEn= 3.12D-03
 Coeff-Com: -0.157D-02 0.120D-01 0.104D+00 0.192D+00 0.694D+00
 Coeff-En:   0.000D+00 0.000D+00 0.000D+00 0.000D+00 0.100D+01
 Coeff:     -0.156D-02 0.120D-01 0.104D+00 0.191D+00 0.695D+00
 Gap=     0.404 Goal=   None    Shift=    0.000
 RMSDP=2.41D-05 MaxDP=9.46D-04 DE=-1.07D-03 OVMax= 1.72D-03

 Cycle   6  Pass 1  IDiag  1:
 RMSU=  1.51D-05    CP:  1.02D+00  6.39D-01  9.53D-01  7.53D-01  1.07D+00
 FoFJK:  IHMeth= 1 ICntrl=     0 DoSepK=T KAlg= 1 I1Cent= 0 FoldK=F
 E= -2905.42369946226     Delta-E=       -0.000014561744 Rises=F Damp=F
 DIIS: error= 1.86D-04 at cycle   6 NSaved=   6.
 NSaved= 6 IEnMin= 6 EnMin= -2905.42369946226     IErMin= 6 ErrMin= 1.86D-04
 ErrMax= 1.86D-04 EMaxC= 1.00D-01 BMatC= 1.04D-05 BMatP= 2.76D-05
 IDIUse=3 WtCom= 9.98D-01 WtEn= 1.86D-03
 Coeff-Com: -0.226D-03-0.673D-02-0.357D-01-0.459D-01 0.386D+00 0.702D+00
 Coeff-En:   0.000D+00 0.000D+00 0.000D+00 0.000D+00 0.178D+00 0.822D+00
 Coeff:     -0.226D-03-0.672D-02-0.356D-01-0.458D-01 0.386D+00 0.702D+00
 Gap=     0.404 Goal=   None    Shift=    0.000
 RMSDP=1.36D-05 MaxDP=4.51D-04 DE=-1.46D-05 OVMax= 7.94D-04

 Cycle   7  Pass 1  IDiag  1:
 RMSU=  3.71D-06    CP:  1.02D+00  6.39D-01  9.60D-01  7.66D-01  1.23D+00
                    CP:  8.78D-01
 FoFJK:  IHMeth= 1 ICntrl=     0 DoSepK=T KAlg= 1 I1Cent= 0 FoldK=F
 E= -2905.42370708367     Delta-E=       -0.000007621408 Rises=F Damp=F
 DIIS: error= 1.84D-05 at cycle   7 NSaved=   7.
 NSaved= 7 IEnMin= 7 EnMin= -2905.42370708367     IErMin= 7 ErrMin= 1.84D-05
 ErrMax= 1.84D-05 EMaxC= 1.00D-01 BMatC= 4.95D-08 BMatP= 1.04D-05
 IDIUse=1 WtCom= 1.00D+00 WtEn= 0.00D+00
 Coeff-Com:  0.407D-04-0.660D-03-0.484D-02-0.722D-02-0.238D-01 0.128D-01
 Coeff-Com:  0.102D+01
 Coeff:      0.407D-04-0.660D-03-0.484D-02-0.722D-02-0.238D-01 0.128D-01
 Coeff:      0.102D+01
 Gap=     0.404 Goal=   None    Shift=    0.000
 RMSDP=2.89D-06 MaxDP=1.24D-04 DE=-7.62D-06 OVMax= 1.99D-04

 Cycle   8  Pass 1  IDiag  1:
 RMSU=  7.92D-07    CP:  1.02D+00  6.39D-01  9.61D-01  7.69D-01  1.26D+00
                    CP:  9.35D-01  1.21D+00
 FoFJK:  IHMeth= 1 ICntrl=     0 DoSepK=T KAlg= 1 I1Cent= 0 FoldK=F
 E= -2905.42370720324     Delta-E=       -0.000000119571 Rises=F Damp=F
 DIIS: error= 2.96D-06 at cycle   8 NSaved=   8.
 NSaved= 8 IEnMin= 8 EnMin= -2905.42370720324     IErMin= 8 ErrMin= 2.96D-06
 ErrMax= 2.96D-06 EMaxC= 1.00D-01 BMatC= 2.56D-09 BMatP= 4.95D-08
 IDIUse=1 WtCom= 1.00D+00 WtEn= 0.00D+00
 Coeff-Com:  0.879D-05 0.184D-03 0.932D-03 0.780D-03-0.158D-01-0.248D-01
 Coeff-Com:  0.382D-01 0.100D+01
 Coeff:      0.879D-05 0.184D-03 0.932D-03 0.780D-03-0.158D-01-0.248D-01
 Coeff:      0.382D-01 0.100D+01
 Gap=     0.404 Goal=   None    Shift=    0.000
 RMSDP=5.76D-07 MaxDP=2.35D-05 DE=-1.20D-07 OVMax= 4.26D-05

 Cycle   9  Pass 1  IDiag  1:
 RMSU=  1.66D-07    CP:  1.02D+00  6.39D-01  9.62D-01  7.69D-01  1.26D+00
                    CP:  9.45D-01  1.27D+00  1.21D+00
 FoFJK:  IHMeth= 1 ICntrl=     0 DoSepK=T KAlg= 1 I1Cent= 0 FoldK=F
 E= -2905.42370720930     Delta-E=       -0.000000006063 Rises=F Damp=F
 DIIS: error= 1.00D-06 at cycle   9 NSaved=   9.
 NSaved= 9 IEnMin= 9 EnMin= -2905.42370720930     IErMin= 9 ErrMin= 1.00D-06
 ErrMax= 1.00D-06 EMaxC= 1.00D-01 BMatC= 2.18D-10 BMatP= 2.56D-09
 IDIUse=1 WtCom= 1.00D+00 WtEn= 0.00D+00
 Coeff-Com: -0.166D-05 0.632D-04 0.413D-03 0.429D-03 0.544D-04-0.257D-02
 Coeff-Com: -0.633D-01 0.951D-01 0.970D+00
 Coeff:     -0.166D-05 0.632D-04 0.413D-03 0.429D-03 0.544D-04-0.257D-02
 Coeff:     -0.633D-01 0.951D-01 0.970D+00
 Gap=     0.404 Goal=   None    Shift=    0.000
 RMSDP=1.24D-07 MaxDP=3.78D-06 DE=-6.06D-09 OVMax= 1.01D-05

 Cycle  10  Pass 1  IDiag  1:
 RMSU=  4.61D-08    CP:  1.02D+00  6.39D-01  9.62D-01  7.69D-01  1.26D+00
                    CP:  9.47D-01  1.28D+00  1.27D+00  1.17D+00
 FoFJK:  IHMeth= 1 ICntrl=     0 DoSepK=T KAlg= 1 I1Cent= 0 FoldK=F
 E= -2905.42370720974     Delta-E=       -0.000000000439 Rises=F Damp=F
 DIIS: error= 1.85D-07 at cycle  10 NSaved=  10.
 NSaved=10 IEnMin=10 EnMin= -2905.42370720974     IErMin=10 ErrMin= 1.85D-07
 ErrMax= 1.85D-07 EMaxC= 1.00D-01 BMatC= 9.69D-12 BMatP= 2.18D-10
 IDIUse=1 WtCom= 1.00D+00 WtEn= 0.00D+00
 Coeff-Com: -0.242D-06-0.427D-05-0.227D-04 0.987D-06 0.971D-03 0.135D-02
 Coeff-Com: -0.473D-02-0.596D-01 0.529D-01 0.101D+01
 Coeff:     -0.242D-06-0.427D-05-0.227D-04 0.987D-06 0.971D-03 0.135D-02
 Coeff:     -0.473D-02-0.596D-01 0.529D-01 0.101D+01
 Gap=     0.404 Goal=   None    Shift=    0.000
 RMSDP=2.87D-08 MaxDP=7.11D-07 DE=-4.39D-10 OVMax= 2.73D-06

 Cycle  11  Pass 1  IDiag  1:
 RMSU=  1.00D-08    CP:  1.02D+00  6.39D-01  9.62D-01  7.69D-01  1.26D+00
                    CP:  9.47D-01  1.28D+00  1.28D+00  1.24D+00  1.18D+00
 FoFJK:  IHMeth= 1 ICntrl=     0 DoSepK=T KAlg= 1 I1Cent= 0 FoldK=F
 E= -2905.42370720977     Delta-E=       -0.000000000028 Rises=F Damp=F
 DIIS: error= 6.03D-08 at cycle  11 NSaved=  11.
 NSaved=11 IEnMin=11 EnMin= -2905.42370720977     IErMin=11 ErrMin= 6.03D-08
 ErrMax= 6.03D-08 EMaxC= 1.00D-01 BMatC= 5.13D-13 BMatP= 9.69D-12
 IDIUse=1 WtCom= 1.00D+00 WtEn= 0.00D+00
 Coeff-Com:  0.140D-06-0.194D-05-0.144D-04-0.329D-05-0.349D-04 0.161D-04
 Coeff-Com:  0.249D-02-0.301D-02-0.343D-01-0.120D-01 0.105D+01
 Coeff:      0.140D-06-0.194D-05-0.144D-04-0.329D-05-0.349D-04 0.161D-04
 Coeff:      0.249D-02-0.301D-02-0.343D-01-0.120D-01 0.105D+01
 Gap=     0.404 Goal=   None    Shift=    0.000
 RMSDP=6.44D-09 MaxDP=1.71D-07 DE=-2.82D-11 OVMax= 5.37D-07

 SCF Done:  E(RwB97XD) =  -2905.42370721     A.U. after   11 cycles
             Convg  =    0.6437D-08             -V/T =  2.0016
 KE= 2.900926405323D+03 PE=-7.234921511724D+03 EE= 1.280295172633D+03
 Leave Link  502 at Thu Apr 16 11:34:54 2020, MaxMem= 1073741824 cpu:     392.4
 (Enter /home/matheus/.gaussian/g09/l601.exe)
 Copying SCF densities to generalized density rwf, IOpCl= 0 IROHF=0.

 **********************************************************************

            Population analysis using the SCF density.

 **********************************************************************

 Orbital symmetries:
       Occupied  (A') (A') (A') (A") (A') (A') (A') (A') (A') (A")
                 (A') (A') (A") (A') (A") (A') (A') (A') (A') (A')
                 (A') (A") (A') (A") (A') (A') (A")
       Virtual   (A') (A') (A') (A') (A") (A') (A') (A') (A") (A')
                 (A') (A") (A') (A') (A") (A') (A") (A') (A') (A')
                 (A') (A") (A') (A") (A') (A') (A') (A') (A") (A')
                 (A') (A') (A") (A') (A") (A') (A") (A') (A") (A')
                 (A") (A') (A') (A') (A") (A') (A') (A") (A") (A')
                 (A') (A') (A") (A') (A") (A') (A") (A') (A') (A')
                 (A") (A') (A") (A') (A") (A') (A') (A') (A") (A')
                 (A') (A") (A") (A') (A') (A') (A') (A") (A') (A')
                 (A') (A") (A') (A") (A") (A") (A') (A') (A') (A")
                 (A') (A') (A") (A') (A') (A") (A') (A') (A") (A")
                 (A') (A') (A") (A') (A") (A') (A") (A') (A') (A")
                 (A') (A") (A') (A') (A') (A') (A') (A") (A') (A')
                 (A') (A") (A") (A') (A") (A") (A') (A") (A') (A")
                 (A') (A') (A') (A') (A') (A') (A') (A') (A") (A")
                 (A') (A') (A') (A") (A') (A') (A") (A') (A") (A')
                 (A") (A') (A") (A") (A") (A") (A") (A') (A') (A')
                 (A') (A") (A') (A') (A') (A') (A') (A') (A') (A')
 The electronic state is 1-A'.
 Alpha  occ. eigenvalues -- -513.08934 -67.35760 -60.90641 -60.90626 -60.90620
 Alpha  occ. eigenvalues --  -19.33675 -19.33264  -9.81086  -7.50424  -7.50376
 Alpha  occ. eigenvalues --   -7.50355  -3.37104  -3.37094  -3.37078  -3.37039
 Alpha  occ. eigenvalues --   -3.37038  -1.24240  -1.03270  -1.01743  -0.64834
 Alpha  occ. eigenvalues --   -0.61729  -0.51844  -0.49799  -0.48996  -0.48593
 Alpha  occ. eigenvalues --   -0.45549  -0.36691
 Alpha virt. eigenvalues --    0.03677   0.04341   0.08121   0.10150   0.10811
 Alpha virt. eigenvalues --    0.11680   0.13587   0.14445   0.17262   0.17342
 Alpha virt. eigenvalues --    0.18675   0.19543   0.20718   0.23283   0.23631
 Alpha virt. eigenvalues --    0.24611   0.26833   0.28304   0.30180   0.33729
 Alpha virt. eigenvalues --    0.34249   0.34509   0.36673   0.38792   0.39711
 Alpha virt. eigenvalues --    0.40465   0.42922   0.48269   0.51592   0.54197
 Alpha virt. eigenvalues --    0.56579   0.59156   0.64000   0.64902   0.68149
 Alpha virt. eigenvalues --    0.70467   0.71008   0.72911   0.74009   0.75256
 Alpha virt. eigenvalues --    0.75693   0.75907   0.77735   0.79322   0.79799
 Alpha virt. eigenvalues --    0.81596   0.85056   0.86642   0.88309   0.89932
 Alpha virt. eigenvalues --    0.90943   0.93360   0.95327   0.97901   0.98763
 Alpha virt. eigenvalues --    1.02418   1.03484   1.04270   1.05199   1.07416
 Alpha virt. eigenvalues --    1.11400   1.12756   1.14753   1.17959   1.18626
 Alpha virt. eigenvalues --    1.26121   1.30584   1.34743   1.39426   1.40422
 Alpha virt. eigenvalues --    1.49227   1.50958   1.53071   1.55022   1.56826
 Alpha virt. eigenvalues --    1.61043   1.77328   1.78389   1.84953   1.93291
 Alpha virt. eigenvalues --    1.97758   1.98182   2.03918   2.12377   2.14268
 Alpha virt. eigenvalues --    2.14936   2.15451   2.16613   2.19160   2.25927
 Alpha virt. eigenvalues --    2.26343   2.28033   2.29904   2.32678   2.34202
 Alpha virt. eigenvalues --    2.36838   2.38684   2.43729   2.45118   2.47405
 Alpha virt. eigenvalues --    2.47661   2.48678   2.50715   2.55187   2.57280
 Alpha virt. eigenvalues --    2.58297   2.61131   2.64946   2.68147   2.69068
 Alpha virt. eigenvalues --    2.70094   2.74165   2.74367   2.78252   2.88519
 Alpha virt. eigenvalues --    2.96071   3.06970   3.08446   3.14836   3.50797
 Alpha virt. eigenvalues --    3.75440   3.82636   3.89623   4.04967   4.06123
 Alpha virt. eigenvalues --    4.10771   4.13760   4.20651   4.22871   4.26953
 Alpha virt. eigenvalues --    4.36598   4.41823   4.52403   4.54590   4.73289
 Alpha virt. eigenvalues --    4.88738   5.01989   5.03118   5.06371   5.08371
 Alpha virt. eigenvalues --    5.37013   5.44236   5.82873   5.96933   6.08865
 Alpha virt. eigenvalues --    6.13839   6.29197   6.36391   6.44603   6.45949
 Alpha virt. eigenvalues --    6.70195   6.71972   6.73451   6.80297   6.86010
 Alpha virt. eigenvalues --    6.89592   6.92408   6.94285   6.94697   6.97504
 Alpha virt. eigenvalues --    7.01016   7.21633   7.24910   7.38965   7.61597
 Alpha virt. eigenvalues --    7.83956   8.12365   8.14960  14.17191  14.59464
          Condensed to atoms (all electrons):
              1          2          3          4          5
     1  O    8.160874  -0.152146   0.192819   0.005007  -0.028844
     2  O   -0.152146   8.221336   0.005829   0.220058  -0.017642
     3  H    0.192819   0.005829   0.601640   0.002955   0.002717
     4  H    0.005007   0.220058   0.002955   0.524552  -0.003731
     5  Kr  -0.028844  -0.017642   0.002717  -0.003731  36.037553
 Mulliken atomic charges:
              1
     1  O   -0.177710
     2  O   -0.277435
     3  H    0.194040
     4  H    0.251159
     5  Kr   0.009947
 Sum of Mulliken atomic charges =   0.00000
 Mulliken charges with hydrogens summed into heavy atoms:
              1
     1  O    0.016330
     2  O   -0.026277
     5  Kr   0.009947
 Sum of Mulliken charges with hydrogens summed into heavy atoms =   0.00000
 Electronic spatial extent (au):  <R**2>=            492.5171
 Charge=              0.0000 electrons
 Dipole moment (field-independent basis, Debye):
    X=              0.2808    Y=              0.1802    Z=              0.0000  Tot=              0.3337
 Quadrupole moment (field-independent basis, Debye-Ang):
   XX=            -28.2166   YY=            -26.2304   ZZ=            -30.6927
   XY=             -3.9100   XZ=              0.0000   YZ=              0.0000
 Traceless Quadrupole moment (field-independent basis, Debye-Ang):
   XX=              0.1633   YY=              2.1495   ZZ=             -2.3128
   XY=             -3.9100   XZ=              0.0000   YZ=              0.0000
 Octapole moment (field-independent basis, Debye-Ang**2):
  XXX=              0.3911  YYY=             -0.2709  ZZZ=              0.0000  XYY=             16.7109
  XXY=              3.6931  XXZ=              0.0000  XZZ=              0.1336  YZZ=              8.7515
  YYZ=              0.0000  XYZ=              0.0000
 Hexadecapole moment (field-independent basis, Debye-Ang**3):
 XXXX=            -63.7227 YYYY=           -341.5002 ZZZZ=            -29.6783 XXXY=             -2.5166
 XXXZ=              0.0000 YYYX=            -50.3457 YYYZ=              0.0000 ZZZX=              0.0000
 ZZZY=              0.0000 XXYY=            -73.2535 XXZZ=            -17.5990 YYZZ=            -80.4726
 XXYZ=              0.0000 YYXZ=              0.0000 ZZXY=              0.8633
 N-N= 1.482762265582D+02 E-N=-7.234921512953D+03  KE= 2.900926405323D+03
 Symmetry A'   KE= 2.485159292916D+03
 Symmetry A"   KE= 4.157671124072D+02
 No NMR shielding tensors so no spin-rotation constants.
 Leave Link  601 at Thu Apr 16 11:34:55 2020, MaxMem= 1073741824 cpu:       1.0
 (Enter /home/matheus/.gaussian/g09/l108.exe)
 Variable Step   Value    
 -------- ---- -----------
     1       1    5.858151
 Leave Link  108 at Thu Apr 16 11:34:55 2020, MaxMem= 1073741824 cpu:       0.0
 (Enter /home/matheus/.gaussian/g09/l202.exe)
 ---------------------------------------------------------------------------------------------------
                            Z-MATRIX (ANGSTROMS AND DEGREES)
   CD    Cent   Atom    N1       Length/X        N2       Alpha/Y        N3        Beta/Z          J
 ---------------------------------------------------------------------------------------------------
      1      1  O        0   0.000000          0.000000          0.725000
      2      2  O        0   0.000000          0.000000         -0.725000
      3      3  H        0   0.000000         -0.918721          1.023510
      4      4  H        0   0.000000          0.918721         -1.023510
      5      5  Kr       0   0.000000          3.100000          0.000000
 ---------------------------------------------------------------------------------------------------
                         Z-Matrix orientation:                         
 ---------------------------------------------------------------------
 Center     Atomic      Atomic             Coordinates (Angstroms)
 Number     Number       Type             X           Y           Z
 ---------------------------------------------------------------------
      1          8           0        0.000000    0.000000    0.725000
      2          8           0        0.000000    0.000000   -0.725000
      3          1           0        0.000000   -0.918721    1.023510
      4          1           0        0.000000    0.918721   -1.023510
      5         36           0        0.000000    3.100000    0.000000
 ---------------------------------------------------------------------
                    Distance matrix (angstroms):
                    1          2          3          4          5
     1  O    0.000000
     2  O    1.450000   0.000000
     3  H    0.966000   1.975180   0.000000
     4  H    1.975180   0.966000   2.750724   0.000000
     5  Kr   3.183650   3.183650   4.147010   2.409472   0.000000
 Stoichiometry    H2KrO2
 Framework group  CS[SG(H2KrO2)]
 Deg. of freedom     7
 Full point group                 CS      NOp   2
 RotChk:  IX=0 Diff= 1.57D-16
 Largest Abelian subgroup         CS      NOp   2
 Largest concise Abelian subgroup C1      NOp   1
                         Standard orientation:                         
 ---------------------------------------------------------------------
 Center     Atomic      Atomic             Coordinates (Angstroms)
 Number     Number       Type             X           Y           Z
 ---------------------------------------------------------------------
      1          8           0        0.725000   -2.066667    0.000000
      2          8           0       -0.725000   -2.066667    0.000000
      3          1           0        1.023510   -2.985387    0.000000
      4          1           0       -1.023510   -1.147946    0.000000
      5         36           0        0.000000    1.033333    0.000000
 ---------------------------------------------------------------------
 Rotational constants (GHZ):     26.7261769      2.1572633      1.9961404
 Leave Link  202 at Thu Apr 16 11:34:55 2020, MaxMem= 1073741824 cpu:       0.0
 (Enter /home/matheus/.gaussian/g09/l301.exe)
 Standard basis: Aug-CC-pVTZ (5D, 7F)
 Ernie: Thresh=  0.10000D-02 Tol=  0.10000D-05 Strict=F.
 Ernie:  38 primitive shells out of 205 were deleted.
 There are   131 symmetry adapted basis functions of A'  symmetry.
 There are    66 symmetry adapted basis functions of A"  symmetry.
 Integral buffers will be    131072 words long.
 Raffenetti 2 integral format.
 Two-electron integral symmetry is turned on.
   197 basis functions,   415 primitive gaussians,   229 cartesian basis functions
    27 alpha electrons       27 beta electrons
       nuclear repulsion energy       144.8419227859 Hartrees.
 IExCor= 4639 DFT=T Ex+Corr=wB97XD ExCW=0 ScaHFX=  1.000000
 ScaDFX=  1.000000  1.000000  1.000000  1.000000 ScalE2=  1.000000  1.000000
 IRadAn=      5 IRanWt=     -1 IRanGd=            0 ICorTp=0
  HFx wShort=  0.000000 wLong=  0.250000 cFull=  0.222036 cShort=  0.000000 cLong=  0.777964
  DFx wShort=  0.000000 wLong=  0.250000 cFull=  0.000000 cShort=  0.000000 cLong=  1.000000
 NAtoms=    5 NActive=    5 NUniq=    5 SFac= 1.00D+00 NAtFMM=   60 NAOKFM=F Big=F
 R6Disp: Dispersion energy =        -0.0008181659 Hartrees.
 Nuclear repulsion after empirical dispersion term =      144.8411046199 Hartrees.
 Leave Link  301 at Thu Apr 16 11:34:55 2020, MaxMem= 1073741824 cpu:       0.3
 (Enter /home/matheus/.gaussian/g09/l302.exe)
 NPDir=0 NMtPBC=     1 NCelOv=     1 NCel=       1 NClECP=     1 NCelD=      1
         NCelK=      1 NCelE2=     1 NClLst=     1 CellRange=     0.0.
 One-electron integrals computed using PRISM.
 NBasis=   197 RedAO= T  NBF=   131    66
 NBsUse=   197 1.00D-06 NBFU=   131    66
 Precomputing XC quadrature grid using
 IXCGrd= 2 IRadAn=           5 IRanWt=          -1 IRanGd=           0 AccXCQ= 0.00D+00.
 NRdTot=     427 NPtTot=      123814 NUsed=      126881 NTot=      126913
 NSgBfM=   229   229   229   229   229 NAtAll=     5     5.
 Leave Link  302 at Thu Apr 16 11:34:55 2020, MaxMem= 1073741824 cpu:       1.0
 (Enter /home/matheus/.gaussian/g09/l303.exe)
 DipDrv:  MaxL=1.
 Leave Link  303 at Thu Apr 16 11:34:55 2020, MaxMem= 1073741824 cpu:       0.3
 (Enter /home/matheus/.gaussian/g09/l401.exe)
 Initial guess read from the read-write file.
 B after Tr=     0.000000    0.000000    0.000000
         Rot=    1.000000    0.000000    0.000000    0.000000 Ang=   0.00 deg.
 Guess basis will be translated and rotated to current coordinates.
 Initial guess orbital symmetries:
       Occupied  (A') (A') (A') (A") (A') (A') (A') (A') (A') (A")
                 (A') (A') (A") (A') (A") (A') (A') (A') (A') (A')
                 (A') (A") (A') (A") (A') (A') (A")
       Virtual   (A') (A') (A') (A') (A") (A') (A') (A') (A") (A')
                 (A') (A") (A') (A') (A") (A') (A") (A') (A') (A')
                 (A') (A") (A') (A") (A') (A') (A') (A') (A") (A')
                 (A') (A') (A") (A') (A") (A') (A") (A') (A") (A')
                 (A") (A') (A') (A') (A") (A') (A') (A") (A") (A')
                 (A') (A') (A") (A') (A") (A') (A") (A') (A') (A')
                 (A") (A') (A") (A') (A") (A') (A') (A') (A") (A')
                 (A') (A") (A") (A') (A') (A') (A') (A") (A') (A')
                 (A') (A") (A') (A") (A") (A") (A') (A') (A') (A")
                 (A') (A') (A") (A') (A') (A") (A') (A') (A") (A")
                 (A') (A') (A") (A') (A") (A') (A") (A') (A') (A")
                 (A') (A") (A') (A') (A') (A') (A') (A") (A') (A')
                 (A') (A") (A") (A') (A") (A") (A') (A") (A') (A")
                 (A') (A') (A') (A') (A') (A') (A') (A') (A") (A")
                 (A') (A') (A') (A") (A') (A') (A") (A') (A") (A')
                 (A") (A') (A") (A") (A") (A") (A") (A') (A') (A')
                 (A') (A") (A') (A') (A') (A') (A') (A') (A') (A')
 The electronic state of the initial guess is 1-A'.
 Generating alternative initial guess.
 Harris functional with IExCor= 4639 diagonalized for initial guess.
 ExpMin= 2.53D-02 ExpMax= 1.17D+07 ExpMxC= 1.33D+04 IAcc=3 IRadAn=         5 AccDes= 0.00D+00
 HarFok:  IExCor= 4639 AccDes= 0.00D+00 IRadAn=         5 IDoV= 1
 ScaDFX=  1.000000  1.000000  1.000000  1.000000
 FoFCou: FMM=F IPFlag=           0 FMFlag=      100000 FMFlg1=           0
         NFxFlg=           0 DoJE=T BraDBF=F KetDBF=T FulRan=T
         Omega=  0.000000  0.000000  1.000000  0.000000  0.000000 ICntrl=     500 IOpCl=  0
         NMat0=    1 NMatS0=    1 NMatT0=    0 NMatD0=    1 NMtDS0=    0 NMtDT0=    0
         I1Cent=           4 NGrid=           0.
 Petite list used in FoFCou.
 Harris En= -2875.39627601115    
 Leave Link  401 at Thu Apr 16 11:34:55 2020, MaxMem= 1073741824 cpu:       4.2
 (Enter /home/matheus/.gaussian/g09/l502.exe)
 Closed shell SCF:
 Requested convergence on RMS density matrix=1.00D-08 within 128 cycles.
 Requested convergence on MAX density matrix=1.00D-06.
 Requested convergence on             energy=1.00D-06.
 No special actions if energy rises.
 Using DIIS extrapolation, IDIIS=  1040.
 Integral symmetry usage will be decided dynamically.
       126823 words used for storage of precomputed grid.
 IEnd=      305835 IEndB=      305835 NGot=  1073741824 MDV=  1073505300
 LenX=  1073505300 LenY=  1073452418
 Fock matrices will be formed incrementally for  20 cycles.

 Cycle   1  Pass 1  IDiag  1:
 FoFJK:  IHMeth= 1 ICntrl=     0 DoSepK=T KAlg= 1 I1Cent= 0 FoldK=F
 FoFCou: FMM=F IPFlag=           0 FMFlag=      100000 FMFlg1=           0
         NFxFlg=           0 DoJE=T BraDBF=F KetDBF=F FulRan=T
         Omega=  0.000000  0.000000  1.000000  0.000000  0.000000 ICntrl=     500 IOpCl=  0
         NMat0=    1 NMatS0=    1 NMatT0=    0 NMatD0=    1 NMtDS0=    0 NMtDT0=    0
         I1Cent=           0 NGrid=           0.
 Petite list used in FoFCou.
 E= -2905.42527361547    
 DIIS: error= 1.29D-03 at cycle   1 NSaved=   1.
 NSaved= 1 IEnMin= 1 EnMin= -2905.42527361547     IErMin= 1 ErrMin= 1.29D-03
 ErrMax= 1.29D-03 EMaxC= 1.00D-01 BMatC= 5.21D-04 BMatP= 5.21D-04
 IDIUse=3 WtCom= 9.87D-01 WtEn= 1.29D-02
 Coeff-Com:  0.100D+01
 Coeff-En:   0.100D+01
 Coeff:      0.100D+01
 Gap=     0.405 Goal=   None    Shift=    0.000
 GapD=    0.405 DampG=2.000 DampE=1.000 DampFc=2.0000 IDamp=-1.
 RMSDP=8.09D-05 MaxDP=2.61D-03              OVMax= 3.83D-03

 Cycle   2  Pass 1  IDiag  1:
 RMSU=  5.72D-05    CP:  1.00D+00
 FoFJK:  IHMeth= 1 ICntrl=     0 DoSepK=T KAlg= 1 I1Cent= 0 FoldK=F
 E= -2905.42537402976     Delta-E=       -0.000100414286 Rises=F Damp=F
 DIIS: error= 1.55D-04 at cycle   2 NSaved=   2.
 NSaved= 2 IEnMin= 2 EnMin= -2905.42537402976     IErMin= 2 ErrMin= 1.55D-04
 ErrMax= 1.55D-04 EMaxC= 1.00D-01 BMatC= 5.12D-06 BMatP= 5.21D-04
 IDIUse=3 WtCom= 9.98D-01 WtEn= 1.55D-03
 Coeff-Com: -0.169D-03 0.100D+01
 Coeff-En:   0.000D+00 0.100D+01
 Coeff:     -0.168D-03 0.100D+01
 Gap=     0.404 Goal=   None    Shift=    0.000
 RMSDP=1.80D-05 MaxDP=6.88D-04 DE=-1.00D-04 OVMax= 9.39D-04

 Cycle   3  Pass 1  IDiag  1:
 RMSU=  9.99D-06    CP:  1.00D+00  1.14D+00
 FoFJK:  IHMeth= 1 ICntrl=     0 DoSepK=T KAlg= 1 I1Cent= 0 FoldK=F
 E= -2905.42537665900     Delta-E=       -0.000002629235 Rises=F Damp=F
 DIIS: error= 1.22D-04 at cycle   3 NSaved=   3.
 NSaved= 3 IEnMin= 3 EnMin= -2905.42537665900     IErMin= 3 ErrMin= 1.22D-04
 ErrMax= 1.22D-04 EMaxC= 1.00D-01 BMatC= 4.49D-06 BMatP= 5.12D-06
 IDIUse=3 WtCom= 9.99D-01 WtEn= 1.22D-03
 Coeff-Com: -0.826D-02 0.486D+00 0.523D+00
 Coeff-En:   0.000D+00 0.213D+00 0.787D+00
 Coeff:     -0.825D-02 0.485D+00 0.523D+00
 Gap=     0.404 Goal=   None    Shift=    0.000
 RMSDP=5.94D-06 MaxDP=3.08D-04 DE=-2.63D-06 OVMax= 5.14D-04

 Cycle   4  Pass 1  IDiag  1:
 RMSU=  3.34D-06    CP:  1.00D+00  1.15D+00  7.60D-01
 FoFJK:  IHMeth= 1 ICntrl=     0 DoSepK=T KAlg= 1 I1Cent= 0 FoldK=F
 E= -2905.42537938252     Delta-E=       -0.000002723528 Rises=F Damp=F
 DIIS: error= 3.31D-05 at cycle   4 NSaved=   4.
 NSaved= 4 IEnMin= 4 EnMin= -2905.42537938252     IErMin= 4 ErrMin= 3.31D-05
 ErrMax= 3.31D-05 EMaxC= 1.00D-01 BMatC= 2.30D-07 BMatP= 4.49D-06
 IDIUse=1 WtCom= 1.00D+00 WtEn= 0.00D+00
 Coeff-Com: -0.274D-02 0.647D-01 0.186D+00 0.752D+00
 Coeff:     -0.274D-02 0.647D-01 0.186D+00 0.752D+00
 Gap=     0.404 Goal=   None    Shift=    0.000
 RMSDP=2.14D-06 MaxDP=6.71D-05 DE=-2.72D-06 OVMax= 1.40D-04

 Cycle   5  Pass 1  IDiag  1:
 RMSU=  1.12D-06    CP:  1.00D+00  1.16D+00  8.41D-01  1.03D+00
 FoFJK:  IHMeth= 1 ICntrl=     0 DoSepK=T KAlg= 1 I1Cent= 0 FoldK=F
 E= -2905.42537955114     Delta-E=       -0.000000168618 Rises=F Damp=F
 DIIS: error= 1.21D-05 at cycle   5 NSaved=   5.
 NSaved= 5 IEnMin= 5 EnMin= -2905.42537955114     IErMin= 5 ErrMin= 1.21D-05
 ErrMax= 1.21D-05 EMaxC= 1.00D-01 BMatC= 3.57D-08 BMatP= 2.30D-07
 IDIUse=1 WtCom= 1.00D+00 WtEn= 0.00D+00
 Coeff-Com:  0.193D-03-0.539D-01-0.943D-02 0.309D+00 0.754D+00
 Coeff:      0.193D-03-0.539D-01-0.943D-02 0.309D+00 0.754D+00
 Gap=     0.404 Goal=   None    Shift=    0.000
 RMSDP=1.09D-06 MaxDP=6.41D-05 DE=-1.69D-07 OVMax= 6.26D-05

 Cycle   6  Pass 1  IDiag  1:
 RMSU=  3.76D-07    CP:  1.00D+00  1.17D+00  8.81D-01  1.17D+00  9.61D-01
 FoFJK:  IHMeth= 1 ICntrl=     0 DoSepK=T KAlg= 1 I1Cent= 0 FoldK=F
 E= -2905.42537958163     Delta-E=       -0.000000030487 Rises=F Damp=F
 DIIS: error= 2.80D-06 at cycle   6 NSaved=   6.
 NSaved= 6 IEnMin= 6 EnMin= -2905.42537958163     IErMin= 6 ErrMin= 2.80D-06
 ErrMax= 2.80D-06 EMaxC= 1.00D-01 BMatC= 1.52D-09 BMatP= 3.57D-08
 IDIUse=1 WtCom= 1.00D+00 WtEn= 0.00D+00
 Coeff-Com:  0.195D-03-0.208D-01-0.128D-01 0.577D-01 0.242D+00 0.734D+00
 Coeff:      0.195D-03-0.208D-01-0.128D-01 0.577D-01 0.242D+00 0.734D+00
 Gap=     0.404 Goal=   None    Shift=    0.000
 RMSDP=2.12D-07 MaxDP=7.25D-06 DE=-3.05D-08 OVMax= 1.36D-05

 Cycle   7  Pass 1  IDiag  1:
 RMSU=  9.13D-08    CP:  1.00D+00  1.17D+00  8.87D-01  1.19D+00  1.02D+00
                    CP:  1.07D+00
 FoFJK:  IHMeth= 1 ICntrl=     0 DoSepK=T KAlg= 1 I1Cent= 0 FoldK=F
 E= -2905.42537958320     Delta-E=       -0.000000001573 Rises=F Damp=F
 DIIS: error= 9.68D-07 at cycle   7 NSaved=   7.
 NSaved= 7 IEnMin= 7 EnMin= -2905.42537958320     IErMin= 7 ErrMin= 9.68D-07
 ErrMax= 9.68D-07 EMaxC= 1.00D-01 BMatC= 6.88D-11 BMatP= 1.52D-09
 IDIUse=1 WtCom= 1.00D+00 WtEn= 0.00D+00
 Coeff-Com: -0.183D-04 0.621D-02 0.146D-02-0.362D-01-0.846D-01-0.896D-02
 Coeff-Com:  0.112D+01
 Coeff:     -0.183D-04 0.621D-02 0.146D-02-0.362D-01-0.846D-01-0.896D-02
 Coeff:      0.112D+01
 Gap=     0.404 Goal=   None    Shift=    0.000
 RMSDP=1.12D-07 MaxDP=5.67D-06 DE=-1.57D-09 OVMax= 9.01D-06

 Cycle   8  Pass 1  IDiag  1:
 RMSU=  3.08D-08    CP:  1.00D+00  1.17D+00  8.89D-01  1.20D+00  1.05D+00
                    CP:  1.20D+00  1.23D+00
 FoFJK:  IHMeth= 1 ICntrl=     0 DoSepK=T KAlg= 1 I1Cent= 0 FoldK=F
 E= -2905.42537958339     Delta-E=       -0.000000000190 Rises=F Damp=F
 DIIS: error= 8.24D-08 at cycle   8 NSaved=   8.
 NSaved= 8 IEnMin= 8 EnMin= -2905.42537958339     IErMin= 8 ErrMin= 8.24D-08
 ErrMax= 8.24D-08 EMaxC= 1.00D-01 BMatC= 2.86D-12 BMatP= 6.88D-11
 IDIUse=1 WtCom= 1.00D+00 WtEn= 0.00D+00
 Coeff-Com: -0.115D-04 0.196D-02 0.765D-03-0.903D-02-0.237D-01-0.275D-01
 Coeff-Com:  0.186D+00 0.872D+00
 Coeff:     -0.115D-04 0.196D-02 0.765D-03-0.903D-02-0.237D-01-0.275D-01
 Coeff:      0.186D+00 0.872D+00
 Gap=     0.404 Goal=   None    Shift=    0.000
 RMSDP=1.42D-08 MaxDP=6.51D-07 DE=-1.90D-10 OVMax= 1.29D-06

 Cycle   9  Pass 1  IDiag  1:
 RMSU=  5.63D-09    CP:  1.00D+00  1.17D+00  8.89D-01  1.20D+00  1.05D+00
                    CP:  1.21D+00  1.28D+00  1.21D+00
 FoFJK:  IHMeth= 1 ICntrl=     0 DoSepK=T KAlg= 1 I1Cent= 0 FoldK=F
 E= -2905.42537958340     Delta-E=       -0.000000000008 Rises=F Damp=F
 DIIS: error= 1.99D-08 at cycle   9 NSaved=   9.
 NSaved= 9 IEnMin= 9 EnMin= -2905.42537958340     IErMin= 9 ErrMin= 1.99D-08
 ErrMax= 1.99D-08 EMaxC= 1.00D-01 BMatC= 1.89D-13 BMatP= 2.86D-12
 IDIUse=1 WtCom= 1.00D+00 WtEn= 0.00D+00
 Coeff-Com:  0.800D-06-0.340D-03-0.683D-04 0.203D-02 0.505D-02-0.896D-03
 Coeff-Com: -0.737D-01 0.712D-01 0.997D+00
 Coeff:      0.800D-06-0.340D-03-0.683D-04 0.203D-02 0.505D-02-0.896D-03
 Coeff:     -0.737D-01 0.712D-01 0.997D+00
 Gap=     0.404 Goal=   None    Shift=    0.000
 RMSDP=6.26D-09 MaxDP=2.49D-07 DE=-7.73D-12 OVMax= 4.14D-07

 SCF Done:  E(RwB97XD) =  -2905.42537958     A.U. after    9 cycles
             Convg  =    0.6265D-08             -V/T =  2.0016
 KE= 2.900914356666D+03 PE=-7.228049700144D+03 EE= 1.276868859275D+03
 Leave Link  502 at Thu Apr 16 11:35:32 2020, MaxMem= 1073741824 cpu:     295.2
 (Enter /home/matheus/.gaussian/g09/l108.exe)
 Variable Step   Value    
 -------- ---- -----------
     1       2    6.047124
 Leave Link  108 at Thu Apr 16 11:35:32 2020, MaxMem= 1073741824 cpu:       0.0
 (Enter /home/matheus/.gaussian/g09/l202.exe)
 ---------------------------------------------------------------------------------------------------
                            Z-MATRIX (ANGSTROMS AND DEGREES)
   CD    Cent   Atom    N1       Length/X        N2       Alpha/Y        N3        Beta/Z          J
 ---------------------------------------------------------------------------------------------------
      1      1  O        0   0.000000          0.000000          0.725000
      2      2  O        0   0.000000          0.000000         -0.725000
      3      3  H        0   0.000000         -0.918721          1.023510
      4      4  H        0   0.000000          0.918721         -1.023510
      5      5  Kr       0   0.000000          3.200000          0.000000
 ---------------------------------------------------------------------------------------------------
                         Z-Matrix orientation:                         
 ---------------------------------------------------------------------
 Center     Atomic      Atomic             Coordinates (Angstroms)
 Number     Number       Type             X           Y           Z
 ---------------------------------------------------------------------
      1          8           0        0.000000    0.000000    0.725000
      2          8           0        0.000000    0.000000   -0.725000
      3          1           0        0.000000   -0.918721    1.023510
      4          1           0        0.000000    0.918721   -1.023510
      5         36           0        0.000000    3.200000    0.000000
 ---------------------------------------------------------------------
                    Distance matrix (angstroms):
                    1          2          3          4          5
     1  O    0.000000
     2  O    1.450000   0.000000
     3  H    0.966000   1.975180   0.000000
     4  H    1.975180   0.966000   2.750724   0.000000
     5  Kr   3.281101   3.281101   4.243988   2.500362   0.000000
 Stoichiometry    H2KrO2
 Framework group  CS[SG(H2KrO2)]
 Deg. of freedom     7
 Full point group                 CS      NOp   2
 RotChk:  IX=0 Diff= 4.63D-49
 Largest Abelian subgroup         CS      NOp   2
 Largest concise Abelian subgroup C1      NOp   1
                         Standard orientation:                         
 ---------------------------------------------------------------------
 Center     Atomic      Atomic             Coordinates (Angstroms)
 Number     Number       Type             X           Y           Z
 ---------------------------------------------------------------------
      1          8           0        0.725000   -2.133333    0.000000
      2          8           0       -0.725000   -2.133333    0.000000
      3          1           0        1.023510   -3.052054    0.000000
      4          1           0       -1.023510   -1.214613    0.000000
      5         36           0        0.000000    1.066667    0.000000
 ---------------------------------------------------------------------
 Rotational constants (GHZ):     26.7246182      2.0254639      1.8827685
 Leave Link  202 at Thu Apr 16 11:35:32 2020, MaxMem= 1073741824 cpu:       0.0
 (Enter /home/matheus/.gaussian/g09/l301.exe)
 Standard basis: Aug-CC-pVTZ (5D, 7F)
 Ernie: Thresh=  0.10000D-02 Tol=  0.10000D-05 Strict=F.
 Ernie:  38 primitive shells out of 205 were deleted.
 There are   131 symmetry adapted basis functions of A'  symmetry.
 There are    66 symmetry adapted basis functions of A"  symmetry.
 Integral buffers will be    131072 words long.
 Raffenetti 2 integral format.
 Two-electron integral symmetry is turned on.
   197 basis functions,   415 primitive gaussians,   229 cartesian basis functions
    27 alpha electrons       27 beta electrons
       nuclear repulsion energy       141.6059524159 Hartrees.
 IExCor= 4639 DFT=T Ex+Corr=wB97XD ExCW=0 ScaHFX=  1.000000
 ScaDFX=  1.000000  1.000000  1.000000  1.000000 ScalE2=  1.000000  1.000000
 IRadAn=      5 IRanWt=     -1 IRanGd=            0 ICorTp=0
  HFx wShort=  0.000000 wLong=  0.250000 cFull=  0.222036 cShort=  0.000000 cLong=  0.777964
  DFx wShort=  0.000000 wLong=  0.250000 cFull=  0.000000 cShort=  0.000000 cLong=  1.000000
 NAtoms=    5 NActive=    5 NUniq=    5 SFac= 1.00D+00 NAtFMM=   60 NAOKFM=F Big=F
 R6Disp: Dispersion energy =        -0.0008707869 Hartrees.
 Nuclear repulsion after empirical dispersion term =      141.6050816290 Hartrees.
 Leave Link  301 at Thu Apr 16 11:35:33 2020, MaxMem= 1073741824 cpu:       0.2
 (Enter /home/matheus/.gaussian/g09/l302.exe)
 NPDir=0 NMtPBC=     1 NCelOv=     1 NCel=       1 NClECP=     1 NCelD=      1
         NCelK=      1 NCelE2=     1 NClLst=     1 CellRange=     0.0.
 One-electron integrals computed using PRISM.
 NBasis=   197 RedAO= T  NBF=   131    66
 NBsUse=   197 1.00D-06 NBFU=   131    66
 Precomputing XC quadrature grid using
 IXCGrd= 2 IRadAn=           5 IRanWt=          -1 IRanGd=           0 AccXCQ= 0.00D+00.
 NRdTot=     427 NPtTot=      123814 NUsed=      126881 NTot=      126913
 NSgBfM=   229   229   229   229   229 NAtAll=     5     5.
 Leave Link  302 at Thu Apr 16 11:35:33 2020, MaxMem= 1073741824 cpu:       1.1
 (Enter /home/matheus/.gaussian/g09/l303.exe)
 DipDrv:  MaxL=1.
 Leave Link  303 at Thu Apr 16 11:35:33 2020, MaxMem= 1073741824 cpu:       0.2
 (Enter /home/matheus/.gaussian/g09/l401.exe)
 Initial guess read from the read-write file.
 B after Tr=     0.000000    0.000000    0.000000
         Rot=    1.000000    0.000000    0.000000    0.000000 Ang=   0.00 deg.
 Guess basis will be translated and rotated to current coordinates.
 Initial guess orbital symmetries:
       Occupied  (A') (A') (A') (A") (A') (A') (A') (A') (A') (A")
                 (A') (A') (A") (A') (A") (A') (A') (A') (A') (A')
                 (A') (A") (A') (A") (A') (A') (A")
       Virtual   (A') (A') (A') (A') (A") (A') (A') (A') (A") (A')
                 (A') (A") (A') (A') (A") (A') (A") (A') (A') (A')
                 (A') (A") (A') (A") (A') (A') (A') (A') (A") (A')
                 (A') (A') (A") (A') (A") (A') (A") (A') (A") (A')
                 (A") (A') (A') (A') (A") (A') (A') (A") (A") (A')
                 (A') (A') (A") (A") (A') (A') (A') (A") (A') (A')
                 (A") (A') (A") (A') (A") (A') (A') (A') (A") (A')
                 (A') (A") (A") (A') (A') (A') (A') (A") (A') (A')
                 (A") (A') (A') (A") (A") (A') (A") (A') (A') (A")
                 (A') (A') (A") (A') (A') (A") (A') (A') (A") (A")
                 (A') (A') (A") (A') (A") (A') (A") (A') (A') (A')
                 (A") (A') (A") (A') (A') (A') (A') (A") (A') (A')
                 (A') (A") (A") (A') (A") (A") (A') (A") (A') (A")
                 (A') (A') (A') (A') (A') (A') (A') (A') (A") (A")
                 (A') (A') (A') (A") (A') (A') (A") (A') (A") (A')
                 (A") (A') (A") (A") (A") (A") (A") (A') (A') (A')
                 (A') (A") (A') (A') (A') (A') (A') (A') (A') (A')
 The electronic state of the initial guess is 1-A'.
 Generating alternative initial guess.
 Harris functional with IExCor= 4639 diagonalized for initial guess.
 ExpMin= 2.53D-02 ExpMax= 1.17D+07 ExpMxC= 1.33D+04 IAcc=3 IRadAn=         5 AccDes= 0.00D+00
 HarFok:  IExCor= 4639 AccDes= 0.00D+00 IRadAn=         5 IDoV= 1
 ScaDFX=  1.000000  1.000000  1.000000  1.000000
 FoFCou: FMM=F IPFlag=           0 FMFlag=      100000 FMFlg1=           0
         NFxFlg=           0 DoJE=T BraDBF=F KetDBF=T FulRan=T
         Omega=  0.000000  0.000000  1.000000  0.000000  0.000000 ICntrl=     500 IOpCl=  0
         NMat0=    1 NMatS0=    1 NMatT0=    0 NMatD0=    1 NMtDS0=    0 NMtDT0=    0
         I1Cent=           4 NGrid=           0.
 Petite list used in FoFCou.
 Harris En= -2875.39854032736    
 Leave Link  401 at Thu Apr 16 11:35:33 2020, MaxMem= 1073741824 cpu:       4.2
 (Enter /home/matheus/.gaussian/g09/l502.exe)
 Closed shell SCF:
 Requested convergence on RMS density matrix=1.00D-08 within 128 cycles.
 Requested convergence on MAX density matrix=1.00D-06.
 Requested convergence on             energy=1.00D-06.
 No special actions if energy rises.
 Using DIIS extrapolation, IDIIS=  1040.
 Integral symmetry usage will be decided dynamically.
       126823 words used for storage of precomputed grid.
 IEnd=      305835 IEndB=      305835 NGot=  1073741824 MDV=  1073505300
 LenX=  1073505300 LenY=  1073452418
 Fock matrices will be formed incrementally for  20 cycles.

 Cycle   1  Pass 1  IDiag  1:
 FoFJK:  IHMeth= 1 ICntrl=     0 DoSepK=T KAlg= 1 I1Cent= 0 FoldK=F
 FoFCou: FMM=F IPFlag=           0 FMFlag=      100000 FMFlg1=           0
         NFxFlg=           0 DoJE=T BraDBF=F KetDBF=F FulRan=T
         Omega=  0.000000  0.000000  1.000000  0.000000  0.000000 ICntrl=     500 IOpCl=  0
         NMat0=    1 NMatS0=    1 NMatT0=    0 NMatD0=    1 NMtDS0=    0 NMtDT0=    0
         I1Cent=           0 NGrid=           0.
 Petite list used in FoFCou.
 E= -2905.42639717173    
 DIIS: error= 1.08D-03 at cycle   1 NSaved=   1.
 NSaved= 1 IEnMin= 1 EnMin= -2905.42639717173     IErMin= 1 ErrMin= 1.08D-03
 ErrMax= 1.08D-03 EMaxC= 1.00D-01 BMatC= 4.01D-04 BMatP= 4.01D-04
 IDIUse=3 WtCom= 9.89D-01 WtEn= 1.08D-02
 Coeff-Com:  0.100D+01
 Coeff-En:   0.100D+01
 Coeff:      0.100D+01
 Gap=     0.406 Goal=   None    Shift=    0.000
 GapD=    0.406 DampG=2.000 DampE=1.000 DampFc=2.0000 IDamp=-1.
 RMSDP=7.90D-05 MaxDP=2.25D-03              OVMax= 3.49D-03

 Cycle   2  Pass 1  IDiag  1:
 RMSU=  5.58D-05    CP:  1.00D+00
 FoFJK:  IHMeth= 1 ICntrl=     0 DoSepK=T KAlg= 1 I1Cent= 0 FoldK=F
 E= -2905.42647375527     Delta-E=       -0.000076583547 Rises=F Damp=F
 DIIS: error= 1.20D-04 at cycle   2 NSaved=   2.
 NSaved= 2 IEnMin= 2 EnMin= -2905.42647375527     IErMin= 2 ErrMin= 1.20D-04
 ErrMax= 1.20D-04 EMaxC= 1.00D-01 BMatC= 3.42D-06 BMatP= 4.01D-04
 IDIUse=3 WtCom= 9.99D-01 WtEn= 1.20D-03
 Coeff-Com: -0.243D-02 0.100D+01
 Coeff-En:   0.000D+00 0.100D+01
 Coeff:     -0.243D-02 0.100D+01
 Gap=     0.404 Goal=   None    Shift=    0.000
 RMSDP=1.60D-05 MaxDP=5.39D-04 DE=-7.66D-05 OVMax= 7.69D-04

 Cycle   3  Pass 1  IDiag  1:
 RMSU=  8.24D-06    CP:  1.00D+00  1.14D+00
 FoFJK:  IHMeth= 1 ICntrl=     0 DoSepK=T KAlg= 1 I1Cent= 0 FoldK=F
 E= -2905.42647583684     Delta-E=       -0.000002081564 Rises=F Damp=F
 DIIS: error= 9.95D-05 at cycle   3 NSaved=   3.
 NSaved= 3 IEnMin= 3 EnMin= -2905.42647583684     IErMin= 3 ErrMin= 9.95D-05
 ErrMax= 9.95D-05 EMaxC= 1.00D-01 BMatC= 2.83D-06 BMatP= 3.42D-06
 IDIUse=1 WtCom= 1.00D+00 WtEn= 0.00D+00
 Coeff-Com: -0.811D-02 0.477D+00 0.531D+00
 Coeff:     -0.811D-02 0.477D+00 0.531D+00
 Gap=     0.404 Goal=   None    Shift=    0.000
 RMSDP=4.89D-06 MaxDP=2.52D-04 DE=-2.08D-06 OVMax= 4.14D-04

 Cycle   4  Pass 1  IDiag  1:
 RMSU=  2.86D-06    CP:  1.00D+00  1.15D+00  7.89D-01
 FoFJK:  IHMeth= 1 ICntrl=     0 DoSepK=T KAlg= 1 I1Cent= 0 FoldK=F
 E= -2905.42647755669     Delta-E=       -0.000001719851 Rises=F Damp=F
 DIIS: error= 2.80D-05 at cycle   4 NSaved=   4.
 NSaved= 4 IEnMin= 4 EnMin= -2905.42647755669     IErMin= 4 ErrMin= 2.80D-05
 ErrMax= 2.80D-05 EMaxC= 1.00D-01 BMatC= 1.66D-07 BMatP= 2.83D-06
 IDIUse=1 WtCom= 1.00D+00 WtEn= 0.00D+00
 Coeff-Com: -0.243D-02 0.499D-01 0.189D+00 0.764D+00
 Coeff:     -0.243D-02 0.499D-01 0.189D+00 0.764D+00
 Gap=     0.404 Goal=   None    Shift=    0.000
 RMSDP=1.98D-06 MaxDP=6.38D-05 DE=-1.72D-06 OVMax= 1.22D-04

 Cycle   5  Pass 1  IDiag  1:
 RMSU=  9.52D-07    CP:  1.00D+00  1.17D+00  8.82D-01  1.04D+00
 FoFJK:  IHMeth= 1 ICntrl=     0 DoSepK=T KAlg= 1 I1Cent= 0 FoldK=F
 E= -2905.42647767987     Delta-E=       -0.000000123186 Rises=F Damp=F
 DIIS: error= 9.98D-06 at cycle   5 NSaved=   5.
 NSaved= 5 IEnMin= 5 EnMin= -2905.42647767987     IErMin= 5 ErrMin= 9.98D-06
 ErrMax= 9.98D-06 EMaxC= 1.00D-01 BMatC= 2.65D-08 BMatP= 1.66D-07
 IDIUse=1 WtCom= 1.00D+00 WtEn= 0.00D+00
 Coeff-Com:  0.223D-03-0.553D-01-0.445D-02 0.322D+00 0.738D+00
 Coeff:      0.223D-03-0.553D-01-0.445D-02 0.322D+00 0.738D+00
 Gap=     0.404 Goal=   None    Shift=    0.000
 RMSDP=9.64D-07 MaxDP=6.01D-05 DE=-1.23D-07 OVMax= 5.31D-05

 Cycle   6  Pass 1  IDiag  1:
 RMSU=  3.12D-07    CP:  1.00D+00  1.17D+00  9.26D-01  1.18D+00  9.51D-01
 FoFJK:  IHMeth= 1 ICntrl=     0 DoSepK=T KAlg= 1 I1Cent= 0 FoldK=F
 E= -2905.42647770224     Delta-E=       -0.000000022365 Rises=F Damp=F
 DIIS: error= 2.32D-06 at cycle   6 NSaved=   6.
 NSaved= 6 IEnMin= 6 EnMin= -2905.42647770224     IErMin= 6 ErrMin= 2.32D-06
 ErrMax= 2.32D-06 EMaxC= 1.00D-01 BMatC= 1.08D-09 BMatP= 2.65D-08
 IDIUse=1 WtCom= 1.00D+00 WtEn= 0.00D+00
 Coeff-Com:  0.191D-03-0.201D-01-0.115D-01 0.581D-01 0.232D+00 0.741D+00
 Coeff:      0.191D-03-0.201D-01-0.115D-01 0.581D-01 0.232D+00 0.741D+00
 Gap=     0.404 Goal=   None    Shift=    0.000
 RMSDP=1.86D-07 MaxDP=7.01D-06 DE=-2.24D-08 OVMax= 1.20D-05

 Cycle   7  Pass 1  IDiag  1:
 RMSU=  7.71D-08    CP:  1.00D+00  1.17D+00  9.32D-01  1.20D+00  1.02D+00
                    CP:  1.06D+00
 FoFJK:  IHMeth= 1 ICntrl=     0 DoSepK=T KAlg= 1 I1Cent= 0 FoldK=F
 E= -2905.42647770340     Delta-E=       -0.000000001159 Rises=F Damp=F
 DIIS: error= 7.94D-07 at cycle   7 NSaved=   7.
 NSaved= 7 IEnMin= 7 EnMin= -2905.42647770340     IErMin= 7 ErrMin= 7.94D-07
 ErrMax= 7.94D-07 EMaxC= 1.00D-01 BMatC= 5.24D-11 BMatP= 1.08D-09
 IDIUse=1 WtCom= 1.00D+00 WtEn= 0.00D+00
 Coeff-Com: -0.222D-04 0.659D-02 0.870D-03-0.393D-01-0.850D-01-0.460D-02
 Coeff-Com:  0.112D+01
 Coeff:     -0.222D-04 0.659D-02 0.870D-03-0.393D-01-0.850D-01-0.460D-02
 Coeff:      0.112D+01
 Gap=     0.404 Goal=   None    Shift=    0.000
 RMSDP=9.79D-08 MaxDP=5.43D-06 DE=-1.16D-09 OVMax= 7.88D-06

 Cycle   8  Pass 1  IDiag  1:
 RMSU=  2.74D-08    CP:  1.00D+00  1.17D+00  9.35D-01  1.21D+00  1.04D+00
                    CP:  1.20D+00  1.25D+00
 FoFJK:  IHMeth= 1 ICntrl=     0 DoSepK=T KAlg= 1 I1Cent= 0 FoldK=F
 E= -2905.42647770353     Delta-E=       -0.000000000133 Rises=F Damp=F
 DIIS: error= 6.50D-08 at cycle   8 NSaved=   8.
 NSaved= 8 IEnMin= 8 EnMin= -2905.42647770353     IErMin= 8 ErrMin= 6.50D-08
 ErrMax= 6.50D-08 EMaxC= 1.00D-01 BMatC= 1.97D-12 BMatP= 5.24D-11
 IDIUse=1 WtCom= 1.00D+00 WtEn= 0.00D+00
 Coeff-Com: -0.113D-04 0.188D-02 0.559D-03-0.905D-02-0.218D-01-0.252D-01
 Coeff-Com:  0.176D+00 0.878D+00
 Coeff:     -0.113D-04 0.188D-02 0.559D-03-0.905D-02-0.218D-01-0.252D-01
 Coeff:      0.176D+00 0.878D+00
 Gap=     0.404 Goal=   None    Shift=    0.000
 RMSDP=1.25D-08 MaxDP=5.82D-07 DE=-1.33D-10 OVMax= 1.10D-06

 Cycle   9  Pass 1  IDiag  1:
 RMSU=  4.78D-09    CP:  1.00D+00  1.17D+00  9.35D-01  1.21D+00  1.04D+00
                    CP:  1.20D+00  1.29D+00  1.22D+00
 FoFJK:  IHMeth= 1 ICntrl=     0 DoSepK=T KAlg= 1 I1Cent= 0 FoldK=F
 E= -2905.42647770354     Delta-E=       -0.000000000007 Rises=F Damp=F
 DIIS: error= 1.86D-08 at cycle   9 NSaved=   9.
 NSaved= 9 IEnMin= 9 EnMin= -2905.42647770354     IErMin= 9 ErrMin= 1.86D-08
 ErrMax= 1.86D-08 EMaxC= 1.00D-01 BMatC= 1.49D-13 BMatP= 1.97D-12
 IDIUse=1 WtCom= 1.00D+00 WtEn= 0.00D+00
 Coeff-Com:  0.115D-05-0.402D-03-0.392D-04 0.243D-02 0.562D-02-0.136D-02
 Coeff-Com: -0.794D-01 0.780D-01 0.995D+00
 Coeff:      0.115D-05-0.402D-03-0.392D-04 0.243D-02 0.562D-02-0.136D-02
 Coeff:     -0.794D-01 0.780D-01 0.995D+00
 Gap=     0.404 Goal=   None    Shift=    0.000
 RMSDP=5.67D-09 MaxDP=2.52D-07 DE=-7.28D-12 OVMax= 3.75D-07

 SCF Done:  E(RwB97XD) =  -2905.42647770     A.U. after    9 cycles
             Convg  =    0.5672D-08             -V/T =  2.0016
 KE= 2.900906786751D+03 PE=-7.221581863966D+03 EE= 1.273643517883D+03
 Leave Link  502 at Thu Apr 16 11:36:11 2020, MaxMem= 1073741824 cpu:     297.2
 (Enter /home/matheus/.gaussian/g09/l108.exe)
 Variable Step   Value    
 -------- ---- -----------
     1       3    6.236096
 Leave Link  108 at Thu Apr 16 11:36:11 2020, MaxMem= 1073741824 cpu:       0.0
 (Enter /home/matheus/.gaussian/g09/l202.exe)
 ---------------------------------------------------------------------------------------------------
                            Z-MATRIX (ANGSTROMS AND DEGREES)
   CD    Cent   Atom    N1       Length/X        N2       Alpha/Y        N3        Beta/Z          J
 ---------------------------------------------------------------------------------------------------
      1      1  O        0   0.000000          0.000000          0.725000
      2      2  O        0   0.000000          0.000000         -0.725000
      3      3  H        0   0.000000         -0.918721          1.023510
      4      4  H        0   0.000000          0.918721         -1.023510
      5      5  Kr       0   0.000000          3.300000          0.000000
 ---------------------------------------------------------------------------------------------------
                         Z-Matrix orientation:                         
 ---------------------------------------------------------------------
 Center     Atomic      Atomic             Coordinates (Angstroms)
 Number     Number       Type             X           Y           Z
 ---------------------------------------------------------------------
      1          8           0        0.000000    0.000000    0.725000
      2          8           0        0.000000    0.000000   -0.725000
      3          1           0        0.000000   -0.918721    1.023510
      4          1           0        0.000000    0.918721   -1.023510
      5         36           0        0.000000    3.300000    0.000000
 ---------------------------------------------------------------------
                    Distance matrix (angstroms):
                    1          2          3          4          5
     1  O    0.000000
     2  O    1.450000   0.000000
     3  H    0.966000   1.975180   0.000000
     4  H    1.975180   0.966000   2.750724   0.000000
     5  Kr   3.378702   3.378702   4.341103   2.591923   0.000000
 Stoichiometry    H2KrO2
 Framework group  CS[SG(H2KrO2)]
 Deg. of freedom     7
 Full point group                 CS      NOp   2
 RotChk:  IX=0 Diff= 2.45D-18
 Largest Abelian subgroup         CS      NOp   2
 Largest concise Abelian subgroup C1      NOp   1
                         Standard orientation:                         
 ---------------------------------------------------------------------
 Center     Atomic      Atomic             Coordinates (Angstroms)
 Number     Number       Type             X           Y           Z
 ---------------------------------------------------------------------
      1          8           0        0.725000   -2.200000    0.000000
      2          8           0       -0.725000   -2.200000    0.000000
      3          1           0        1.023510   -3.118721    0.000000
      4          1           0       -1.023510   -1.281279    0.000000
      5         36           0        0.000000    1.100000    0.000000
 ---------------------------------------------------------------------
 Rotational constants (GHZ):     26.7232124      1.9053581      1.7785481
 Leave Link  202 at Thu Apr 16 11:36:11 2020, MaxMem= 1073741824 cpu:       0.0
 (Enter /home/matheus/.gaussian/g09/l301.exe)
 Standard basis: Aug-CC-pVTZ (5D, 7F)
 Ernie: Thresh=  0.10000D-02 Tol=  0.10000D-05 Strict=F.
 Ernie:  38 primitive shells out of 205 were deleted.
 There are   131 symmetry adapted basis functions of A'  symmetry.
 There are    66 symmetry adapted basis functions of A"  symmetry.
 Integral buffers will be    131072 words long.
 Raffenetti 2 integral format.
 Two-electron integral symmetry is turned on.
   197 basis functions,   415 primitive gaussians,   229 cartesian basis functions
    27 alpha electrons       27 beta electrons
       nuclear repulsion energy       138.5528576611 Hartrees.
 IExCor= 4639 DFT=T Ex+Corr=wB97XD ExCW=0 ScaHFX=  1.000000
 ScaDFX=  1.000000  1.000000  1.000000  1.000000 ScalE2=  1.000000  1.000000
 IRadAn=      5 IRanWt=     -1 IRanGd=            0 ICorTp=0
  HFx wShort=  0.000000 wLong=  0.250000 cFull=  0.222036 cShort=  0.000000 cLong=  0.777964
  DFx wShort=  0.000000 wLong=  0.250000 cFull=  0.000000 cShort=  0.000000 cLong=  1.000000
 NAtoms=    5 NActive=    5 NUniq=    5 SFac= 1.00D+00 NAtFMM=   60 NAOKFM=F Big=F
 R6Disp: Dispersion energy =        -0.0009173852 Hartrees.
 Nuclear repulsion after empirical dispersion term =      138.5519402758 Hartrees.
 Leave Link  301 at Thu Apr 16 11:36:11 2020, MaxMem= 1073741824 cpu:       0.2
 (Enter /home/matheus/.gaussian/g09/l302.exe)
 NPDir=0 NMtPBC=     1 NCelOv=     1 NCel=       1 NClECP=     1 NCelD=      1
         NCelK=      1 NCelE2=     1 NClLst=     1 CellRange=     0.0.
 One-electron integrals computed using PRISM.
 NBasis=   197 RedAO= T  NBF=   131    66
 NBsUse=   197 1.00D-06 NBFU=   131    66
 Precomputing XC quadrature grid using
 IXCGrd= 2 IRadAn=           5 IRanWt=          -1 IRanGd=           0 AccXCQ= 0.00D+00.
 NRdTot=     427 NPtTot=      123814 NUsed=      126881 NTot=      126913
 NSgBfM=   229   229   229   229   229 NAtAll=     5     5.
 Leave Link  302 at Thu Apr 16 11:36:11 2020, MaxMem= 1073741824 cpu:       1.1
 (Enter /home/matheus/.gaussian/g09/l303.exe)
 DipDrv:  MaxL=1.
 Leave Link  303 at Thu Apr 16 11:36:11 2020, MaxMem= 1073741824 cpu:       0.2
 (Enter /home/matheus/.gaussian/g09/l401.exe)
 Initial guess read from the read-write file.
 B after Tr=     0.000000    0.000000    0.000000
         Rot=    1.000000    0.000000    0.000000    0.000000 Ang=   0.00 deg.
 Guess basis will be translated and rotated to current coordinates.
 Initial guess orbital symmetries:
       Occupied  (A') (A') (A') (A") (A') (A') (A') (A') (A') (A")
                 (A') (A') (A") (A') (A") (A') (A') (A') (A') (A')
                 (A') (A") (A') (A") (A') (A') (A")
       Virtual   (A') (A') (A') (A') (A") (A') (A') (A') (A") (A')
                 (A') (A") (A') (A') (A") (A') (A") (A') (A') (A')
                 (A") (A') (A') (A") (A') (A') (A') (A') (A") (A')
                 (A') (A') (A") (A') (A") (A') (A") (A') (A") (A')
                 (A") (A') (A') (A') (A") (A') (A') (A") (A') (A")
                 (A') (A') (A") (A") (A') (A') (A') (A") (A') (A')
                 (A") (A') (A") (A') (A") (A') (A') (A') (A") (A')
                 (A') (A") (A") (A') (A') (A') (A') (A") (A') (A')
                 (A") (A') (A') (A") (A") (A') (A") (A') (A') (A')
                 (A") (A') (A") (A') (A') (A") (A') (A') (A") (A")
                 (A') (A") (A') (A') (A') (A") (A") (A') (A') (A')
                 (A") (A') (A") (A') (A') (A') (A') (A") (A') (A')
                 (A') (A") (A") (A') (A") (A") (A') (A") (A') (A")
                 (A') (A') (A') (A') (A') (A') (A') (A') (A") (A")
                 (A') (A') (A') (A") (A') (A') (A") (A') (A") (A')
                 (A") (A') (A") (A") (A") (A") (A") (A') (A') (A')
                 (A') (A") (A') (A') (A') (A') (A') (A') (A') (A')
 The electronic state of the initial guess is 1-A'.
 Generating alternative initial guess.
 Harris functional with IExCor= 4639 diagonalized for initial guess.
 ExpMin= 2.53D-02 ExpMax= 1.17D+07 ExpMxC= 1.33D+04 IAcc=3 IRadAn=         5 AccDes= 0.00D+00
 HarFok:  IExCor= 4639 AccDes= 0.00D+00 IRadAn=         5 IDoV= 1
 ScaDFX=  1.000000  1.000000  1.000000  1.000000
 FoFCou: FMM=F IPFlag=           0 FMFlag=      100000 FMFlg1=           0
         NFxFlg=           0 DoJE=T BraDBF=F KetDBF=T FulRan=T
         Omega=  0.000000  0.000000  1.000000  0.000000  0.000000 ICntrl=     500 IOpCl=  0
         NMat0=    1 NMatS0=    1 NMatT0=    0 NMatD0=    1 NMtDS0=    0 NMtDT0=    0
         I1Cent=           4 NGrid=           0.
 Petite list used in FoFCou.
 Harris En= -2875.40017797322    
 Leave Link  401 at Thu Apr 16 11:36:11 2020, MaxMem= 1073741824 cpu:       4.2
 (Enter /home/matheus/.gaussian/g09/l502.exe)
 Closed shell SCF:
 Requested convergence on RMS density matrix=1.00D-08 within 128 cycles.
 Requested convergence on MAX density matrix=1.00D-06.
 Requested convergence on             energy=1.00D-06.
 No special actions if energy rises.
 Using DIIS extrapolation, IDIIS=  1040.
 Integral symmetry usage will be decided dynamically.
       126823 words used for storage of precomputed grid.
 IEnd=      305835 IEndB=      305835 NGot=  1073741824 MDV=  1073505300
 LenX=  1073505300 LenY=  1073452418
 Fock matrices will be formed incrementally for  20 cycles.

 Cycle   1  Pass 1  IDiag  1:
 FoFJK:  IHMeth= 1 ICntrl=     0 DoSepK=T KAlg= 1 I1Cent= 0 FoldK=F
 FoFCou: FMM=F IPFlag=           0 FMFlag=      100000 FMFlg1=           0
         NFxFlg=           0 DoJE=T BraDBF=F KetDBF=F FulRan=T
         Omega=  0.000000  0.000000  1.000000  0.000000  0.000000 ICntrl=     500 IOpCl=  0
         NMat0=    1 NMatS0=    1 NMatT0=    0 NMatD0=    1 NMtDS0=    0 NMtDT0=    0
         I1Cent=           0 NGrid=           0.
 Petite list used in FoFCou.
 E= -2905.42711661981    
 DIIS: error= 9.05D-04 at cycle   1 NSaved=   1.
 NSaved= 1 IEnMin= 1 EnMin= -2905.42711661981     IErMin= 1 ErrMin= 9.05D-04
 ErrMax= 9.05D-04 EMaxC= 1.00D-01 BMatC= 3.00D-04 BMatP= 3.00D-04
 IDIUse=3 WtCom= 9.91D-01 WtEn= 9.05D-03
 Coeff-Com:  0.100D+01
 Coeff-En:   0.100D+01
 Coeff:      0.100D+01
 Gap=     0.406 Goal=   None    Shift=    0.000
 RMSDP=7.38D-05 MaxDP=1.87D-03              OVMax= 3.16D-03

 Cycle   2  Pass 1  IDiag  1:
 RMSU=  5.22D-05    CP:  1.00D+00
 FoFJK:  IHMeth= 1 ICntrl=     0 DoSepK=T KAlg= 1 I1Cent= 0 FoldK=F
 E= -2905.42717484977     Delta-E=       -0.000058229963 Rises=F Damp=F
 DIIS: error= 9.18D-05 at cycle   2 NSaved=   2.
 NSaved= 2 IEnMin= 2 EnMin= -2905.42717484977     IErMin= 2 ErrMin= 9.18D-05
 ErrMax= 9.18D-05 EMaxC= 1.00D-01 BMatC= 2.29D-06 BMatP= 3.00D-04
 IDIUse=1 WtCom= 1.00D+00 WtEn= 0.00D+00
 Coeff-Com: -0.428D-02 0.100D+01
 Coeff:     -0.428D-02 0.100D+01
 Gap=     0.404 Goal=   None    Shift=    0.000
 RMSDP=1.39D-05 MaxDP=4.43D-04 DE=-5.82D-05 OVMax= 6.41D-04

 Cycle   3  Pass 1  IDiag  1:
 RMSU=  6.80D-06    CP:  1.00D+00  1.14D+00
 FoFJK:  IHMeth= 1 ICntrl=     0 DoSepK=T KAlg= 1 I1Cent= 0 FoldK=F
 E= -2905.42717646421     Delta-E=       -0.000001614434 Rises=F Damp=F
 DIIS: error= 8.12D-05 at cycle   3 NSaved=   3.
 NSaved= 3 IEnMin= 3 EnMin= -2905.42717646421     IErMin= 3 ErrMin= 8.12D-05
 ErrMax= 8.12D-05 EMaxC= 1.00D-01 BMatC= 1.78D-06 BMatP= 2.29D-06
 IDIUse=1 WtCom= 1.00D+00 WtEn= 0.00D+00
 Coeff-Com: -0.807D-02 0.469D+00 0.539D+00
 Coeff:     -0.807D-02 0.469D+00 0.539D+00
 Gap=     0.404 Goal=   None    Shift=    0.000
 RMSDP=4.01D-06 MaxDP=2.04D-04 DE=-1.61D-06 OVMax= 3.34D-04

 Cycle   4  Pass 1  IDiag  1:
 RMSU=  2.48D-06    CP:  1.00D+00  1.15D+00  8.24D-01
 FoFJK:  IHMeth= 1 ICntrl=     0 DoSepK=T KAlg= 1 I1Cent= 0 FoldK=F
 E= -2905.42717755277     Delta-E=       -0.000001088560 Rises=F Damp=F
 DIIS: error= 2.38D-05 at cycle   4 NSaved=   4.
 NSaved= 4 IEnMin= 4 EnMin= -2905.42717755277     IErMin= 4 ErrMin= 2.38D-05
 ErrMax= 2.38D-05 EMaxC= 1.00D-01 BMatC= 1.21D-07 BMatP= 1.78D-06
 IDIUse=1 WtCom= 1.00D+00 WtEn= 0.00D+00
 Coeff-Com: -0.220D-02 0.370D-01 0.195D+00 0.770D+00
 Coeff:     -0.220D-02 0.370D-01 0.195D+00 0.770D+00
 Gap=     0.405 Goal=   None    Shift=    0.000
 RMSDP=1.79D-06 MaxDP=5.80D-05 DE=-1.09D-06 OVMax= 1.04D-04

 Cycle   5  Pass 1  IDiag  1:
 RMSU=  8.04D-07    CP:  1.00D+00  1.16D+00  9.30D-01  1.06D+00
 FoFJK:  IHMeth= 1 ICntrl=     0 DoSepK=T KAlg= 1 I1Cent= 0 FoldK=F
 E= -2905.42717764365     Delta-E=       -0.000000090888 Rises=F Damp=F
 DIIS: error= 8.44D-06 at cycle   5 NSaved=   5.
 NSaved= 5 IEnMin= 5 EnMin= -2905.42717764365     IErMin= 5 ErrMin= 8.44D-06
 ErrMax= 8.44D-06 EMaxC= 1.00D-01 BMatC= 1.86D-08 BMatP= 1.21D-07
 IDIUse=1 WtCom= 1.00D+00 WtEn= 0.00D+00
 Coeff-Com:  0.244D-03-0.556D-01 0.154D-02 0.326D+00 0.728D+00
 Coeff:      0.244D-03-0.556D-01 0.154D-02 0.326D+00 0.728D+00
 Gap=     0.404 Goal=   None    Shift=    0.000
 RMSDP=8.18D-07 MaxDP=5.02D-05 DE=-9.09D-08 OVMax= 4.34D-05

 Cycle   6  Pass 1  IDiag  1:
 RMSU=  2.56D-07    CP:  1.00D+00  1.17D+00  9.78D-01  1.19D+00  9.40D-01
 FoFJK:  IHMeth= 1 ICntrl=     0 DoSepK=T KAlg= 1 I1Cent= 0 FoldK=F
 E= -2905.42717765933     Delta-E=       -0.000000015680 Rises=F Damp=F
 DIIS: error= 1.94D-06 at cycle   6 NSaved=   6.
 NSaved= 6 IEnMin= 6 EnMin= -2905.42717765933     IErMin= 6 ErrMin= 1.94D-06
 ErrMax= 1.94D-06 EMaxC= 1.00D-01 BMatC= 7.69D-10 BMatP= 1.86D-08
 IDIUse=1 WtCom= 1.00D+00 WtEn= 0.00D+00
 Coeff-Com:  0.191D-03-0.195D-01-0.102D-01 0.574D-01 0.229D+00 0.743D+00
 Coeff:      0.191D-03-0.195D-01-0.102D-01 0.574D-01 0.229D+00 0.743D+00
 Gap=     0.404 Goal=   None    Shift=    0.000
 RMSDP=1.62D-07 MaxDP=6.64D-06 DE=-1.57D-08 OVMax= 1.00D-05

 Cycle   7  Pass 1  IDiag  1:
 RMSU=  6.50D-08    CP:  1.00D+00  1.17D+00  9.85D-01  1.21D+00  1.00D+00
                    CP:  1.05D+00
 FoFJK:  IHMeth= 1 ICntrl=     0 DoSepK=T KAlg= 1 I1Cent= 0 FoldK=F
 E= -2905.42717766019     Delta-E=       -0.000000000855 Rises=F Damp=F
 DIIS: error= 6.44D-07 at cycle   7 NSaved=   7.
 NSaved= 7 IEnMin= 7 EnMin= -2905.42717766019     IErMin= 7 ErrMin= 6.44D-07
 ErrMax= 6.44D-07 EMaxC= 1.00D-01 BMatC= 3.82D-11 BMatP= 7.69D-10
 IDIUse=1 WtCom= 1.00D+00 WtEn= 0.00D+00
 Coeff-Com: -0.257D-04 0.682D-02 0.163D-03-0.410D-01-0.859D-01-0.152D-02
 Coeff-Com:  0.112D+01
 Coeff:     -0.257D-04 0.682D-02 0.163D-03-0.410D-01-0.859D-01-0.152D-02
 Coeff:      0.112D+01
 Gap=     0.404 Goal=   None    Shift=    0.000
 RMSDP=8.36D-08 MaxDP=4.85D-06 DE=-8.55D-10 OVMax= 6.58D-06

 Cycle   8  Pass 1  IDiag  1:
 RMSU=  2.40D-08    CP:  1.00D+00  1.17D+00  9.89D-01  1.22D+00  1.02D+00
                    CP:  1.19D+00  1.27D+00
 FoFJK:  IHMeth= 1 ICntrl=     0 DoSepK=T KAlg= 1 I1Cent= 0 FoldK=F
 E= -2905.42717766026     Delta-E=       -0.000000000065 Rises=F Damp=F
 DIIS: error= 5.07D-08 at cycle   8 NSaved=   8.
 NSaved= 8 IEnMin= 8 EnMin= -2905.42717766026     IErMin= 8 ErrMin= 5.07D-08
 ErrMax= 5.07D-08 EMaxC= 1.00D-01 BMatC= 1.22D-12 BMatP= 3.82D-11
 IDIUse=1 WtCom= 1.00D+00 WtEn= 0.00D+00
 Coeff-Com: -0.104D-04 0.166D-02 0.338D-03-0.817D-02-0.190D-01-0.223D-01
 Coeff-Com:  0.154D+00 0.893D+00
 Coeff:     -0.104D-04 0.166D-02 0.338D-03-0.817D-02-0.190D-01-0.223D-01
 Coeff:      0.154D+00 0.893D+00
 Gap=     0.404 Goal=   None    Shift=    0.000
 RMSDP=1.12D-08 MaxDP=4.94D-07 DE=-6.55D-11 OVMax= 9.02D-07

 Cycle   9  Pass 1  IDiag  1:
 RMSU=  3.85D-09    CP:  1.00D+00  1.17D+00  9.88D-01  1.22D+00  1.02D+00
                    CP:  1.19D+00  1.32D+00  1.23D+00
 FoFJK:  IHMeth= 1 ICntrl=     0 DoSepK=T KAlg= 1 I1Cent= 0 FoldK=F
 E= -2905.42717766028     Delta-E=       -0.000000000023 Rises=F Damp=F
 DIIS: error= 1.67D-08 at cycle   9 NSaved=   9.
 NSaved= 9 IEnMin= 9 EnMin= -2905.42717766028     IErMin= 9 ErrMin= 1.67D-08
 ErrMax= 1.67D-08 EMaxC= 1.00D-01 BMatC= 1.11D-13 BMatP= 1.22D-12
 IDIUse=1 WtCom= 1.00D+00 WtEn= 0.00D+00
 Coeff-Com:  0.147D-05-0.452D-03 0.774D-05 0.276D-02 0.613D-02-0.196D-02
 Coeff-Com: -0.850D-01 0.939D-01 0.985D+00
 Coeff:      0.147D-05-0.452D-03 0.774D-05 0.276D-02 0.613D-02-0.196D-02
 Coeff:     -0.850D-01 0.939D-01 0.985D+00
 Gap=     0.404 Goal=   None    Shift=    0.000
 RMSDP=5.03D-09 MaxDP=2.40D-07 DE=-2.27D-11 OVMax= 3.24D-07

 SCF Done:  E(RwB97XD) =  -2905.42717766     A.U. after    9 cycles
             Convg  =    0.5027D-08             -V/T =  2.0016
 KE= 2.900902419331D+03 PE=-7.215483823302D+03 EE= 1.270602286035D+03
 Leave Link  502 at Thu Apr 16 11:36:48 2020, MaxMem= 1073741824 cpu:     288.1
 (Enter /home/matheus/.gaussian/g09/l108.exe)
 Variable Step   Value    
 -------- ---- -----------
     1       4    6.425069
 Leave Link  108 at Thu Apr 16 11:36:48 2020, MaxMem= 1073741824 cpu:       0.0
 (Enter /home/matheus/.gaussian/g09/l202.exe)
 ---------------------------------------------------------------------------------------------------
                            Z-MATRIX (ANGSTROMS AND DEGREES)
   CD    Cent   Atom    N1       Length/X        N2       Alpha/Y        N3        Beta/Z          J
 ---------------------------------------------------------------------------------------------------
      1      1  O        0   0.000000          0.000000          0.725000
      2      2  O        0   0.000000          0.000000         -0.725000
      3      3  H        0   0.000000         -0.918721          1.023510
      4      4  H        0   0.000000          0.918721         -1.023510
      5      5  Kr       0   0.000000          3.400000          0.000000
 ---------------------------------------------------------------------------------------------------
                         Z-Matrix orientation:                         
 ---------------------------------------------------------------------
 Center     Atomic      Atomic             Coordinates (Angstroms)
 Number     Number       Type             X           Y           Z
 ---------------------------------------------------------------------
[...]
 ErrMax= 6.57D-06 EMaxC= 1.00D-01 BMatC= 7.64D-09 BMatP= 2.44D-08
 IDIUse=1 WtCom= 1.00D+00 WtEn= 0.00D+00
 Coeff-Com: -0.518D-02 0.331D+00 0.675D+00
 Coeff:     -0.518D-02 0.331D+00 0.675D+00
 Gap=     0.406 Goal=   None    Shift=    0.000
 RMSDP=3.46D-07 MaxDP=1.46D-05 DE=-2.74D-08 OVMax= 2.46D-05

 Cycle   4  Pass 1  IDiag  1:
 RMSU=  2.08D-07    CP:  1.00D+00  1.10D+00  9.93D-01
 FoFJK:  IHMeth= 1 ICntrl=     0 DoSepK=T KAlg= 1 I1Cent= 0 FoldK=F
 E= -2905.42720947171     Delta-E=       -0.000000005252 Rises=F Damp=F
 DIIS: error= 3.14D-06 at cycle   4 NSaved=   4.
 NSaved= 4 IEnMin= 4 EnMin= -2905.42720947171     IErMin= 4 ErrMin= 3.14D-06
 ErrMax= 3.14D-06 EMaxC= 1.00D-01 BMatC= 1.60D-09 BMatP= 7.64D-09
 IDIUse=1 WtCom= 1.00D+00 WtEn= 0.00D+00
 Coeff-Com: -0.207D-02 0.642D-01 0.315D+00 0.623D+00
 Coeff:     -0.207D-02 0.642D-01 0.315D+00 0.623D+00
 Gap=     0.406 Goal=   None    Shift=    0.000
 RMSDP=1.71D-07 MaxDP=4.69D-06 DE=-5.25D-09 OVMax= 1.04D-05

 Cycle   5  Pass 1  IDiag  1:
 RMSU=  8.11D-08    CP:  1.00D+00  1.10D+00  1.07D+00  9.08D-01
 FoFJK:  IHMeth= 1 ICntrl=     0 DoSepK=T KAlg= 1 I1Cent= 0 FoldK=F
 E= -2905.42720947282     Delta-E=       -0.000000001117 Rises=F Damp=F
 DIIS: error= 8.01D-07 at cycle   5 NSaved=   5.
 NSaved= 5 IEnMin= 5 EnMin= -2905.42720947282     IErMin= 5 ErrMin= 8.01D-07
 ErrMax= 8.01D-07 EMaxC= 1.00D-01 BMatC= 1.51D-10 BMatP= 1.60D-09
 IDIUse=1 WtCom= 1.00D+00 WtEn= 0.00D+00
 Coeff-Com:  0.353D-03-0.500D-01-0.350D-01 0.219D+00 0.865D+00
 Coeff:      0.353D-03-0.500D-01-0.350D-01 0.219D+00 0.865D+00
 Gap=     0.406 Goal=   None    Shift=    0.000
 RMSDP=8.73D-08 MaxDP=3.59D-06 DE=-1.12D-09 OVMax= 6.50D-06

 Cycle   6  Pass 1  IDiag  1:
 RMSU=  3.11D-08    CP:  1.00D+00  1.10D+00  1.12D+00  1.04D+00  1.07D+00
 FoFJK:  IHMeth= 1 ICntrl=     0 DoSepK=T KAlg= 1 I1Cent= 0 FoldK=F
 E= -2905.42720947297     Delta-E=       -0.000000000149 Rises=F Damp=F
 DIIS: error= 2.28D-07 at cycle   6 NSaved=   6.
 NSaved= 6 IEnMin= 6 EnMin= -2905.42720947297     IErMin= 6 ErrMin= 2.28D-07
 ErrMax= 2.28D-07 EMaxC= 1.00D-01 BMatC= 7.09D-12 BMatP= 1.51D-10
 IDIUse=1 WtCom= 1.00D+00 WtEn= 0.00D+00
 Coeff-Com:  0.195D-03-0.182D-01-0.238D-01 0.446D-01 0.282D+00 0.715D+00
 Coeff:      0.195D-03-0.182D-01-0.238D-01 0.446D-01 0.282D+00 0.715D+00
 Gap=     0.406 Goal=   None    Shift=    0.000
 RMSDP=1.43D-08 MaxDP=6.50D-07 DE=-1.49D-10 OVMax= 1.05D-06

 Cycle   7  Pass 1  IDiag  1:
 RMSU=  7.06D-09    CP:  1.00D+00  1.10D+00  1.12D+00  1.05D+00  1.12D+00
                    CP:  1.10D+00
 FoFJK:  IHMeth= 1 ICntrl=     0 DoSepK=T KAlg= 1 I1Cent= 0 FoldK=F
 E= -2905.42720947299     Delta-E=       -0.000000000014 Rises=F Damp=F
 DIIS: error= 6.44D-08 at cycle   7 NSaved=   7.
 NSaved= 7 IEnMin= 7 EnMin= -2905.42720947299     IErMin= 7 ErrMin= 6.44D-08
 ErrMax= 6.44D-08 EMaxC= 1.00D-01 BMatC= 6.39D-13 BMatP= 7.09D-12
 IDIUse=1 WtCom= 1.00D+00 WtEn= 0.00D+00
 Coeff-Com: -0.188D-04 0.510D-02 0.499D-03-0.305D-01-0.904D-01 0.155D+00
 Coeff-Com:  0.960D+00
 Coeff:     -0.188D-04 0.510D-02 0.499D-03-0.305D-01-0.904D-01 0.155D+00
 Coeff:      0.960D+00
 Gap=     0.406 Goal=   None    Shift=    0.000
 RMSDP=8.62D-09 MaxDP=3.93D-07 DE=-1.36D-11 OVMax= 6.53D-07

 SCF Done:  E(RwB97XD) =  -2905.42720947     A.U. after    7 cycles
             Convg  =    0.8622D-08             -V/T =  2.0016
 KE= 2.900915554729D+03 PE=-7.150553538682D+03 EE= 1.238216431015D+03
 Leave Link  502 at Thu Apr 16 11:43:35 2020, MaxMem= 1073741824 cpu:     148.6
 (Enter /home/matheus/.gaussian/g09/l108.exe)
 Variable Step   Value    
 -------- ---- -----------
     1      20    9.448631
 Leave Link  108 at Thu Apr 16 11:43:35 2020, MaxMem= 1073741824 cpu:       0.0
 (Enter /home/matheus/.gaussian/g09/l202.exe)
 ---------------------------------------------------------------------------------------------------
                            Z-MATRIX (ANGSTROMS AND DEGREES)
   CD    Cent   Atom    N1       Length/X        N2       Alpha/Y        N3        Beta/Z          J
 ---------------------------------------------------------------------------------------------------
      1      1  O        0   0.000000          0.000000          0.725000
      2      2  O        0   0.000000          0.000000         -0.725000
      3      3  H        0   0.000000         -0.918721          1.023510
      4      4  H        0   0.000000          0.918721         -1.023510
      5      5  Kr       0   0.000000          5.000000          0.000000
 ---------------------------------------------------------------------------------------------------
                         Z-Matrix orientation:                         
 ---------------------------------------------------------------------
 Center     Atomic      Atomic             Coordinates (Angstroms)
 Number     Number       Type             X           Y           Z
 ---------------------------------------------------------------------
      1          8           0        0.000000    0.000000    0.725000
      2          8           0        0.000000    0.000000   -0.725000
      3          1           0        0.000000   -0.918721    1.023510
      4          1           0        0.000000    0.918721   -1.023510
      5         36           0        0.000000    5.000000    0.000000
 ---------------------------------------------------------------------
                    Distance matrix (angstroms):
                    1          2          3          4          5
     1  O    0.000000
     2  O    1.450000   0.000000
     3  H    0.966000   1.975180   0.000000
     4  H    1.975180   0.966000   2.750724   0.000000
     5  Kr   5.052289   5.052289   6.006565   4.207661   0.000000
 Stoichiometry    H2KrO2
 Framework group  CS[SG(H2KrO2)]
 Deg. of freedom     7
 Full point group                 CS      NOp   2
 RotChk:  IX=0 Diff= 4.82D-49
 Largest Abelian subgroup         CS      NOp   2
 Largest concise Abelian subgroup C1      NOp   1
                         Standard orientation:                         
 ---------------------------------------------------------------------
 Center     Atomic      Atomic             Coordinates (Angstroms)
 Number     Number       Type             X           Y           Z
 ---------------------------------------------------------------------
      1          8           0        0.725000   -3.333333    0.000000
      2          8           0       -0.725000   -3.333333    0.000000
      3          1           0        1.023510   -4.252054    0.000000
      4          1           0       -1.023510   -2.414613    0.000000
      5         36           0        0.000000    1.666667    0.000000
 ---------------------------------------------------------------------
 Rotational constants (GHZ):     26.7112457      0.8330271      0.8078337
 Leave Link  202 at Thu Apr 16 11:43:35 2020, MaxMem= 1073741824 cpu:       0.0
 (Enter /home/matheus/.gaussian/g09/l301.exe)
 Standard basis: Aug-CC-pVTZ (5D, 7F)
 Ernie: Thresh=  0.10000D-02 Tol=  0.10000D-05 Strict=F.
 Ernie:  38 primitive shells out of 205 were deleted.
 There are   131 symmetry adapted basis functions of A'  symmetry.
 There are    66 symmetry adapted basis functions of A"  symmetry.
 Integral buffers will be    131072 words long.
 Raffenetti 2 integral format.
 Two-electron integral symmetry is turned on.
   197 basis functions,   415 primitive gaussians,   229 cartesian basis functions
    27 alpha electrons       27 beta electrons
       nuclear repulsion energy       104.6300486683 Hartrees.
 IExCor= 4639 DFT=T Ex+Corr=wB97XD ExCW=0 ScaHFX=  1.000000
 ScaDFX=  1.000000  1.000000  1.000000  1.000000 ScalE2=  1.000000  1.000000
 IRadAn=      5 IRanWt=     -1 IRanGd=            0 ICorTp=0
  HFx wShort=  0.000000 wLong=  0.250000 cFull=  0.222036 cShort=  0.000000 cLong=  0.777964
  DFx wShort=  0.000000 wLong=  0.250000 cFull=  0.000000 cShort=  0.000000 cLong=  1.000000
 NAtoms=    5 NActive=    5 NUniq=    5 SFac= 1.00D+00 NAtFMM=   60 NAOKFM=F Big=F
 R6Disp: Dispersion energy =        -0.0004247185 Hartrees.
 Nuclear repulsion after empirical dispersion term =      104.6296239497 Hartrees.
 Leave Link  301 at Thu Apr 16 11:43:35 2020, MaxMem= 1073741824 cpu:       0.2
 (Enter /home/matheus/.gaussian/g09/l302.exe)
 NPDir=0 NMtPBC=     1 NCelOv=     1 NCel=       1 NClECP=     1 NCelD=      1
         NCelK=      1 NCelE2=     1 NClLst=     1 CellRange=     0.0.
 One-electron integrals computed using PRISM.
 NBasis=   197 RedAO= T  NBF=   131    66
 NBsUse=   197 1.00D-06 NBFU=   131    66
 Precomputing XC quadrature grid using
 IXCGrd= 2 IRadAn=           5 IRanWt=          -1 IRanGd=           0 AccXCQ= 0.00D+00.
 NRdTot=     428 NPtTot=      124116 NUsed=      127190 NTot=      127222
 NSgBfM=   229   229   229   229   229 NAtAll=     5     5.
 Leave Link  302 at Thu Apr 16 11:43:35 2020, MaxMem= 1073741824 cpu:       1.1
 (Enter /home/matheus/.gaussian/g09/l303.exe)
 DipDrv:  MaxL=1.
 Leave Link  303 at Thu Apr 16 11:43:35 2020, MaxMem= 1073741824 cpu:       0.2
 (Enter /home/matheus/.gaussian/g09/l401.exe)
 Initial guess read from the read-write file.
 B after Tr=     0.000000    0.000000    0.000000
         Rot=    1.000000    0.000000    0.000000    0.000000 Ang=   0.00 deg.
 Guess basis will be translated and rotated to current coordinates.
 Initial guess orbital symmetries:
       Occupied  (A') (A') (A') (A") (A') (A') (A') (A') (A') (A")
                 (A') (A') (A") (A') (A") (A') (A') (A') (A') (A')
                 (A') (A") (A') (A") (A') (A') (A")
       Virtual   (A') (A') (A') (A') (A") (A') (A') (A') (A') (A")
                 (A') (A') (A') (A") (A") (A') (A') (A") (A') (A")
                 (A') (A') (A') (A") (A') (A') (A') (A') (A") (A')
                 (A') (A') (A') (A") (A") (A') (A') (A') (A") (A")
                 (A') (A") (A') (A") (A') (A') (A') (A") (A') (A')
                 (A") (A') (A') (A") (A') (A") (A') (A') (A") (A')
                 (A") (A') (A") (A') (A') (A') (A") (A") (A') (A')
                 (A') (A') (A") (A") (A') (A') (A') (A") (A') (A')
                 (A") (A') (A') (A") (A") (A') (A") (A') (A') (A')
                 (A') (A") (A') (A") (A') (A") (A') (A') (A') (A")
                 (A') (A") (A') (A") (A') (A") (A') (A') (A') (A")
                 (A") (A') (A') (A") (A') (A') (A') (A') (A") (A')
                 (A') (A') (A") (A") (A') (A") (A") (A') (A") (A')
                 (A") (A') (A') (A') (A') (A') (A') (A') (A") (A")
                 (A') (A') (A') (A") (A') (A') (A") (A') (A") (A')
                 (A") (A') (A") (A") (A") (A') (A") (A") (A') (A')
                 (A') (A") (A') (A') (A') (A') (A') (A') (A') (A')
 The electronic state of the initial guess is 1-A'.
 Generating alternative initial guess.
 Harris functional with IExCor= 4639 diagonalized for initial guess.
 ExpMin= 2.53D-02 ExpMax= 1.17D+07 ExpMxC= 1.33D+04 IAcc=3 IRadAn=         5 AccDes= 0.00D+00
 HarFok:  IExCor= 4639 AccDes= 0.00D+00 IRadAn=         5 IDoV= 1
 ScaDFX=  1.000000  1.000000  1.000000  1.000000
 FoFCou: FMM=F IPFlag=           0 FMFlag=      100000 FMFlg1=           0
         NFxFlg=           0 DoJE=T BraDBF=F KetDBF=T FulRan=T
         Omega=  0.000000  0.000000  1.000000  0.000000  0.000000 ICntrl=     500 IOpCl=  0
         NMat0=    1 NMatS0=    1 NMatT0=    0 NMatD0=    1 NMtDS0=    0 NMtDT0=    0
         I1Cent=           4 NGrid=           0.
 Petite list used in FoFCou.
 Harris En= -2875.40147338663    
 Leave Link  401 at Thu Apr 16 11:43:35 2020, MaxMem= 1073741824 cpu:       3.4
 (Enter /home/matheus/.gaussian/g09/l502.exe)
 Closed shell SCF:
 Requested convergence on RMS density matrix=1.00D-08 within 128 cycles.
 Requested convergence on MAX density matrix=1.00D-06.
 Requested convergence on             energy=1.00D-06.
 No special actions if energy rises.
 Using DIIS extrapolation, IDIIS=  1040.
 Integral symmetry usage will be decided dynamically.
       127132 words used for storage of precomputed grid.
 IEnd=      306144 IEndB=      306144 NGot=  1073741824 MDV=  1073504991
 LenX=  1073504991 LenY=  1073452109
 Fock matrices will be formed incrementally for  20 cycles.

 Cycle   1  Pass 1  IDiag  1:
 FoFJK:  IHMeth= 1 ICntrl=     0 DoSepK=T KAlg= 1 I1Cent= 0 FoldK=F
 FoFCou: FMM=F IPFlag=           0 FMFlag=      100000 FMFlg1=           0
         NFxFlg=           0 DoJE=T BraDBF=F KetDBF=F FulRan=T
         Omega=  0.000000  0.000000  1.000000  0.000000  0.000000 ICntrl=     500 IOpCl=  0
         NMat0=    1 NMatS0=    1 NMatT0=    0 NMatD0=    1 NMtDS0=    0 NMtDT0=    0
         I1Cent=           0 NGrid=           0.
 Petite list used in FoFCou.
 E= -2905.42716393031    
 DIIS: error= 1.30D-04 at cycle   1 NSaved=   1.
 NSaved= 1 IEnMin= 1 EnMin= -2905.42716393031     IErMin= 1 ErrMin= 1.30D-04
 ErrMax= 1.30D-04 EMaxC= 1.00D-01 BMatC= 3.86D-06 BMatP= 3.86D-06
 IDIUse=3 WtCom= 9.99D-01 WtEn= 1.30D-03
 Coeff-Com:  0.100D+01
 Coeff-En:   0.100D+01
 Coeff:      0.100D+01
 Gap=     0.406 Goal=   None    Shift=    0.000
 RMSDP=2.05D-05 MaxDP=7.22D-04              OVMax= 3.96D-04

 Cycle   2  Pass 1  IDiag  1:
 RMSU=  1.45D-05    CP:  1.00D+00
 FoFJK:  IHMeth= 1 ICntrl=     0 DoSepK=T KAlg= 1 I1Cent= 0 FoldK=F
 E= -2905.42716470165     Delta-E=       -0.000000771343 Rises=F Damp=F
 DIIS: error= 1.16D-05 at cycle   2 NSaved=   2.
 NSaved= 2 IEnMin= 2 EnMin= -2905.42716470165     IErMin= 2 ErrMin= 1.16D-05
 ErrMax= 1.16D-05 EMaxC= 1.00D-01 BMatC= 2.00D-08 BMatP= 3.86D-06
 IDIUse=1 WtCom= 1.00D+00 WtEn= 0.00D+00
 Coeff-Com: -0.349D-02 0.100D+01
 Coeff:     -0.349D-02 0.100D+01
 Gap=     0.406 Goal=   None    Shift=    0.000
 RMSDP=2.03D-06 MaxDP=6.09D-05 DE=-7.71D-07 OVMax= 7.64D-05

 Cycle   3  Pass 1  IDiag  1:
 RMSU=  8.00D-07    CP:  1.00D+00  1.08D+00
 FoFJK:  IHMeth= 1 ICntrl=     0 DoSepK=T KAlg= 1 I1Cent= 0 FoldK=F
 E= -2905.42716472392     Delta-E=       -0.000000022264 Rises=F Damp=F
 DIIS: error= 6.12D-06 at cycle   3 NSaved=   3.
 NSaved= 3 IEnMin= 3 EnMin= -2905.42716472392     IErMin= 3 ErrMin= 6.12D-06
 ErrMax= 6.12D-06 EMaxC= 1.00D-01 BMatC= 6.15D-09 BMatP= 2.00D-08
 IDIUse=1 WtCom= 1.00D+00 WtEn= 0.00D+00
 Coeff-Com: -0.486D-02 0.329D+00 0.676D+00
 Coeff:     -0.486D-02 0.329D+00 0.676D+00
 Gap=     0.406 Goal=   None    Shift=    0.000
 RMSDP=2.95D-07 MaxDP=1.27D-05 DE=-2.23D-08 OVMax= 2.18D-05

 Cycle   4  Pass 1  IDiag  1:
 RMSU=  1.83D-07    CP:  1.00D+00  1.09D+00  9.93D-01
 FoFJK:  IHMeth= 1 ICntrl=     0 DoSepK=T KAlg= 1 I1Cent= 0 FoldK=F
 E= -2905.42716472814     Delta-E=       -0.000000004227 Rises=F Damp=F
 DIIS: error= 2.94D-06 at cycle   4 NSaved=   4.
 NSaved= 4 IEnMin= 4 EnMin= -2905.42716472814     IErMin= 4 ErrMin= 2.94D-06
 ErrMax= 2.94D-06 EMaxC= 1.00D-01 BMatC= 1.27D-09 BMatP= 6.15D-09
 IDIUse=1 WtCom= 1.00D+00 WtEn= 0.00D+00
 Coeff-Com: -0.193D-02 0.646D-01 0.314D+00 0.623D+00
 Coeff:     -0.193D-02 0.646D-01 0.314D+00 0.623D+00
 Gap=     0.406 Goal=   None    Shift=    0.000
 RMSDP=1.56D-07 MaxDP=4.44D-06 DE=-4.23D-09 OVMax= 9.36D-06

 Cycle   5  Pass 1  IDiag  1:
 RMSU=  7.33D-08    CP:  1.00D+00  1.09D+00  1.08D+00  9.20D-01
 FoFJK:  IHMeth= 1 ICntrl=     0 DoSepK=T KAlg= 1 I1Cent= 0 FoldK=F
 E= -2905.42716472901     Delta-E=       -0.000000000864 Rises=F Damp=F
 DIIS: error= 7.45D-07 at cycle   5 NSaved=   5.
 NSaved= 5 IEnMin= 5 EnMin= -2905.42716472901     IErMin= 5 ErrMin= 7.45D-07
 ErrMax= 7.45D-07 EMaxC= 1.00D-01 BMatC= 1.24D-10 BMatP= 1.27D-09
 IDIUse=1 WtCom= 1.00D+00 WtEn= 0.00D+00
 Coeff-Com:  0.323D-03-0.488D-01-0.328D-01 0.225D+00 0.857D+00
 Coeff:      0.323D-03-0.488D-01-0.328D-01 0.225D+00 0.857D+00
 Gap=     0.406 Goal=   None    Shift=    0.000
 RMSDP=7.56D-08 MaxDP=3.19D-06 DE=-8.64D-10 OVMax= 5.56D-06

 Cycle   6  Pass 1  IDiag  1:
 RMSU=  2.82D-08    CP:  1.00D+00  1.09D+00  1.12D+00  1.05D+00  1.06D+00
 FoFJK:  IHMeth= 1 ICntrl=     0 DoSepK=T KAlg= 1 I1Cent= 0 FoldK=F
 E= -2905.42716472915     Delta-E=       -0.000000000141 Rises=F Damp=F
 DIIS: error= 2.08D-07 at cycle   6 NSaved=   6.
 NSaved= 6 IEnMin= 6 EnMin= -2905.42716472915     IErMin= 6 ErrMin= 2.08D-07
 ErrMax= 2.08D-07 EMaxC= 1.00D-01 BMatC= 5.93D-12 BMatP= 1.24D-10
 IDIUse=1 WtCom= 1.00D+00 WtEn= 0.00D+00
 Coeff-Com:  0.184D-03-0.181D-01-0.235D-01 0.464D-01 0.283D+00 0.712D+00
 Coeff:      0.184D-03-0.181D-01-0.235D-01 0.464D-01 0.283D+00 0.712D+00
 Gap=     0.406 Goal=   None    Shift=    0.000
 RMSDP=1.30D-08 MaxDP=5.98D-07 DE=-1.41D-10 OVMax= 9.20D-07

 Cycle   7  Pass 1  IDiag  1:
 RMSU=  6.62D-09    CP:  1.00D+00  1.09D+00  1.12D+00  1.06D+00  1.11D+00
                    CP:  1.10D+00
 FoFJK:  IHMeth= 1 ICntrl=     0 DoSepK=T KAlg= 1 I1Cent= 0 FoldK=F
 E= -2905.42716472915     Delta-E=        0.000000000001 Rises=F Damp=F
 DIIS: error= 5.83D-08 at cycle   7 NSaved=   7.
 NSaved= 7 IEnMin= 6 EnMin= -2905.42716472915     IErMin= 7 ErrMin= 5.83D-08
 ErrMax= 5.83D-08 EMaxC= 1.00D-01 BMatC= 5.14D-13 BMatP= 5.93D-12
 IDIUse=1 WtCom= 1.00D+00 WtEn= 0.00D+00
 Coeff-Com: -0.169D-04 0.497D-02 0.334D-03-0.310D-01-0.895D-01 0.149D+00
 Coeff-Com:  0.967D+00
 Coeff:     -0.169D-04 0.497D-02 0.334D-03-0.310D-01-0.895D-01 0.149D+00
 Coeff:      0.967D+00
 Gap=     0.406 Goal=   None    Shift=    0.000
 RMSDP=7.81D-09 MaxDP=3.66D-07 DE= 9.09D-13 OVMax= 5.80D-07

 SCF Done:  E(RwB97XD) =  -2905.42716473     A.U. after    7 cycles
             Convg  =    0.7810D-08             -V/T =  2.0016
 KE= 2.900916046152D+03 PE=-7.147830251721D+03 EE= 1.236857416890D+03
 Leave Link  502 at Thu Apr 16 11:43:54 2020, MaxMem= 1073741824 cpu:     146.3
 (Enter /home/matheus/.gaussian/g09/l108.exe)
 Scan completed.

 Summary of the potential surface scan:
   N      R1          SCF    
 ----  ---------  -----------
    1     3.0000  -2905.42371
    2     3.1000  -2905.42538
    3     3.2000  -2905.42648
    4     3.3000  -2905.42718
    5     3.4000  -2905.42760
    6     3.5000  -2905.42784
    7     3.6000  -2905.42795
    8     3.7000  -2905.42798
    9     3.8000  -2905.42796
   10     3.9000  -2905.42791
   11     4.0000  -2905.42784
   12     4.1000  -2905.42776
   13     4.2000  -2905.42768
   14     4.3000  -2905.42760
   15     4.4000  -2905.42752
   16     4.5000  -2905.42745
   17     4.6000  -2905.42738
   18     4.7000  -2905.42731
   19     4.8000  -2905.42726
   20     4.9000  -2905.42721
   21     5.0000  -2905.42716
 ----  ---------  -----------
  
 Leave Link  108 at Thu Apr 16 11:43:54 2020, MaxMem= 1073741824 cpu:       0.0
 (Enter /home/matheus/.gaussian/g09/l9999.exe)

 Test job not archived.
 1\1\GINC-REDGIANT\Scan\RwB97XD\Aug-CC-pVTZ\H2Kr1O2\ROOT\16-Apr-2020\1\
 \#p wb97xd/aug-cc-PVTz iop(3/107=0250000000) iop(3/108=0250000000) int
 =ultrafine Scan\\TCC\\0,1\O,0,0.,0.,0.725\O,0,0.,0.,-0.725\H,0,0.,-0.9
 187205947,1.0235104166\H,0,0.,0.9187205947,-1.0235104166\Kr,0,0.,R1,0.
 \\R1=3.,s,20,0.1\\Version=EM64L-G09RevC.01\State=1-A'\HF=-2905.4237072
 ,-2905.4253796,-2905.4264777,-2905.4271777,-2905.427599,-2905.4278395,
 -2905.427946,-2905.4279765,-2905.4279589,-2905.4279062,-2905.4278367,-
 2905.427759,-2905.427678,-2905.4275953,-2905.4275185,-2905.4274459,-29
 05.4273766,-2905.4273148,-2905.42726,-2905.4272095,-2905.4271647\RMSD=
 6.437e-09,6.265e-09,5.672e-09,5.027e-09,4.271e-09,9.858e-09,9.110e-09,
 8.433e-09,7.265e-09,6.517e-09,5.351e-09,4.455e-09,3.613e-09,2.784e-09,
 2.072e-09,1.588e-09,1.206e-09,1.007e-09,9.864e-09,8.622e-09,7.810e-09\
 PG=CS [SG(H2Kr1O2)]\\@


 MATERIAL COPIED FROM ONE SCHOLARLY BOOK WITHOUT CREDIT COMPRISES PLAGIARISM.
 MATERIAL COPIED FROM TWO SCHOLARLY BOOKS COMPRISES AN ESSAY.
 MATERIAL COPIED FROM THREE SCHOLARLY BOOKS COMPRISES A DISSERTATION.
 MATERIAL COPIED FROM FOUR SCHOLARLY BOOKS COMPRISES A FIFTH SCHOLARLY BOOK.

                               -- C&EN, 25 FEB 1980
 Job cpu time:  0 days  1 hours 18 minutes  3.1 seconds.
 File lengths (MBytes):  RWF=     27 Int=      0 D2E=      0 Chk=      4 Scr=      1
 Normal termination of Gaussian 09 at Thu Apr 16 11:43:54 2020.
