 Entering Gaussian System, Link 0=g09
 Input=/home/matheus/.tcc/Inputs-wb97xd/H2O2-Kr_20.com
 Output=/home/matheus/.tcc/Logs-wb97xd/H2O2-Kr_20.log
 Initial command:
 /home/matheus/.gaussian/g09/l1.exe /home/matheus/.gaussian/g09/scratch/Gau-12597.inp -scrdir=/home/matheus/.gaussian/g09/scratch/
 Entering Link 1 = /home/matheus/.gaussian/g09/l1.exe PID=     12600.
  
 Copyright (c) 1988,1990,1992,1993,1995,1998,2003,2009,2011,
            Gaussian, Inc.  All Rights Reserved.
  
 This is part of the Gaussian(R) 09 program.  It is based on
 the Gaussian(R) 03 system (copyright 2003, Gaussian, Inc.),
 the Gaussian(R) 98 system (copyright 1998, Gaussian, Inc.),
 the Gaussian(R) 94 system (copyright 1995, Gaussian, Inc.),
 the Gaussian 92(TM) system (copyright 1992, Gaussian, Inc.),
 the Gaussian 90(TM) system (copyright 1990, Gaussian, Inc.),
 the Gaussian 88(TM) system (copyright 1988, Gaussian, Inc.),
 the Gaussian 86(TM) system (copyright 1986, Carnegie Mellon
 University), and the Gaussian 82(TM) system (copyright 1983,
 Carnegie Mellon University). Gaussian is a federally registered
 trademark of Gaussian, Inc.
  
 This software contains proprietary and confidential information,
 including trade secrets, belonging to Gaussian, Inc.
  
 This software is provided under written license and may be
 used, copied, transmitted, or stored only in accord with that
 written license.
  
 The following legend is applicable only to US Government
 contracts under FAR:
  
                    RESTRICTED RIGHTS LEGEND
  
 Use, reproduction and disclosure by the US Government is
 subject to restrictions as set forth in subparagraphs (a)
 and (c) of the Commercial Computer Software - Restricted
 Rights clause in FAR 52.227-19.
  
 Gaussian, Inc.
 340 Quinnipiac St., Bldg. 40, Wallingford CT 06492
  
  
 ---------------------------------------------------------------
 Warning -- This program may not be used in any manner that
 competes with the business of Gaussian, Inc. or will provide
 assistance to any competitor of Gaussian, Inc.  The licensee
 of this program is prohibited from giving any competitor of
 Gaussian, Inc. access to this program.  By using this program,
 the user acknowledges that Gaussian, Inc. is engaged in the
 business of creating and licensing software in the field of
 computational chemistry and represents and warrants to the
 licensee that it is not a competitor of Gaussian, Inc. and that
 it will not use this program in any manner prohibited above.
 ---------------------------------------------------------------
  

 Cite this work as:
 Gaussian 09, Revision C.01,
 M. J. Frisch, G. W. Trucks, H. B. Schlegel, G. E. Scuseria, 
 M. A. Robb, J. R. Cheeseman, G. Scalmani, V. Barone, B. Mennucci, 
 G. A. Petersson, H. Nakatsuji, M. Caricato, X. Li, H. P. Hratchian, 
 A. F. Izmaylov, J. Bloino, G. Zheng, J. L. Sonnenberg, M. Hada, 
 M. Ehara, K. Toyota, R. Fukuda, J. Hasegawa, M. Ishida, T. Nakajima, 
 Y. Honda, O. Kitao, H. Nakai, T. Vreven, J. A. Montgomery, Jr., 
 J. E. Peralta, F. Ogliaro, M. Bearpark, J. J. Heyd, E. Brothers, 
 K. N. Kudin, V. N. Staroverov, T. Keith, R. Kobayashi, J. Normand, 
 K. Raghavachari, A. Rendell, J. C. Burant, S. S. Iyengar, J. Tomasi, 
 M. Cossi, N. Rega, J. M. Millam, M. Klene, J. E. Knox, J. B. Cross, 
 V. Bakken, C. Adamo, J. Jaramillo, R. Gomperts, R. E. Stratmann, 
 O. Yazyev, A. J. Austin, R. Cammi, C. Pomelli, J. W. Ochterski, 
 R. L. Martin, K. Morokuma, V. G. Zakrzewski, G. A. Voth, 
 P. Salvador, J. J. Dannenberg, S. Dapprich, A. D. Daniels, 
 O. Farkas, J. B. Foresman, J. V. Ortiz, J. Cioslowski, 
 and D. J. Fox, Gaussian, Inc., Wallingford CT, 2010.
 
 ******************************************
 Gaussian 09:  EM64L-G09RevC.01 23-Sep-2011
                16-Apr-2020 
 ******************************************
 %mem=8GB
 %nproc=8
 Will use up to    8 processors via shared memory.
 ----------------------------------------------------------------------
 #p wb97xd/aug-cc-PVTz iop(3/107=0250000000) iop(3/108=0250000000) int=
 ultrafine Scan
 ----------------------------------------------------------------------
 1/38=1,60=1/1,8;
 2/12=2,17=6,18=5,29=3,40=1/2;
 3/5=16,6=1,7=10,11=2,16=1,25=1,30=1,74=-58,75=-5,107=250000000,108=250000000/1,2,3;
 4//1;
 5/5=2,38=5/2;
 6/7=2,8=2,9=2,10=2,18=1,28=1/1;
 1/60=1/8(1);
 99/9=1/99;
 2/29=3/2;
 3/5=16,6=1,7=10,11=2,16=1,25=1,30=1,74=-58,75=-5,107=250000000,108=250000000/1,2,3;
 4/5=5,16=3/1;
 5/5=2,38=5/2;
 1/60=1/8(-4);
 99/9=1/99;
 Leave Link    1 at Thu Apr 16 11:52:54 2020, MaxMem= 1073741824 cpu:       0.1
 (Enter /home/matheus/.gaussian/g09/l101.exe)
 ---
 TCC
 ---
 Charge =  0 Multiplicity = 1
 Symbolic Z-Matrix:
 O                     0.        0.        0.725 
 O                     0.        0.       -0.725 
 H                    -0.31422  -0.86331   1.02351 
 H                     0.        0.91872  -1.02351 
 Kr                    0.       R1        0. 
       Variables:
  R1                    3.     Scan 20    0.1    
 
 NAtoms=      5 NQM=        0 NQMF=       0 NMMI=      5 NMMIF=      0
                NMic=       0 NMicF=      0.
                    Isotopes and Nuclear Properties:
 (Nuclear quadrupole moments (NQMom) in fm**2, nuclear magnetic moments (NMagM)
  in nuclear magnetons)

  Atom         1           2           3           4           5
 IAtWgt=          16          16           1           1          84
 AtmWgt=  15.9949146  15.9949146   1.0078250   1.0078250  83.9115064
 NucSpn=           0           0           1           1           0
 AtZEff=   0.0000000   0.0000000   0.0000000   0.0000000   0.0000000
 NQMom=    0.0000000   0.0000000   0.0000000   0.0000000   0.0000000
 NMagM=    0.0000000   0.0000000   2.7928460   2.7928460   0.0000000
 Leave Link  101 at Thu Apr 16 11:52:54 2020, MaxMem= 1073741824 cpu:       0.3
 (Enter /home/matheus/.gaussian/g09/l108.exe)
 Scan the potential surface.
 Variable   Value     No. Steps Step-Size
 -------- ----------- --------- ---------
     1       3.000000      20      0.1000
 A total of     21 points will be computed.
 Leave Link  108 at Thu Apr 16 11:52:54 2020, MaxMem= 1073741824 cpu:       0.0
 (Enter /home/matheus/.gaussian/g09/l202.exe)
 ---------------------------------------------------------------------------------------------------
                            Z-MATRIX (ANGSTROMS AND DEGREES)
   CD    Cent   Atom    N1       Length/X        N2       Alpha/Y        N3        Beta/Z          J
 ---------------------------------------------------------------------------------------------------
      1      1  O        0   0.000000          0.000000          0.725000
      2      2  O        0   0.000000          0.000000         -0.725000
      3      3  H        0  -0.314221         -0.863315          1.023510
      4      4  H        0   0.000000          0.918721         -1.023510
      5      5  Kr       0   0.000000          3.000000          0.000000
 ---------------------------------------------------------------------------------------------------
                         Z-Matrix orientation:                         
 ---------------------------------------------------------------------
 Center     Atomic      Atomic             Coordinates (Angstroms)
 Number     Number       Type             X           Y           Z
 ---------------------------------------------------------------------
      1          8           0        0.000000    0.000000    0.725000
      2          8           0        0.000000    0.000000   -0.725000
      3          1           0       -0.314221   -0.863315    1.023510
      4          1           0        0.000000    0.918721   -1.023510
      5         36           0        0.000000    3.000000    0.000000
 ---------------------------------------------------------------------
                    Distance matrix (angstroms):
                    1          2          3          4          5
     1  O    0.000000
     2  O    1.450000   0.000000
     3  H    0.966000   1.975180   0.000000
     4  H    1.975180   0.966000   2.732157   0.000000
     5  Kr   3.086361   3.086361   4.008929   2.319331   0.000000
 Stoichiometry    H2KrO2
 Framework group  C1[X(H2KrO2)]
 Deg. of freedom     9
 Full point group                 C1      NOp   1
 Largest Abelian subgroup         C1      NOp   1
 Largest concise Abelian subgroup C1      NOp   1
                         Standard orientation:                         
 ---------------------------------------------------------------------
 Center     Atomic      Atomic             Coordinates (Angstroms)
 Number     Number       Type             X           Y           Z
 ---------------------------------------------------------------------
      1          8           0       -2.013955   -0.686971   -0.042678
      2          8           0       -1.987181    0.762152    0.000071
      3          1           0       -2.885209   -0.978373    0.255914
      4          1           0       -1.063137    1.043301    0.015982
      5         36           0        0.998818   -0.018511    0.001916
 ---------------------------------------------------------------------
 Rotational constants (GHZ):     26.5935251      2.3048996      2.1226538
 Leave Link  202 at Thu Apr 16 11:52:54 2020, MaxMem= 1073741824 cpu:       0.0
 (Enter /home/matheus/.gaussian/g09/l301.exe)
 Standard basis: Aug-CC-pVTZ (5D, 7F)
 Ernie: Thresh=  0.10000D-02 Tol=  0.10000D-05 Strict=F.
 Ernie:  38 primitive shells out of 205 were deleted.
 There are   197 symmetry adapted basis functions of A   symmetry.
 Integral buffers will be    131072 words long.
 Raffenetti 2 integral format.
 Two-electron integral symmetry is turned on.
   197 basis functions,   415 primitive gaussians,   229 cartesian basis functions
    27 alpha electrons       27 beta electrons
       nuclear repulsion energy       148.3266950462 Hartrees.
 IExCor= 4639 DFT=T Ex+Corr=wB97XD ExCW=0 ScaHFX=  1.000000
 ScaDFX=  1.000000  1.000000  1.000000  1.000000 ScalE2=  1.000000  1.000000
 IRadAn=      5 IRanWt=     -1 IRanGd=            0 ICorTp=0
  HFx wShort=  0.000000 wLong=  0.250000 cFull=  0.222036 cShort=  0.000000 cLong=  0.777964
  DFx wShort=  0.000000 wLong=  0.250000 cFull=  0.000000 cShort=  0.000000 cLong=  1.000000
 NAtoms=    5 NActive=    5 NUniq=    5 SFac= 1.00D+00 NAtFMM=   60 NAOKFM=F Big=F
 R6Disp: Dispersion energy =        -0.0007733935 Hartrees.
 Nuclear repulsion after empirical dispersion term =      148.3259216527 Hartrees.
 Leave Link  301 at Thu Apr 16 11:52:54 2020, MaxMem= 1073741824 cpu:       0.2
 (Enter /home/matheus/.gaussian/g09/l302.exe)
 NPDir=0 NMtPBC=     1 NCelOv=     1 NCel=       1 NClECP=     1 NCelD=      1
         NCelK=      1 NCelE2=     1 NClLst=     1 CellRange=     0.0.
 One-electron integrals computed using PRISM.
 NBasis=   197 RedAO= T  NBF=   197
 NBsUse=   197 1.00D-06 NBFU=   197
 Precomputing XC quadrature grid using
 IXCGrd= 2 IRadAn=           5 IRanWt=          -1 IRanGd=           0 AccXCQ= 0.00D+00.
 NRdTot=     427 NPtTot=      123814 NUsed=      126881 NTot=      126913
 NSgBfM=   229   229   229   229   229 NAtAll=     5     5.
 Leave Link  302 at Thu Apr 16 11:52:54 2020, MaxMem= 1073741824 cpu:       1.3
 (Enter /home/matheus/.gaussian/g09/l303.exe)
 DipDrv:  MaxL=1.
 Leave Link  303 at Thu Apr 16 11:52:54 2020, MaxMem= 1073741824 cpu:       0.2
 (Enter /home/matheus/.gaussian/g09/l401.exe)
 Harris functional with IExCor= 4639 diagonalized for initial guess.
 ExpMin= 2.53D-02 ExpMax= 1.17D+07 ExpMxC= 1.33D+04 IAcc=3 IRadAn=         5 AccDes= 0.00D+00
 HarFok:  IExCor= 4639 AccDes= 0.00D+00 IRadAn=         5 IDoV= 1
 ScaDFX=  1.000000  1.000000  1.000000  1.000000
 FoFCou: FMM=F IPFlag=           0 FMFlag=      100000 FMFlg1=           0
         NFxFlg=           0 DoJE=T BraDBF=F KetDBF=T FulRan=T
         Omega=  0.000000  0.000000  1.000000  0.000000  0.000000 ICntrl=     500 IOpCl=  0
         NMat0=    1 NMatS0=    1 NMatT0=    0 NMatD0=    1 NMtDS0=    0 NMtDT0=    0
         I1Cent=           4 NGrid=           0.
 Petite list used in FoFCou.
 Harris En= -2875.39374639361    
 Initial guess orbital symmetries:
       Occupied  (A) (A) (A) (A) (A) (A) (A) (A) (A) (A) (A) (A)
                 (A) (A) (A) (A) (A) (A) (A) (A) (A) (A) (A) (A)
                 (A) (A) (A)
       Virtual   (A) (A) (A) (A) (A) (A) (A) (A) (A) (A) (A) (A)
                 (A) (A) (A) (A) (A) (A) (A) (A) (A) (A) (A) (A)
                 (A) (A) (A) (A) (A) (A) (A) (A) (A) (A) (A) (A)
                 (A) (A) (A) (A) (A) (A) (A) (A) (A) (A) (A) (A)
                 (A) (A) (A) (A) (A) (A) (A) (A) (A) (A) (A) (A)
                 (A) (A) (A) (A) (A) (A) (A) (A) (A) (A) (A) (A)
                 (A) (A) (A) (A) (A) (A) (A) (A) (A) (A) (A) (A)
                 (A) (A) (A) (A) (A) (A) (A) (A) (A) (A) (A) (A)
                 (A) (A) (A) (A) (A) (A) (A) (A) (A) (A) (A) (A)
                 (A) (A) (A) (A) (A) (A) (A) (A) (A) (A) (A) (A)
                 (A) (A) (A) (A) (A) (A) (A) (A) (A) (A) (A) (A)
                 (A) (A) (A) (A) (A) (A) (A) (A) (A) (A) (A) (A)
                 (A) (A) (A) (A) (A) (A) (A) (A) (A) (A) (A) (A)
                 (A) (A) (A) (A) (A) (A) (A) (A) (A) (A) (A) (A)
                 (A) (A)
 The electronic state of the initial guess is 1-A.
 Leave Link  401 at Thu Apr 16 11:52:54 2020, MaxMem= 1073741824 cpu:       4.8
 (Enter /home/matheus/.gaussian/g09/l502.exe)
 Closed shell SCF:
 Requested convergence on RMS density matrix=1.00D-08 within 128 cycles.
 Requested convergence on MAX density matrix=1.00D-06.
 Requested convergence on             energy=1.00D-06.
 No special actions if energy rises.
 Using DIIS extrapolation, IDIIS=  1040.
 Integral symmetry usage will be decided dynamically.
       126823 words used for storage of precomputed grid.
 IEnd=      305770 IEndB=      305770 NGot=  1073741824 MDV=  1073505365
 LenX=  1073505365 LenY=  1073452483
 Fock matrices will be formed incrementally for  20 cycles.

 Cycle   1  Pass 1  IDiag  1:
 FoFJK:  IHMeth= 1 ICntrl=     0 DoSepK=T KAlg= 1 I1Cent= 0 FoldK=F
 FoFCou: FMM=F IPFlag=           0 FMFlag=      100000 FMFlg1=           0
         NFxFlg=           0 DoJE=T BraDBF=F KetDBF=F FulRan=T
         Omega=  0.000000  0.000000  1.000000  0.000000  0.000000 ICntrl=     500 IOpCl=  0
         NMat0=    1 NMatS0=    1 NMatT0=    0 NMatD0=    1 NMtDS0=    0 NMtDT0=    0
         I1Cent=           0 NGrid=           0.
 Symmetry not used in FoFCou.
 E= -2904.90140790357    
 DIIS: error= 7.42D-02 at cycle   1 NSaved=   1.
 NSaved= 1 IEnMin= 1 EnMin= -2904.90140790357     IErMin= 1 ErrMin= 7.42D-02
 ErrMax= 7.42D-02 EMaxC= 1.00D-01 BMatC= 2.21D+00 BMatP= 2.21D+00
 IDIUse=3 WtCom= 2.58D-01 WtEn= 7.42D-01
 Coeff-Com:  0.100D+01
 Coeff-En:   0.100D+01
 Coeff:      0.100D+01
 Gap=     0.530 Goal=   None    Shift=    0.000
 GapD=    0.530 DampG=2.000 DampE=0.500 DampFc=1.0000 IDamp=-1.
 RMSDP=6.13D-03 MaxDP=3.66D-01              OVMax= 1.77D-01

 Cycle   2  Pass 1  IDiag  1:
 RMSU=  4.30D-03    CP:  1.03D+00
 FoFJK:  IHMeth= 1 ICntrl=     0 DoSepK=T KAlg= 1 I1Cent= 0 FoldK=F
 E= -2905.22049086072     Delta-E=       -0.319082957154 Rises=F Damp=F
 DIIS: error= 3.57D-02 at cycle   2 NSaved=   2.
 NSaved= 2 IEnMin= 2 EnMin= -2905.22049086072     IErMin= 2 ErrMin= 3.57D-02
 ErrMax= 3.57D-02 EMaxC= 1.00D-01 BMatC= 5.65D-01 BMatP= 2.21D+00
 IDIUse=3 WtCom= 6.43D-01 WtEn= 3.57D-01
 Coeff-Com:  0.328D+00 0.672D+00
 Coeff-En:   0.199D+00 0.801D+00
 Coeff:      0.282D+00 0.718D+00
 Gap=     0.470 Goal=   None    Shift=    0.000
 RMSDP=2.70D-03 MaxDP=1.58D-01 DE=-3.19D-01 OVMax= 7.41D-02

 Cycle   3  Pass 1  IDiag  1:
 RMSU=  5.78D-04    CP:  1.02D+00  5.80D-01
 FoFJK:  IHMeth= 1 ICntrl=     0 DoSepK=T KAlg= 1 I1Cent= 0 FoldK=F
 E= -2905.41422712355     Delta-E=       -0.193736262824 Rises=F Damp=F
 DIIS: error= 7.02D-03 at cycle   3 NSaved=   3.
 NSaved= 3 IEnMin= 3 EnMin= -2905.41422712355     IErMin= 3 ErrMin= 7.02D-03
 ErrMax= 7.02D-03 EMaxC= 1.00D-01 BMatC= 1.99D-02 BMatP= 5.65D-01
 IDIUse=3 WtCom= 9.30D-01 WtEn= 7.02D-02
 Coeff-Com:  0.325D-01 0.192D+00 0.775D+00
 Coeff-En:   0.000D+00 0.000D+00 0.100D+01
 Coeff:      0.302D-01 0.179D+00 0.791D+00
 Gap=     0.423 Goal=   None    Shift=    0.000
 RMSDP=4.88D-04 MaxDP=1.83D-02 DE=-1.94D-01 OVMax= 2.66D-02

 Cycle   4  Pass 1  IDiag  1:
 RMSU=  2.29D-04    CP:  1.02D+00  6.39D-01  9.03D-01
 FoFJK:  IHMeth= 1 ICntrl=     0 DoSepK=T KAlg= 1 I1Cent= 0 FoldK=F
 E= -2905.42317284205     Delta-E=       -0.008945718507 Rises=F Damp=F
 DIIS: error= 2.70D-03 at cycle   4 NSaved=   4.
 NSaved= 4 IEnMin= 4 EnMin= -2905.42317284205     IErMin= 4 ErrMin= 2.70D-03
 ErrMax= 2.70D-03 EMaxC= 1.00D-01 BMatC= 1.75D-03 BMatP= 1.99D-02
 IDIUse=3 WtCom= 9.73D-01 WtEn= 2.70D-02
 Coeff-Com: -0.254D-02 0.506D-01 0.369D+00 0.583D+00
 Coeff-En:   0.000D+00 0.000D+00 0.000D+00 0.100D+01
 Coeff:     -0.247D-02 0.492D-01 0.359D+00 0.594D+00
 Gap=     0.408 Goal=   None    Shift=    0.000
 RMSDP=1.13D-04 MaxDP=6.26D-03 DE=-8.95D-03 OVMax= 6.96D-03

 Cycle   5  Pass 1  IDiag  1:
 RMSU=  4.10D-05    CP:  1.02D+00  6.38D-01  9.49D-01  7.28D-01
 FoFJK:  IHMeth= 1 ICntrl=     0 DoSepK=T KAlg= 1 I1Cent= 0 FoldK=F
 E= -2905.42422192747     Delta-E=       -0.001049085411 Rises=F Damp=F
 DIIS: error= 3.17D-04 at cycle   5 NSaved=   5.
 NSaved= 5 IEnMin= 5 EnMin= -2905.42422192747     IErMin= 5 ErrMin= 3.17D-04
 ErrMax= 3.17D-04 EMaxC= 1.00D-01 BMatC= 2.72D-05 BMatP= 1.75D-03
 IDIUse=3 WtCom= 9.97D-01 WtEn= 3.17D-03
 Coeff-Com: -0.155D-02 0.118D-01 0.105D+00 0.192D+00 0.693D+00
 Coeff-En:   0.000D+00 0.000D+00 0.000D+00 0.000D+00 0.100D+01
 Coeff:     -0.155D-02 0.118D-01 0.104D+00 0.191D+00 0.694D+00
 Gap=     0.406 Goal=   None    Shift=    0.000
 RMSDP=2.38D-05 MaxDP=9.60D-04 DE=-1.05D-03 OVMax= 1.69D-03

 Cycle   6  Pass 1  IDiag  1:
 RMSU=  1.50D-05    CP:  1.02D+00  6.38D-01  9.57D-01  7.51D-01  1.07D+00
 FoFJK:  IHMeth= 1 ICntrl=     0 DoSepK=T KAlg= 1 I1Cent= 0 FoldK=F
 E= -2905.42423627479     Delta-E=       -0.000014347323 Rises=F Damp=F
 DIIS: error= 2.00D-04 at cycle   6 NSaved=   6.
 NSaved= 6 IEnMin= 6 EnMin= -2905.42423627479     IErMin= 6 ErrMin= 2.00D-04
 ErrMax= 2.00D-04 EMaxC= 1.00D-01 BMatC= 1.02D-05 BMatP= 2.72D-05
 IDIUse=3 WtCom= 9.98D-01 WtEn= 2.00D-03
 Coeff-Com: -0.230D-03-0.664D-02-0.357D-01-0.473D-01 0.386D+00 0.704D+00
 Coeff-En:   0.000D+00 0.000D+00 0.000D+00 0.000D+00 0.177D+00 0.823D+00
 Coeff:     -0.230D-03-0.663D-02-0.357D-01-0.472D-01 0.385D+00 0.705D+00
 Gap=     0.406 Goal=   None    Shift=    0.000
 RMSDP=1.36D-05 MaxDP=4.51D-04 DE=-1.43D-05 OVMax= 7.87D-04

 Cycle   7  Pass 1  IDiag  1:
 RMSU=  3.72D-06    CP:  1.02D+00  6.38D-01  9.65D-01  7.64D-01  1.23D+00
                    CP:  8.78D-01
 FoFJK:  IHMeth= 1 ICntrl=     0 DoSepK=T KAlg= 1 I1Cent= 0 FoldK=F
 E= -2905.42424381025     Delta-E=       -0.000007535462 Rises=F Damp=F
 DIIS: error= 1.66D-05 at cycle   7 NSaved=   7.
 NSaved= 7 IEnMin= 7 EnMin= -2905.42424381025     IErMin= 7 ErrMin= 1.66D-05
 ErrMax= 1.66D-05 EMaxC= 1.00D-01 BMatC= 5.15D-08 BMatP= 1.02D-05
 IDIUse=1 WtCom= 1.00D+00 WtEn= 0.00D+00
 Coeff-Com:  0.390D-04-0.706D-03-0.520D-02-0.773D-02-0.210D-01 0.194D-01
 Coeff-Com:  0.102D+01
 Coeff:      0.390D-04-0.706D-03-0.520D-02-0.773D-02-0.210D-01 0.194D-01
 Coeff:      0.102D+01
 Gap=     0.406 Goal=   None    Shift=    0.000
 RMSDP=2.85D-06 MaxDP=1.11D-04 DE=-7.54D-06 OVMax= 1.98D-04

 Cycle   8  Pass 1  IDiag  1:
 RMSU=  7.98D-07    CP:  1.02D+00  6.38D-01  9.66D-01  7.68D-01  1.26D+00
                    CP:  9.34D-01  1.21D+00
 FoFJK:  IHMeth= 1 ICntrl=     0 DoSepK=T KAlg= 1 I1Cent= 0 FoldK=F
 E= -2905.42424393203     Delta-E=       -0.000000121780 Rises=F Damp=F
 DIIS: error= 2.88D-06 at cycle   8 NSaved=   8.
 NSaved= 8 IEnMin= 8 EnMin= -2905.42424393203     IErMin= 8 ErrMin= 2.88D-06
 ErrMax= 2.88D-06 EMaxC= 1.00D-01 BMatC= 2.76D-09 BMatP= 5.15D-08
 IDIUse=1 WtCom= 1.00D+00 WtEn= 0.00D+00
 Coeff-Com:  0.953D-05 0.192D-03 0.988D-03 0.922D-03-0.166D-01-0.260D-01
 Coeff-Com:  0.402D-01 0.100D+01
 Coeff:      0.953D-05 0.192D-03 0.988D-03 0.922D-03-0.166D-01-0.260D-01
 Coeff:      0.402D-01 0.100D+01
 Gap=     0.406 Goal=   None    Shift=    0.000
 RMSDP=5.99D-07 MaxDP=2.11D-05 DE=-1.22D-07 OVMax= 4.66D-05

 Cycle   9  Pass 1  IDiag  1:
 RMSU=  1.73D-07    CP:  1.02D+00  6.38D-01  9.66D-01  7.68D-01  1.26D+00
                    CP:  9.44D-01  1.28D+00  1.22D+00
 FoFJK:  IHMeth= 1 ICntrl=     0 DoSepK=T KAlg= 1 I1Cent= 0 FoldK=F
 E= -2905.42424393883     Delta-E=       -0.000000006803 Rises=F Damp=F
 DIIS: error= 7.51D-07 at cycle   9 NSaved=   9.
 NSaved= 9 IEnMin= 9 EnMin= -2905.42424393883     IErMin= 9 ErrMin= 7.51D-07
 ErrMax= 7.51D-07 EMaxC= 1.00D-01 BMatC= 2.36D-10 BMatP= 2.76D-09
 IDIUse=1 WtCom= 1.00D+00 WtEn= 0.00D+00
 Coeff-Com: -0.168D-05 0.631D-04 0.423D-03 0.455D-03 0.107D-03-0.252D-02
 Coeff-Com: -0.626D-01 0.652D-01 0.999D+00
 Coeff:     -0.168D-05 0.631D-04 0.423D-03 0.455D-03 0.107D-03-0.252D-02
 Coeff:     -0.626D-01 0.652D-01 0.999D+00
 Gap=     0.406 Goal=   None    Shift=    0.000
 RMSDP=1.42D-07 MaxDP=4.07D-06 DE=-6.80D-09 OVMax= 1.29D-05

 Cycle  10  Pass 1  IDiag  1:
 RMSU=  5.38D-08    CP:  1.02D+00  6.38D-01  9.66D-01  7.68D-01  1.26D+00
                    CP:  9.46D-01  1.29D+00  1.29D+00  1.22D+00
 FoFJK:  IHMeth= 1 ICntrl=     0 DoSepK=T KAlg= 1 I1Cent= 0 FoldK=F
 E= -2905.42424393941     Delta-E=       -0.000000000576 Rises=F Damp=F
 DIIS: error= 2.13D-07 at cycle  10 NSaved=  10.
 NSaved=10 IEnMin=10 EnMin= -2905.42424393941     IErMin=10 ErrMin= 2.13D-07
 ErrMax= 2.13D-07 EMaxC= 1.00D-01 BMatC= 1.58D-11 BMatP= 2.36D-10
 IDIUse=1 WtCom= 1.00D+00 WtEn= 0.00D+00
 Coeff-Com: -0.267D-06-0.714D-05-0.406D-04-0.210D-04 0.110D-02 0.164D-02
 Coeff-Com: -0.309D-02-0.732D-01 0.481D-01 0.103D+01
 Coeff:     -0.267D-06-0.714D-05-0.406D-04-0.210D-04 0.110D-02 0.164D-02
 Coeff:     -0.309D-02-0.732D-01 0.481D-01 0.103D+01
 Gap=     0.406 Goal=   None    Shift=    0.000
 RMSDP=4.14D-08 MaxDP=7.20D-07 DE=-5.76D-10 OVMax= 5.03D-06

 Cycle  11  Pass 1  IDiag  1:
 RMSU=  1.45D-08    CP:  1.02D+00  6.38D-01  9.66D-01  7.68D-01  1.26D+00
                    CP:  9.46D-01  1.29D+00  1.30D+00  1.33D+00  1.27D+00
 FoFJK:  IHMeth= 1 ICntrl=     0 DoSepK=T KAlg= 1 I1Cent= 0 FoldK=F
 E= -2905.42424393944     Delta-E=       -0.000000000034 Rises=F Damp=F
 DIIS: error= 9.22D-08 at cycle  11 NSaved=  11.
 NSaved=11 IEnMin=11 EnMin= -2905.42424393944     IErMin=11 ErrMin= 9.22D-08
 ErrMax= 9.22D-08 EMaxC= 1.00D-01 BMatC= 1.86D-12 BMatP= 1.58D-11
 IDIUse=1 WtCom= 1.00D+00 WtEn= 0.00D+00
 Coeff-Com:  0.242D-06-0.345D-05-0.262D-04-0.163D-04-0.153D-03-0.518D-04
 Coeff-Com:  0.524D-02-0.151D-03-0.663D-01-0.107D+00 0.117D+01
 Coeff:      0.242D-06-0.345D-05-0.262D-04-0.163D-04-0.153D-03-0.518D-04
 Coeff:      0.524D-02-0.151D-03-0.663D-01-0.107D+00 0.117D+01
 Gap=     0.406 Goal=   None    Shift=    0.000
 RMSDP=1.68D-08 MaxDP=3.66D-07 DE=-3.37D-11 OVMax= 2.51D-06

 Cycle  12  Pass 1  IDiag  1:
 RMSU=  4.93D-09    CP:  1.02D+00  6.38D-01  9.66D-01  7.68D-01  1.26D+00
                    CP:  9.46D-01  1.29D+00  1.30D+00  1.35D+00  1.41D+00
                    CP:  1.46D+00
 FoFJK:  IHMeth= 1 ICntrl=     0 DoSepK=T KAlg= 1 I1Cent= 0 FoldK=F
 E= -2905.42424393946     Delta-E=       -0.000000000019 Rises=F Damp=F
 DIIS: error= 4.59D-08 at cycle  12 NSaved=  12.
 NSaved=12 IEnMin=12 EnMin= -2905.42424393946     IErMin=12 ErrMin= 4.59D-08
 ErrMax= 4.59D-08 EMaxC= 1.00D-01 BMatC= 2.07D-13 BMatP= 1.86D-12
 IDIUse=1 WtCom= 1.00D+00 WtEn= 0.00D+00
 Coeff-Com: -0.352D-07 0.774D-06 0.582D-05-0.166D-05-0.848D-04-0.133D-03
 Coeff-Com: -0.245D-03 0.605D-02 0.684D-02-0.820D-01-0.252D+00 0.132D+01
 Coeff:     -0.352D-07 0.774D-06 0.582D-05-0.166D-05-0.848D-04-0.133D-03
 Coeff:     -0.245D-03 0.605D-02 0.684D-02-0.820D-01-0.252D+00 0.132D+01
 Gap=     0.406 Goal=   None    Shift=    0.000
 RMSDP=8.44D-09 MaxDP=1.91D-07 DE=-1.91D-11 OVMax= 1.31D-06

 SCF Done:  E(RwB97XD) =  -2905.42424394     A.U. after   12 cycles
             Convg  =    0.8443D-08             -V/T =  2.0016
 KE= 2.900927529970D+03 PE=-7.235014649397D+03 EE= 1.280336953835D+03
 Leave Link  502 at Thu Apr 16 11:53:39 2020, MaxMem= 1073741824 cpu:     351.1
 (Enter /home/matheus/.gaussian/g09/l601.exe)
 Copying SCF densities to generalized density rwf, IOpCl= 0 IROHF=0.

 **********************************************************************

            Population analysis using the SCF density.

 **********************************************************************

 Orbital symmetries:
       Occupied  (A) (A) (A) (A) (A) (A) (A) (A) (A) (A) (A) (A)
                 (A) (A) (A) (A) (A) (A) (A) (A) (A) (A) (A) (A)
                 (A) (A) (A)
       Virtual   (A) (A) (A) (A) (A) (A) (A) (A) (A) (A) (A) (A)
                 (A) (A) (A) (A) (A) (A) (A) (A) (A) (A) (A) (A)
                 (A) (A) (A) (A) (A) (A) (A) (A) (A) (A) (A) (A)
                 (A) (A) (A) (A) (A) (A) (A) (A) (A) (A) (A) (A)
                 (A) (A) (A) (A) (A) (A) (A) (A) (A) (A) (A) (A)
                 (A) (A) (A) (A) (A) (A) (A) (A) (A) (A) (A) (A)
                 (A) (A) (A) (A) (A) (A) (A) (A) (A) (A) (A) (A)
                 (A) (A) (A) (A) (A) (A) (A) (A) (A) (A) (A) (A)
                 (A) (A) (A) (A) (A) (A) (A) (A) (A) (A) (A) (A)
                 (A) (A) (A) (A) (A) (A) (A) (A) (A) (A) (A) (A)
                 (A) (A) (A) (A) (A) (A) (A) (A) (A) (A) (A) (A)
                 (A) (A) (A) (A) (A) (A) (A) (A) (A) (A) (A) (A)
                 (A) (A) (A) (A) (A) (A) (A) (A) (A) (A) (A) (A)
                 (A) (A) (A) (A) (A) (A) (A) (A) (A) (A) (A) (A)
                 (A) (A)
 The electronic state is 1-A.
 Alpha  occ. eigenvalues -- -513.08942 -67.35768 -60.90649 -60.90635 -60.90628
 Alpha  occ. eigenvalues --  -19.33719 -19.33312  -9.81095  -7.50433  -7.50385
 Alpha  occ. eigenvalues --   -7.50364  -3.37113  -3.37103  -3.37087  -3.37048
 Alpha  occ. eigenvalues --   -3.37046  -1.24270  -1.03278  -1.01754  -0.64985
 Alpha  occ. eigenvalues --   -0.61603  -0.52079  -0.49729  -0.49030  -0.48543
 Alpha  occ. eigenvalues --   -0.45254  -0.36972
 Alpha virt. eigenvalues --    0.03667   0.04340   0.08136   0.10109   0.10789
 Alpha virt. eigenvalues --    0.11690   0.13601   0.14450   0.16998   0.17589
 Alpha virt. eigenvalues --    0.18659   0.19443   0.20741   0.23187   0.23518
 Alpha virt. eigenvalues --    0.24586   0.26498   0.28554   0.30531   0.33637
 Alpha virt. eigenvalues --    0.34110   0.34519   0.36635   0.38819   0.40159
 Alpha virt. eigenvalues --    0.40255   0.42468   0.48094   0.51685   0.54462
 Alpha virt. eigenvalues --    0.56546   0.58809   0.63377   0.64845   0.68234
 Alpha virt. eigenvalues --    0.70491   0.71432   0.71847   0.73452   0.74868
 Alpha virt. eigenvalues --    0.75773   0.76607   0.78030   0.78822   0.80839
 Alpha virt. eigenvalues --    0.83294   0.84252   0.86809   0.88444   0.90173
 Alpha virt. eigenvalues --    0.91653   0.93109   0.95290   0.97325   0.98532
 Alpha virt. eigenvalues --    1.02304   1.02789   1.03763   1.05700   1.08137
 Alpha virt. eigenvalues --    1.11553   1.12102   1.15423   1.17456   1.19054
 Alpha virt. eigenvalues --    1.26677   1.30371   1.34283   1.38874   1.39666
 Alpha virt. eigenvalues --    1.45968   1.51178   1.51373   1.55231   1.58713
 Alpha virt. eigenvalues --    1.61833   1.76473   1.79561   1.84312   1.92960
 Alpha virt. eigenvalues --    1.98226   1.99112   2.02407   2.12206   2.13767
 Alpha virt. eigenvalues --    2.14861   2.17741   2.18423   2.19379   2.23915
 Alpha virt. eigenvalues --    2.26833   2.28482   2.29982   2.31638   2.33249
 Alpha virt. eigenvalues --    2.36765   2.37830   2.43562   2.46337   2.47527
 Alpha virt. eigenvalues --    2.47683   2.50163   2.52488   2.53377   2.56285
 Alpha virt. eigenvalues --    2.58066   2.60624   2.64925   2.66232   2.68681
 Alpha virt. eigenvalues --    2.71590   2.73123   2.75985   2.82741   2.88168
 Alpha virt. eigenvalues --    2.95372   3.06077   3.08266   3.14507   3.53296
 Alpha virt. eigenvalues --    3.71503   3.84145   3.92210   4.03454   4.05732
 Alpha virt. eigenvalues --    4.10401   4.15351   4.17319   4.21980   4.24864
 Alpha virt. eigenvalues --    4.40500   4.44939   4.52921   4.53610   4.73039
 Alpha virt. eigenvalues --    4.90879   4.99630   5.02796   5.05955   5.09428
 Alpha virt. eigenvalues --    5.35117   5.43752   5.83025   5.99087   6.07627
 Alpha virt. eigenvalues --    6.12628   6.31277   6.34550   6.41824   6.48427
 Alpha virt. eigenvalues --    6.69617   6.71054   6.74547   6.81337   6.85963
 Alpha virt. eigenvalues --    6.87617   6.92146   6.93370   6.95516   6.98630
 Alpha virt. eigenvalues --    7.02765   7.22880   7.24843   7.38272   7.63931
 Alpha virt. eigenvalues --    7.83835   8.09388   8.13805  14.11248  14.60498
          Condensed to atoms (all electrons):
              1          2          3          4          5
     1  O    8.150875  -0.153999   0.211776   0.003128  -0.026219
     2  O   -0.153999   8.223046   0.006285   0.217319  -0.017656
     3  H    0.211776   0.006285   0.573775   0.003350   0.002829
     4  H    0.003128   0.217319   0.003350   0.529744  -0.003871
     5  Kr  -0.026219  -0.017656   0.002829  -0.003871  36.036677
 Mulliken atomic charges:
              1
     1  O   -0.185561
     2  O   -0.274995
     3  H    0.201985
     4  H    0.250331
     5  Kr   0.008240
 Sum of Mulliken atomic charges =   0.00000
 Mulliken charges with hydrogens summed into heavy atoms:
              1
     1  O    0.016424
     2  O   -0.024664
     5  Kr   0.008240
 Sum of Mulliken charges with hydrogens summed into heavy atoms =   0.00000
 Electronic spatial extent (au):  <R**2>=            492.0187
 Charge=              0.0000 electrons
 Dipole moment (field-independent basis, Debye):
    X=              0.2639    Y=             -0.3015    Z=              0.5346  Tot=              0.6681
 Quadrupole moment (field-independent basis, Debye-Ang):
   XX=            -26.7209   YY=            -28.3194   ZZ=            -30.5025
   XY=              3.8076   XZ=             -1.6992   YZ=             -0.5668
 Traceless Quadrupole moment (field-independent basis, Debye-Ang):
   XX=              1.7934   YY=              0.1949   ZZ=             -1.9882
   XY=              3.8076   XZ=             -1.6992   YZ=             -0.5668
 Octapole moment (field-independent basis, Debye-Ang**2):
  XXX=              1.7742  YYY=             -0.6754  ZZZ=              0.2080  XYY=              4.2747
  XXY=            -16.0012  XXZ=              5.1025  XZZ=              8.2341  YZZ=             -0.4740
  YYZ=              0.6596  XYZ=              1.7637
 Hexadecapole moment (field-independent basis, Debye-Ang**3):
 XXXX=           -348.9773 YYYY=            -63.9405 ZZZZ=            -29.7936 XXXY=             49.9003
 XXXZ=            -15.4979 YYYX=              5.5522 YYYZ=             -0.6986 ZZZX=             -0.7161
 ZZZY=             -0.3211 XXYY=            -75.1862 XXZZ=            -78.9595 YYZZ=            -17.4263
 XXYZ=             -5.3223 YYXZ=             -1.9533 ZZXY=              0.8092
 N-N= 1.483259216527D+02 E-N=-7.235014649168D+03  KE= 2.900927529970D+03
 No NMR shielding tensors so no spin-rotation constants.
 Leave Link  601 at Thu Apr 16 11:53:39 2020, MaxMem= 1073741824 cpu:       0.8
 (Enter /home/matheus/.gaussian/g09/l108.exe)
 Variable Step   Value    
 -------- ---- -----------
     1       1    5.858151
 Leave Link  108 at Thu Apr 16 11:53:39 2020, MaxMem= 1073741824 cpu:       0.0
 (Enter /home/matheus/.gaussian/g09/l202.exe)
 ---------------------------------------------------------------------------------------------------
                            Z-MATRIX (ANGSTROMS AND DEGREES)
   CD    Cent   Atom    N1       Length/X        N2       Alpha/Y        N3        Beta/Z          J
 ---------------------------------------------------------------------------------------------------
      1      1  O        0   0.000000          0.000000          0.725000
      2      2  O        0   0.000000          0.000000         -0.725000
      3      3  H        0  -0.314221         -0.863315          1.023510
      4      4  H        0   0.000000          0.918721         -1.023510
      5      5  Kr       0   0.000000          3.100000          0.000000
 ---------------------------------------------------------------------------------------------------
                         Z-Matrix orientation:                         
 ---------------------------------------------------------------------
 Center     Atomic      Atomic             Coordinates (Angstroms)
 Number     Number       Type             X           Y           Z
 ---------------------------------------------------------------------
      1          8           0        0.000000    0.000000    0.725000
      2          8           0        0.000000    0.000000   -0.725000
      3          1           0       -0.314221   -0.863315    1.023510
      4          1           0        0.000000    0.918721   -1.023510
      5         36           0        0.000000    3.100000    0.000000
 ---------------------------------------------------------------------
                    Distance matrix (angstroms):
                    1          2          3          4          5
     1  O    0.000000
     2  O    1.450000   0.000000
     3  H    0.966000   1.975180   0.000000
     4  H    1.975180   0.966000   2.732157   0.000000
     5  Kr   3.183650   3.183650   4.105384   2.409472   0.000000
 Stoichiometry    H2KrO2
 Framework group  C1[X(H2KrO2)]
 Deg. of freedom     9
 Full point group                 C1      NOp   1
 RotChk:  IX=0 Diff= 1.86D-03
 Largest Abelian subgroup         C1      NOp   1
 Largest concise Abelian subgroup C1      NOp   1
                         Standard orientation:                         
 ---------------------------------------------------------------------
 Center     Atomic      Atomic             Coordinates (Angstroms)
 Number     Number       Type             X           Y           Z
 ---------------------------------------------------------------------
      1          8           0       -2.079741   -0.688386   -0.042599
      2          8           0       -2.054811    0.760767    0.000228
      3          1           0       -2.950529   -0.980923    0.256242
      4          1           0       -1.131122    1.043099    0.015874
      5         36           0        1.032168   -0.017812    0.001857
 ---------------------------------------------------------------------
 Rotational constants (GHZ):     26.5917969      2.1596003      1.9987973
 Leave Link  202 at Thu Apr 16 11:53:39 2020, MaxMem= 1073741824 cpu:       0.0
 (Enter /home/matheus/.gaussian/g09/l301.exe)
 Standard basis: Aug-CC-pVTZ (5D, 7F)
 Ernie: Thresh=  0.10000D-02 Tol=  0.10000D-05 Strict=F.
 Ernie:  38 primitive shells out of 205 were deleted.
 There are   197 symmetry adapted basis functions of A   symmetry.
 Integral buffers will be    131072 words long.
 Raffenetti 2 integral format.
 Two-electron integral symmetry is turned on.
   197 basis functions,   415 primitive gaussians,   229 cartesian basis functions
    27 alpha electrons       27 beta electrons
       nuclear repulsion energy       144.8898081498 Hartrees.
 IExCor= 4639 DFT=T Ex+Corr=wB97XD ExCW=0 ScaHFX=  1.000000
 ScaDFX=  1.000000  1.000000  1.000000  1.000000 ScalE2=  1.000000  1.000000
 IRadAn=      5 IRanWt=     -1 IRanGd=            0 ICorTp=0
  HFx wShort=  0.000000 wLong=  0.250000 cFull=  0.222036 cShort=  0.000000 cLong=  0.777964
  DFx wShort=  0.000000 wLong=  0.250000 cFull=  0.000000 cShort=  0.000000 cLong=  1.000000
 NAtoms=    5 NActive=    5 NUniq=    5 SFac= 1.00D+00 NAtFMM=   60 NAOKFM=F Big=F
 R6Disp: Dispersion energy =        -0.0008269106 Hartrees.
 Nuclear repulsion after empirical dispersion term =      144.8889812392 Hartrees.
 Leave Link  301 at Thu Apr 16 11:53:39 2020, MaxMem= 1073741824 cpu:       0.3
 (Enter /home/matheus/.gaussian/g09/l302.exe)
 NPDir=0 NMtPBC=     1 NCelOv=     1 NCel=       1 NClECP=     1 NCelD=      1
         NCelK=      1 NCelE2=     1 NClLst=     1 CellRange=     0.0.
 One-electron integrals computed using PRISM.
 NBasis=   197 RedAO= T  NBF=   197
 NBsUse=   197 1.00D-06 NBFU=   197
 Precomputing XC quadrature grid using
 IXCGrd= 2 IRadAn=           5 IRanWt=          -1 IRanGd=           0 AccXCQ= 0.00D+00.
 NRdTot=     427 NPtTot=      123814 NUsed=      126881 NTot=      126913
 NSgBfM=   229   229   229   229   229 NAtAll=     5     5.
 Leave Link  302 at Thu Apr 16 11:53:39 2020, MaxMem= 1073741824 cpu:       1.2
 (Enter /home/matheus/.gaussian/g09/l303.exe)
 DipDrv:  MaxL=1.
 Leave Link  303 at Thu Apr 16 11:53:39 2020, MaxMem= 1073741824 cpu:       0.2
 (Enter /home/matheus/.gaussian/g09/l401.exe)
 Initial guess read from the read-write file.
 B after Tr=     0.000000    0.000000    0.000000
         Rot=    1.000000    0.000000    0.000000    0.000000 Ang=   0.00 deg.
 Guess basis will be translated and rotated to current coordinates.
 Initial guess orbital symmetries:
       Occupied  (A) (A) (A) (A) (A) (A) (A) (A) (A) (A) (A) (A)
                 (A) (A) (A) (A) (A) (A) (A) (A) (A) (A) (A) (A)
                 (A) (A) (A)
       Virtual   (A) (A) (A) (A) (A) (A) (A) (A) (A) (A) (A) (A)
                 (A) (A) (A) (A) (A) (A) (A) (A) (A) (A) (A) (A)
                 (A) (A) (A) (A) (A) (A) (A) (A) (A) (A) (A) (A)
                 (A) (A) (A) (A) (A) (A) (A) (A) (A) (A) (A) (A)
                 (A) (A) (A) (A) (A) (A) (A) (A) (A) (A) (A) (A)
                 (A) (A) (A) (A) (A) (A) (A) (A) (A) (A) (A) (A)
                 (A) (A) (A) (A) (A) (A) (A) (A) (A) (A) (A) (A)
                 (A) (A) (A) (A) (A) (A) (A) (A) (A) (A) (A) (A)
                 (A) (A) (A) (A) (A) (A) (A) (A) (A) (A) (A) (A)
                 (A) (A) (A) (A) (A) (A) (A) (A) (A) (A) (A) (A)
                 (A) (A) (A) (A) (A) (A) (A) (A) (A) (A) (A) (A)
                 (A) (A) (A) (A) (A) (A) (A) (A) (A) (A) (A) (A)
                 (A) (A) (A) (A) (A) (A) (A) (A) (A) (A) (A) (A)
                 (A) (A) (A) (A) (A) (A) (A) (A) (A) (A) (A) (A)
                 (A) (A)
 The electronic state of the initial guess is 1-A.
 Generating alternative initial guess.
 Harris functional with IExCor= 4639 diagonalized for initial guess.
 ExpMin= 2.53D-02 ExpMax= 1.17D+07 ExpMxC= 1.33D+04 IAcc=3 IRadAn=         5 AccDes= 0.00D+00
 HarFok:  IExCor= 4639 AccDes= 0.00D+00 IRadAn=         5 IDoV= 1
 ScaDFX=  1.000000  1.000000  1.000000  1.000000
 FoFCou: FMM=F IPFlag=           0 FMFlag=      100000 FMFlg1=           0
         NFxFlg=           0 DoJE=T BraDBF=F KetDBF=T FulRan=T
         Omega=  0.000000  0.000000  1.000000  0.000000  0.000000 ICntrl=     500 IOpCl=  0
         NMat0=    1 NMatS0=    1 NMatT0=    0 NMatD0=    1 NMtDS0=    0 NMtDT0=    0
         I1Cent=           4 NGrid=           0.
 Petite list used in FoFCou.
 Harris En= -2875.39689149157    
 Leave Link  401 at Thu Apr 16 11:53:40 2020, MaxMem= 1073741824 cpu:       5.3
 (Enter /home/matheus/.gaussian/g09/l502.exe)
 Closed shell SCF:
 Requested convergence on RMS density matrix=1.00D-08 within 128 cycles.
 Requested convergence on MAX density matrix=1.00D-06.
 Requested convergence on             energy=1.00D-06.
 No special actions if energy rises.
 Using DIIS extrapolation, IDIIS=  1040.
 Integral symmetry usage will be decided dynamically.
       126823 words used for storage of precomputed grid.
 IEnd=      305770 IEndB=      305770 NGot=  1073741824 MDV=  1073505365
 LenX=  1073505365 LenY=  1073452483
 Fock matrices will be formed incrementally for  20 cycles.

 Cycle   1  Pass 1  IDiag  1:
 FoFJK:  IHMeth= 1 ICntrl=     0 DoSepK=T KAlg= 1 I1Cent= 0 FoldK=F
 FoFCou: FMM=F IPFlag=           0 FMFlag=      100000 FMFlg1=           0
         NFxFlg=           0 DoJE=T BraDBF=F KetDBF=F FulRan=T
         Omega=  0.000000  0.000000  1.000000  0.000000  0.000000 ICntrl=     500 IOpCl=  0
         NMat0=    1 NMatS0=    1 NMatT0=    0 NMatD0=    1 NMtDS0=    0 NMtDT0=    0
         I1Cent=           0 NGrid=           0.
 Symmetry not used in FoFCou.
 E= -2905.42582247370    
 DIIS: error= 1.23D-03 at cycle   1 NSaved=   1.
 NSaved= 1 IEnMin= 1 EnMin= -2905.42582247370     IErMin= 1 ErrMin= 1.23D-03
 ErrMax= 1.23D-03 EMaxC= 1.00D-01 BMatC= 5.05D-04 BMatP= 5.05D-04
 IDIUse=3 WtCom= 9.88D-01 WtEn= 1.23D-02
 Coeff-Com:  0.100D+01
 Coeff-En:   0.100D+01
 Coeff:      0.100D+01
 Gap=     0.408 Goal=   None    Shift=    0.000
 GapD=    0.408 DampG=2.000 DampE=1.000 DampFc=2.0000 IDamp=-1.
 RMSDP=7.75D-05 MaxDP=2.47D-03              OVMax= 3.76D-03

 Cycle   2  Pass 1  IDiag  1:
 RMSU=  5.48D-05    CP:  1.00D+00
 FoFJK:  IHMeth= 1 ICntrl=     0 DoSepK=T KAlg= 1 I1Cent= 0 FoldK=F
 E= -2905.42592224891     Delta-E=       -0.000099775215 Rises=F Damp=F
 DIIS: error= 1.22D-04 at cycle   2 NSaved=   2.
 NSaved= 2 IEnMin= 2 EnMin= -2905.42592224891     IErMin= 2 ErrMin= 1.22D-04
 ErrMax= 1.22D-04 EMaxC= 1.00D-01 BMatC= 5.26D-06 BMatP= 5.05D-04
 IDIUse=3 WtCom= 9.99D-01 WtEn= 1.22D-03
 Coeff-Com:  0.168D-03 0.100D+01
 Coeff-En:   0.000D+00 0.100D+01
 Coeff:      0.168D-03 0.100D+01
 Gap=     0.406 Goal=   None    Shift=    0.000
 RMSDP=1.78D-05 MaxDP=7.29D-04 DE=-9.98D-05 OVMax= 8.84D-04

 Cycle   3  Pass 1  IDiag  1:
 RMSU=  1.00D-05    CP:  1.00D+00  1.14D+00
 FoFJK:  IHMeth= 1 ICntrl=     0 DoSepK=T KAlg= 1 I1Cent= 0 FoldK=F
 E= -2905.42592470867     Delta-E=       -0.000002459758 Rises=F Damp=F
 DIIS: error= 1.21D-04 at cycle   3 NSaved=   3.
 NSaved= 3 IEnMin= 3 EnMin= -2905.42592470867     IErMin= 3 ErrMin= 1.21D-04
 ErrMax= 1.21D-04 EMaxC= 1.00D-01 BMatC= 4.90D-06 BMatP= 5.26D-06
 IDIUse=3 WtCom= 9.99D-01 WtEn= 1.21D-03
 Coeff-Com: -0.862D-02 0.495D+00 0.514D+00
 Coeff-En:   0.000D+00 0.253D+00 0.747D+00
 Coeff:     -0.861D-02 0.494D+00 0.514D+00
 Gap=     0.407 Goal=   None    Shift=    0.000
 RMSDP=6.11D-06 MaxDP=3.08D-04 DE=-2.46D-06 OVMax= 5.31D-04

 Cycle   4  Pass 1  IDiag  1:
 RMSU=  3.32D-06    CP:  1.00D+00  1.16D+00  7.41D-01
 FoFJK:  IHMeth= 1 ICntrl=     0 DoSepK=T KAlg= 1 I1Cent= 0 FoldK=F
 E= -2905.42592768760     Delta-E=       -0.000002978928 Rises=F Damp=F
 DIIS: error= 2.93D-05 at cycle   4 NSaved=   4.
 NSaved= 4 IEnMin= 4 EnMin= -2905.42592768760     IErMin= 4 ErrMin= 2.93D-05
 ErrMax= 2.93D-05 EMaxC= 1.00D-01 BMatC= 2.25D-07 BMatP= 4.90D-06
 IDIUse=1 WtCom= 1.00D+00 WtEn= 0.00D+00
 Coeff-Com: -0.281D-02 0.636D-01 0.178D+00 0.761D+00
 Coeff:     -0.281D-02 0.636D-01 0.178D+00 0.761D+00
 Gap=     0.407 Goal=   None    Shift=    0.000
 RMSDP=2.12D-06 MaxDP=6.82D-05 DE=-2.98D-06 OVMax= 1.29D-04

 Cycle   5  Pass 1  IDiag  1:
 RMSU=  1.11D-06    CP:  1.00D+00  1.17D+00  8.21D-01  1.03D+00
 FoFJK:  IHMeth= 1 ICntrl=     0 DoSepK=T KAlg= 1 I1Cent= 0 FoldK=F
 E= -2905.42592785559     Delta-E=       -0.000000167994 Rises=F Damp=F
 DIIS: error= 1.19D-05 at cycle   5 NSaved=   5.
 NSaved= 5 IEnMin= 5 EnMin= -2905.42592785559     IErMin= 5 ErrMin= 1.19D-05
 ErrMax= 1.19D-05 EMaxC= 1.00D-01 BMatC= 3.45D-08 BMatP= 2.25D-07
 IDIUse=1 WtCom= 1.00D+00 WtEn= 0.00D+00
 Coeff-Com:  0.204D-03-0.546D-01-0.107D-01 0.307D+00 0.758D+00
 Coeff:      0.204D-03-0.546D-01-0.107D-01 0.307D+00 0.758D+00
 Gap=     0.407 Goal=   None    Shift=    0.000
 RMSDP=1.08D-06 MaxDP=6.05D-05 DE=-1.68D-07 OVMax= 5.29D-05

 Cycle   6  Pass 1  IDiag  1:
 RMSU=  3.74D-07    CP:  1.00D+00  1.17D+00  8.61D-01  1.17D+00  9.65D-01
 FoFJK:  IHMeth= 1 ICntrl=     0 DoSepK=T KAlg= 1 I1Cent= 0 FoldK=F
 E= -2905.42592788521     Delta-E=       -0.000000029617 Rises=F Damp=F
 DIIS: error= 2.34D-06 at cycle   6 NSaved=   6.
 NSaved= 6 IEnMin= 6 EnMin= -2905.42592788521     IErMin= 6 ErrMin= 2.34D-06
 ErrMax= 2.34D-06 EMaxC= 1.00D-01 BMatC= 1.43D-09 BMatP= 3.45D-08
 IDIUse=1 WtCom= 1.00D+00 WtEn= 0.00D+00
 Coeff-Com:  0.195D-03-0.202D-01-0.123D-01 0.547D-01 0.235D+00 0.743D+00
 Coeff:      0.195D-03-0.202D-01-0.123D-01 0.547D-01 0.235D+00 0.743D+00
 Gap=     0.407 Goal=   None    Shift=    0.000
 RMSDP=2.10D-07 MaxDP=7.00D-06 DE=-2.96D-08 OVMax= 1.16D-05

 Cycle   7  Pass 1  IDiag  1:
 RMSU=  9.08D-08    CP:  1.00D+00  1.17D+00  8.66D-01  1.19D+00  1.03D+00
                    CP:  1.07D+00
 FoFJK:  IHMeth= 1 ICntrl=     0 DoSepK=T KAlg= 1 I1Cent= 0 FoldK=F
 E= -2905.42592788676     Delta-E=       -0.000000001547 Rises=F Damp=F
 DIIS: error= 6.77D-07 at cycle   7 NSaved=   7.
 NSaved= 7 IEnMin= 7 EnMin= -2905.42592788676     IErMin= 7 ErrMin= 6.77D-07
 ErrMax= 6.77D-07 EMaxC= 1.00D-01 BMatC= 7.56D-11 BMatP= 1.43D-09
 IDIUse=1 WtCom= 1.00D+00 WtEn= 0.00D+00
 Coeff-Com: -0.188D-04 0.624D-02 0.147D-02-0.362D-01-0.856D-01 0.111D-01
 Coeff-Com:  0.110D+01
 Coeff:     -0.188D-04 0.624D-02 0.147D-02-0.362D-01-0.856D-01 0.111D-01
 Coeff:      0.110D+01
 Gap=     0.407 Goal=   None    Shift=    0.000
 RMSDP=1.11D-07 MaxDP=5.45D-06 DE=-1.55D-09 OVMax= 7.26D-06

 Cycle   8  Pass 1  IDiag  1:
 RMSU=  3.07D-08    CP:  1.00D+00  1.17D+00  8.69D-01  1.20D+00  1.05D+00
                    CP:  1.20D+00  1.22D+00
 FoFJK:  IHMeth= 1 ICntrl=     0 DoSepK=T KAlg= 1 I1Cent= 0 FoldK=F
 E= -2905.42592788694     Delta-E=       -0.000000000182 Rises=F Damp=F
 DIIS: error= 6.33D-08 at cycle   8 NSaved=   8.
 NSaved= 8 IEnMin= 8 EnMin= -2905.42592788694     IErMin= 8 ErrMin= 6.33D-08
 ErrMax= 6.33D-08 EMaxC= 1.00D-01 BMatC= 3.12D-12 BMatP= 7.56D-11
 IDIUse=1 WtCom= 1.00D+00 WtEn= 0.00D+00
 Coeff-Com: -0.122D-04 0.200D-02 0.760D-03-0.915D-02-0.244D-01-0.253D-01
 Coeff-Com:  0.178D+00 0.878D+00
 Coeff:     -0.122D-04 0.200D-02 0.760D-03-0.915D-02-0.244D-01-0.253D-01
 Coeff:      0.178D+00 0.878D+00
 Gap=     0.407 Goal=   None    Shift=    0.000
 RMSDP=1.49D-08 MaxDP=6.60D-07 DE=-1.82D-10 OVMax= 1.14D-06

 Cycle   9  Pass 1  IDiag  1:
 RMSU=  5.91D-09    CP:  1.00D+00  1.17D+00  8.69D-01  1.20D+00  1.05D+00
                    CP:  1.21D+00  1.27D+00  1.22D+00
 FoFJK:  IHMeth= 1 ICntrl=     0 DoSepK=T KAlg= 1 I1Cent= 0 FoldK=F
 E= -2905.42592788696     Delta-E=       -0.000000000019 Rises=F Damp=F
 DIIS: error= 2.11D-08 at cycle   9 NSaved=   9.
 NSaved= 9 IEnMin= 9 EnMin= -2905.42592788696     IErMin= 9 ErrMin= 2.11D-08
 ErrMax= 2.11D-08 EMaxC= 1.00D-01 BMatC= 2.31D-13 BMatP= 3.12D-12
 IDIUse=1 WtCom= 1.00D+00 WtEn= 0.00D+00
 Coeff-Com:  0.104D-05-0.403D-03-0.910D-04 0.236D-02 0.589D-02-0.189D-02
 Coeff-Com: -0.815D-01 0.582D-01 0.102D+01
 Coeff:      0.104D-05-0.403D-03-0.910D-04 0.236D-02 0.589D-02-0.189D-02
 Coeff:     -0.815D-01 0.582D-01 0.102D+01
 Gap=     0.407 Goal=   None    Shift=    0.000
 RMSDP=6.89D-09 MaxDP=2.57D-07 DE=-1.91D-11 OVMax= 4.01D-07

 SCF Done:  E(RwB97XD) =  -2905.42592789     A.U. after    9 cycles
             Convg  =    0.6888D-08             -V/T =  2.0016
 KE= 2.900915371713D+03 PE=-7.228138919426D+03 EE= 1.276908638587D+03
 Leave Link  502 at Thu Apr 16 11:54:12 2020, MaxMem= 1073741824 cpu:     256.4
 (Enter /home/matheus/.gaussian/g09/l108.exe)
 Variable Step   Value    
 -------- ---- -----------
     1       2    6.047124
 Leave Link  108 at Thu Apr 16 11:54:12 2020, MaxMem= 1073741824 cpu:       0.0
 (Enter /home/matheus/.gaussian/g09/l202.exe)
 ---------------------------------------------------------------------------------------------------
                            Z-MATRIX (ANGSTROMS AND DEGREES)
   CD    Cent   Atom    N1       Length/X        N2       Alpha/Y        N3        Beta/Z          J
 ---------------------------------------------------------------------------------------------------
      1      1  O        0   0.000000          0.000000          0.725000
      2      2  O        0   0.000000          0.000000         -0.725000
      3      3  H        0  -0.314221         -0.863315          1.023510
      4      4  H        0   0.000000          0.918721         -1.023510
      5      5  Kr       0   0.000000          3.200000          0.000000
 ---------------------------------------------------------------------------------------------------
                         Z-Matrix orientation:                         
 ---------------------------------------------------------------------
 Center     Atomic      Atomic             Coordinates (Angstroms)
 Number     Number       Type             X           Y           Z
 ---------------------------------------------------------------------
      1          8           0        0.000000    0.000000    0.725000
      2          8           0        0.000000    0.000000   -0.725000
      3          1           0       -0.314221   -0.863315    1.023510
      4          1           0        0.000000    0.918721   -1.023510
      5         36           0        0.000000    3.200000    0.000000
 ---------------------------------------------------------------------
                    Distance matrix (angstroms):
                    1          2          3          4          5
     1  O    0.000000
     2  O    1.450000   0.000000
     3  H    0.966000   1.975180   0.000000
     4  H    1.975180   0.966000   2.732157   0.000000
     5  Kr   3.281101   3.281101   4.202004   2.500362   0.000000
 Stoichiometry    H2KrO2
 Framework group  C1[X(H2KrO2)]
 Deg. of freedom     9
 Full point group                 C1      NOp   1
 RotChk:  IX=0 Diff= 1.68D-03
 Largest Abelian subgroup         C1      NOp   1
 Largest concise Abelian subgroup C1      NOp   1
                         Standard orientation:                         
 ---------------------------------------------------------------------
 Center     Atomic      Atomic             Coordinates (Angstroms)
 Number     Number       Type             X           Y           Z
 ---------------------------------------------------------------------
      1          8           0       -2.145615   -0.689692   -0.042524
      2          8           0       -2.122341    0.759486    0.000376
      3          1           0       -3.015982   -0.983247    0.256548
      4          1           0       -1.198973    1.042880    0.015775
      5         36           0        1.065517   -0.017166    0.001802
 ---------------------------------------------------------------------
 Rotational constants (GHZ):     26.5902415      2.0275881      1.8851883
 Leave Link  202 at Thu Apr 16 11:54:12 2020, MaxMem= 1073741824 cpu:       0.0
 (Enter /home/matheus/.gaussian/g09/l301.exe)
 Standard basis: Aug-CC-pVTZ (5D, 7F)
 Ernie: Thresh=  0.10000D-02 Tol=  0.10000D-05 Strict=F.
 Ernie:  38 primitive shells out of 205 were deleted.
 There are   197 symmetry adapted basis functions of A   symmetry.
 Integral buffers will be    131072 words long.
 Raffenetti 2 integral format.
 Two-electron integral symmetry is turned on.
   197 basis functions,   415 primitive gaussians,   229 cartesian basis functions
    27 alpha electrons       27 beta electrons
       nuclear repulsion energy       141.6521091741 Hartrees.
 IExCor= 4639 DFT=T Ex+Corr=wB97XD ExCW=0 ScaHFX=  1.000000
 ScaDFX=  1.000000  1.000000  1.000000  1.000000 ScalE2=  1.000000  1.000000
 IRadAn=      5 IRanWt=     -1 IRanGd=            0 ICorTp=0
  HFx wShort=  0.000000 wLong=  0.250000 cFull=  0.222036 cShort=  0.000000 cLong=  0.777964
  DFx wShort=  0.000000 wLong=  0.250000 cFull=  0.000000 cShort=  0.000000 cLong=  1.000000
 NAtoms=    5 NActive=    5 NUniq=    5 SFac= 1.00D+00 NAtFMM=   60 NAOKFM=F Big=F
 R6Disp: Dispersion energy =        -0.0008789100 Hartrees.
 Nuclear repulsion after empirical dispersion term =      141.6512302640 Hartrees.
 Leave Link  301 at Thu Apr 16 11:54:12 2020, MaxMem= 1073741824 cpu:       0.2
 (Enter /home/matheus/.gaussian/g09/l302.exe)
 NPDir=0 NMtPBC=     1 NCelOv=     1 NCel=       1 NClECP=     1 NCelD=      1
         NCelK=      1 NCelE2=     1 NClLst=     1 CellRange=     0.0.
 One-electron integrals computed using PRISM.
 NBasis=   197 RedAO= T  NBF=   197
 NBsUse=   197 1.00D-06 NBFU=   197
 Precomputing XC quadrature grid using
 IXCGrd= 2 IRadAn=           5 IRanWt=          -1 IRanGd=           0 AccXCQ= 0.00D+00.
 NRdTot=     427 NPtTot=      123814 NUsed=      126881 NTot=      126913
 NSgBfM=   229   229   229   229   229 NAtAll=     5     5.
 Leave Link  302 at Thu Apr 16 11:54:12 2020, MaxMem= 1073741824 cpu:       1.0
 (Enter /home/matheus/.gaussian/g09/l303.exe)
 DipDrv:  MaxL=1.
 Leave Link  303 at Thu Apr 16 11:54:12 2020, MaxMem= 1073741824 cpu:       0.2
 (Enter /home/matheus/.gaussian/g09/l401.exe)
 Initial guess read from the read-write file.
 B after Tr=     0.000000    0.000000    0.000000
         Rot=    1.000000    0.000000    0.000000    0.000000 Ang=   0.00 deg.
 Guess basis will be translated and rotated to current coordinates.
 Initial guess orbital symmetries:
       Occupied  (A) (A) (A) (A) (A) (A) (A) (A) (A) (A) (A) (A)
                 (A) (A) (A) (A) (A) (A) (A) (A) (A) (A) (A) (A)
                 (A) (A) (A)
       Virtual   (A) (A) (A) (A) (A) (A) (A) (A) (A) (A) (A) (A)
                 (A) (A) (A) (A) (A) (A) (A) (A) (A) (A) (A) (A)
                 (A) (A) (A) (A) (A) (A) (A) (A) (A) (A) (A) (A)
                 (A) (A) (A) (A) (A) (A) (A) (A) (A) (A) (A) (A)
                 (A) (A) (A) (A) (A) (A) (A) (A) (A) (A) (A) (A)
                 (A) (A) (A) (A) (A) (A) (A) (A) (A) (A) (A) (A)
                 (A) (A) (A) (A) (A) (A) (A) (A) (A) (A) (A) (A)
                 (A) (A) (A) (A) (A) (A) (A) (A) (A) (A) (A) (A)
                 (A) (A) (A) (A) (A) (A) (A) (A) (A) (A) (A) (A)
                 (A) (A) (A) (A) (A) (A) (A) (A) (A) (A) (A) (A)
                 (A) (A) (A) (A) (A) (A) (A) (A) (A) (A) (A) (A)
                 (A) (A) (A) (A) (A) (A) (A) (A) (A) (A) (A) (A)
                 (A) (A) (A) (A) (A) (A) (A) (A) (A) (A) (A) (A)
                 (A) (A) (A) (A) (A) (A) (A) (A) (A) (A) (A) (A)
                 (A) (A)
 The electronic state of the initial guess is 1-A.
 Generating alternative initial guess.
 Harris functional with IExCor= 4639 diagonalized for initial guess.
 ExpMin= 2.53D-02 ExpMax= 1.17D+07 ExpMxC= 1.33D+04 IAcc=3 IRadAn=         5 AccDes= 0.00D+00
 HarFok:  IExCor= 4639 AccDes= 0.00D+00 IRadAn=         5 IDoV= 1
 ScaDFX=  1.000000  1.000000  1.000000  1.000000
 FoFCou: FMM=F IPFlag=           0 FMFlag=      100000 FMFlg1=           0
         NFxFlg=           0 DoJE=T BraDBF=F KetDBF=T FulRan=T
         Omega=  0.000000  0.000000  1.000000  0.000000  0.000000 ICntrl=     500 IOpCl=  0
         NMat0=    1 NMatS0=    1 NMatT0=    0 NMatD0=    1 NMtDS0=    0 NMtDT0=    0
         I1Cent=           4 NGrid=           0.
 Petite list used in FoFCou.
 Harris En= -2875.39916192853    
 Leave Link  401 at Thu Apr 16 11:54:13 2020, MaxMem= 1073741824 cpu:       4.8
 (Enter /home/matheus/.gaussian/g09/l502.exe)
 Closed shell SCF:
 Requested convergence on RMS density matrix=1.00D-08 within 128 cycles.
 Requested convergence on MAX density matrix=1.00D-06.
 Requested convergence on             energy=1.00D-06.
 No special actions if energy rises.
 Using DIIS extrapolation, IDIIS=  1040.
 Integral symmetry usage will be decided dynamically.
       126823 words used for storage of precomputed grid.
 IEnd=      305770 IEndB=      305770 NGot=  1073741824 MDV=  1073505365
 LenX=  1073505365 LenY=  1073452483
 Fock matrices will be formed incrementally for  20 cycles.

 Cycle   1  Pass 1  IDiag  1:
 FoFJK:  IHMeth= 1 ICntrl=     0 DoSepK=T KAlg= 1 I1Cent= 0 FoldK=F
 FoFCou: FMM=F IPFlag=           0 FMFlag=      100000 FMFlg1=           0
         NFxFlg=           0 DoJE=T BraDBF=F KetDBF=F FulRan=T
         Omega=  0.000000  0.000000  1.000000  0.000000  0.000000 ICntrl=     500 IOpCl=  0
         NMat0=    1 NMatS0=    1 NMatT0=    0 NMatD0=    1 NMtDS0=    0 NMtDT0=    0
         I1Cent=           0 NGrid=           0.
 Symmetry not used in FoFCou.
 E= -2905.42694527850    
 DIIS: error= 1.03D-03 at cycle   1 NSaved=   1.
 NSaved= 1 IEnMin= 1 EnMin= -2905.42694527850     IErMin= 1 ErrMin= 1.03D-03
 ErrMax= 1.03D-03 EMaxC= 1.00D-01 BMatC= 3.88D-04 BMatP= 3.88D-04
 IDIUse=3 WtCom= 9.90D-01 WtEn= 1.03D-02
 Coeff-Com:  0.100D+01
 Coeff-En:   0.100D+01
 Coeff:      0.100D+01
 Gap=     0.408 Goal=   None    Shift=    0.000
 GapD=    0.408 DampG=2.000 DampE=1.000 DampFc=2.0000 IDamp=-1.
 RMSDP=7.40D-05 MaxDP=2.13D-03              OVMax= 3.43D-03

 Cycle   2  Pass 1  IDiag  1:
 RMSU=  5.24D-05    CP:  1.00D+00
 FoFJK:  IHMeth= 1 ICntrl=     0 DoSepK=T KAlg= 1 I1Cent= 0 FoldK=F
 E= -2905.42702146070     Delta-E=       -0.000076182194 Rises=F Damp=F
 DIIS: error= 9.96D-05 at cycle   2 NSaved=   2.
 NSaved= 2 IEnMin= 2 EnMin= -2905.42702146070     IErMin= 2 ErrMin= 9.96D-05
 ErrMax= 9.96D-05 EMaxC= 1.00D-01 BMatC= 3.52D-06 BMatP= 3.88D-04
 IDIUse=1 WtCom= 1.00D+00 WtEn= 0.00D+00
 Coeff-Com: -0.218D-02 0.100D+01
 Coeff:     -0.218D-02 0.100D+01
 Gap=     0.407 Goal=   None    Shift=    0.000
 RMSDP=1.57D-05 MaxDP=5.74D-04 DE=-7.62D-05 OVMax= 7.20D-04

 Cycle   3  Pass 1  IDiag  1:
 RMSU=  8.22D-06    CP:  1.00D+00  1.14D+00
 FoFJK:  IHMeth= 1 ICntrl=     0 DoSepK=T KAlg= 1 I1Cent= 0 FoldK=F
 E= -2905.42702342998     Delta-E=       -0.000001969278 Rises=F Damp=F
 DIIS: error= 1.01D-04 at cycle   3 NSaved=   3.
 NSaved= 3 IEnMin= 3 EnMin= -2905.42702342998     IErMin= 2 ErrMin= 9.96D-05
 ErrMax= 1.01D-04 EMaxC= 1.00D-01 BMatC= 3.12D-06 BMatP= 3.52D-06
 IDIUse=3 WtCom= 9.99D-01 WtEn= 1.01D-03
 Coeff-Com: -0.849D-02 0.488D+00 0.521D+00
 Coeff-En:   0.000D+00 0.182D+00 0.818D+00
 Coeff:     -0.849D-02 0.487D+00 0.521D+00
 Gap=     0.407 Goal=   None    Shift=    0.000
 RMSDP=5.03D-06 MaxDP=2.52D-04 DE=-1.97D-06 OVMax= 4.30D-04

 Cycle   4  Pass 1  IDiag  1:
 RMSU=  2.82D-06    CP:  1.00D+00  1.16D+00  7.63D-01
 FoFJK:  IHMeth= 1 ICntrl=     0 DoSepK=T KAlg= 1 I1Cent= 0 FoldK=F
 E= -2905.42702532925     Delta-E=       -0.000001899279 Rises=F Damp=F
 DIIS: error= 2.38D-05 at cycle   4 NSaved=   4.
 NSaved= 4 IEnMin= 4 EnMin= -2905.42702532925     IErMin= 4 ErrMin= 2.38D-05
 ErrMax= 2.38D-05 EMaxC= 1.00D-01 BMatC= 1.64D-07 BMatP= 3.12D-06
 IDIUse=1 WtCom= 1.00D+00 WtEn= 0.00D+00
 Coeff-Com: -0.250D-02 0.488D-01 0.181D+00 0.773D+00
 Coeff:     -0.250D-02 0.488D-01 0.181D+00 0.773D+00
 Gap=     0.407 Goal=   None    Shift=    0.000
 RMSDP=1.96D-06 MaxDP=6.54D-05 DE=-1.90D-06 OVMax= 1.17D-04

 Cycle   5  Pass 1  IDiag  1:
 RMSU=  9.47D-07    CP:  1.00D+00  1.17D+00  8.56D-01  1.05D+00
 FoFJK:  IHMeth= 1 ICntrl=     0 DoSepK=T KAlg= 1 I1Cent= 0 FoldK=F
 E= -2905.42702545356     Delta-E=       -0.000000124302 Rises=F Damp=F
 DIIS: error= 9.97D-06 at cycle   5 NSaved=   5.
 NSaved= 5 IEnMin= 5 EnMin= -2905.42702545356     IErMin= 5 ErrMin= 9.97D-06
 ErrMax= 9.97D-06 EMaxC= 1.00D-01 BMatC= 2.54D-08 BMatP= 1.64D-07
 IDIUse=1 WtCom= 1.00D+00 WtEn= 0.00D+00
 Coeff-Com:  0.234D-03-0.560D-01-0.578D-02 0.318D+00 0.743D+00
 Coeff:      0.234D-03-0.560D-01-0.578D-02 0.318D+00 0.743D+00
 Gap=     0.407 Goal=   None    Shift=    0.000
 RMSDP=9.53D-07 MaxDP=5.63D-05 DE=-1.24D-07 OVMax= 4.48D-05

 Cycle   6  Pass 1  IDiag  1:
 RMSU=  3.12D-07    CP:  1.00D+00  1.18D+00  8.98D-01  1.19D+00  9.55D-01
 FoFJK:  IHMeth= 1 ICntrl=     0 DoSepK=T KAlg= 1 I1Cent= 0 FoldK=F
 E= -2905.42702547522     Delta-E=       -0.000000021660 Rises=F Damp=F
 DIIS: error= 1.84D-06 at cycle   6 NSaved=   6.
 NSaved= 6 IEnMin= 6 EnMin= -2905.42702547522     IErMin= 6 ErrMin= 1.84D-06
 ErrMax= 1.84D-06 EMaxC= 1.00D-01 BMatC= 1.02D-09 BMatP= 2.54D-08
 IDIUse=1 WtCom= 1.00D+00 WtEn= 0.00D+00
 Coeff-Com:  0.191D-03-0.194D-01-0.110D-01 0.542D-01 0.226D+00 0.750D+00
 Coeff:      0.191D-03-0.194D-01-0.110D-01 0.542D-01 0.226D+00 0.750D+00
 Gap=     0.407 Goal=   None    Shift=    0.000
 RMSDP=1.84D-07 MaxDP=6.70D-06 DE=-2.17D-08 OVMax= 1.02D-05

 Cycle   7  Pass 1  IDiag  1:
 RMSU=  7.68D-08    CP:  1.00D+00  1.18D+00  9.04D-01  1.21D+00  1.02D+00
                    CP:  1.06D+00
 FoFJK:  IHMeth= 1 ICntrl=     0 DoSepK=T KAlg= 1 I1Cent= 0 FoldK=F
 E= -2905.42702547632     Delta-E=       -0.000000001103 Rises=F Damp=F
 DIIS: error= 5.69D-07 at cycle   7 NSaved=   7.
 NSaved= 7 IEnMin= 7 EnMin= -2905.42702547632     IErMin= 7 ErrMin= 5.69D-07
 ErrMax= 5.69D-07 EMaxC= 1.00D-01 BMatC= 5.80D-11 BMatP= 1.02D-09
 IDIUse=1 WtCom= 1.00D+00 WtEn= 0.00D+00
 Coeff-Com: -0.225D-04 0.661D-02 0.890D-03-0.392D-01-0.860D-01 0.161D-01
 Coeff-Com:  0.110D+01
 Coeff:     -0.225D-04 0.661D-02 0.890D-03-0.392D-01-0.860D-01 0.161D-01
 Coeff:      0.110D+01
 Gap=     0.407 Goal=   None    Shift=    0.000
 RMSDP=9.64D-08 MaxDP=5.13D-06 DE=-1.10D-09 OVMax= 6.32D-06

 Cycle   8  Pass 1  IDiag  1:
 RMSU=  2.74D-08    CP:  1.00D+00  1.18D+00  9.07D-01  1.22D+00  1.04D+00
                    CP:  1.20D+00  1.24D+00
 FoFJK:  IHMeth= 1 ICntrl=     0 DoSepK=T KAlg= 1 I1Cent= 0 FoldK=F
 E= -2905.42702547647     Delta-E=       -0.000000000146 Rises=F Damp=F
 DIIS: error= 5.70D-08 at cycle   8 NSaved=   8.
 NSaved= 8 IEnMin= 8 EnMin= -2905.42702547647     IErMin= 8 ErrMin= 5.70D-08
 ErrMax= 5.70D-08 EMaxC= 1.00D-01 BMatC= 2.23D-12 BMatP= 5.80D-11
 IDIUse=1 WtCom= 1.00D+00 WtEn= 0.00D+00
 Coeff-Com: -0.120D-04 0.191D-02 0.556D-03-0.910D-02-0.224D-01-0.235D-01
 Coeff-Com:  0.166D+00 0.886D+00
 Coeff:     -0.120D-04 0.191D-02 0.556D-03-0.910D-02-0.224D-01-0.235D-01
 Coeff:      0.166D+00 0.886D+00
 Gap=     0.407 Goal=   None    Shift=    0.000
 RMSDP=1.34D-08 MaxDP=5.82D-07 DE=-1.46D-10 OVMax= 9.83D-07

 Cycle   9  Pass 1  IDiag  1:
 RMSU=  5.15D-09    CP:  1.00D+00  1.18D+00  9.07D-01  1.22D+00  1.04D+00
                    CP:  1.21D+00  1.29D+00  1.23D+00
 FoFJK:  IHMeth= 1 ICntrl=     0 DoSepK=T KAlg= 1 I1Cent= 0 FoldK=F
 E= -2905.42702547650     Delta-E=       -0.000000000035 Rises=F Damp=F
 DIIS: error= 2.05D-08 at cycle   9 NSaved=   9.
 NSaved= 9 IEnMin= 9 EnMin= -2905.42702547650     IErMin= 9 ErrMin= 2.05D-08
 ErrMax= 2.05D-08 EMaxC= 1.00D-01 BMatC= 1.99D-13 BMatP= 2.23D-12
 IDIUse=1 WtCom= 1.00D+00 WtEn= 0.00D+00
 Coeff-Com:  0.156D-05-0.497D-03-0.617D-04 0.294D-02 0.684D-02-0.248D-02
 Coeff-Com: -0.908D-01 0.596D-01 0.102D+01
 Coeff:      0.156D-05-0.497D-03-0.617D-04 0.294D-02 0.684D-02-0.248D-02
 Coeff:     -0.908D-01 0.596D-01 0.102D+01
 Gap=     0.407 Goal=   None    Shift=    0.000
 RMSDP=6.53D-09 MaxDP=2.65D-07 DE=-3.46D-11 OVMax= 4.50D-07

 SCF Done:  E(RwB97XD) =  -2905.42702548     A.U. after    9 cycles
             Convg  =    0.6530D-08             -V/T =  2.0016
 KE= 2.900907702130D+03 PE=-7.221667380070D+03 EE= 1.273681422199D+03
 Leave Link  502 at Thu Apr 16 11:54:43 2020, MaxMem= 1073741824 cpu:     239.5
 (Enter /home/matheus/.gaussian/g09/l108.exe)
 Variable Step   Value    
 -------- ---- -----------
     1       3    6.236096
 Leave Link  108 at Thu Apr 16 11:54:43 2020, MaxMem= 1073741824 cpu:       0.0
 (Enter /home/matheus/.gaussian/g09/l202.exe)
 ---------------------------------------------------------------------------------------------------
                            Z-MATRIX (ANGSTROMS AND DEGREES)
   CD    Cent   Atom    N1       Length/X        N2       Alpha/Y        N3        Beta/Z          J
 ---------------------------------------------------------------------------------------------------
      1      1  O        0   0.000000          0.000000          0.725000
      2      2  O        0   0.000000          0.000000         -0.725000
      3      3  H        0  -0.314221         -0.863315          1.023510
      4      4  H        0   0.000000          0.918721         -1.023510
      5      5  Kr       0   0.000000          3.300000          0.000000
 ---------------------------------------------------------------------------------------------------
                         Z-Matrix orientation:                         
 ---------------------------------------------------------------------
 Center     Atomic      Atomic             Coordinates (Angstroms)
 Number     Number       Type             X           Y           Z
 ---------------------------------------------------------------------
      1          8           0        0.000000    0.000000    0.725000
      2          8           0        0.000000    0.000000   -0.725000
      3          1           0       -0.314221   -0.863315    1.023510
      4          1           0        0.000000    0.918721   -1.023510
      5         36           0        0.000000    3.300000    0.000000
 ---------------------------------------------------------------------
                    Distance matrix (angstroms):
                    1          2          3          4          5
     1  O    0.000000
     2  O    1.450000   0.000000
     3  H    0.966000   1.975180   0.000000
     4  H    1.975180   0.966000   2.732157   0.000000
     5  Kr   3.378702   3.378702   4.298779   2.591923   0.000000
 Stoichiometry    H2KrO2
 Framework group  C1[X(H2KrO2)]
 Deg. of freedom     9
 Full point group                 C1      NOp   1
 RotChk:  IX=0 Diff= 1.52D-03
 Largest Abelian subgroup         C1      NOp   1
 Largest concise Abelian subgroup C1      NOp   1
                         Standard orientation:                         
 ---------------------------------------------------------------------
 Center     Atomic      Atomic             Coordinates (Angstroms)
 Number     Number       Type             X           Y           Z
 ---------------------------------------------------------------------
      1          8           0       -2.211567   -0.690901   -0.042453
      2          8           0       -2.189785    0.758299    0.000514
      3          1           0       -3.081550   -0.985373    0.256833
      4          1           0       -1.266708    1.042650    0.015685
      5         36           0        1.098863   -0.016568    0.001750
 ---------------------------------------------------------------------
 Rotational constants (GHZ):     26.5888360      1.9072946      1.7807575
 Leave Link  202 at Thu Apr 16 11:54:43 2020, MaxMem= 1073741824 cpu:       0.0
 (Enter /home/matheus/.gaussian/g09/l301.exe)
 Standard basis: Aug-CC-pVTZ (5D, 7F)
 Ernie: Thresh=  0.10000D-02 Tol=  0.10000D-05 Strict=F.
 Ernie:  38 primitive shells out of 205 were deleted.
 There are   197 symmetry adapted basis functions of A   symmetry.
 Integral buffers will be    131072 words long.
 Raffenetti 2 integral format.
 Two-electron integral symmetry is turned on.
   197 basis functions,   415 primitive gaussians,   229 cartesian basis functions
    27 alpha electrons       27 beta electrons
       nuclear repulsion energy       138.5973714925 Hartrees.
 IExCor= 4639 DFT=T Ex+Corr=wB97XD ExCW=0 ScaHFX=  1.000000
 ScaDFX=  1.000000  1.000000  1.000000  1.000000 ScalE2=  1.000000  1.000000
 IRadAn=      5 IRanWt=     -1 IRanGd=            0 ICorTp=0
  HFx wShort=  0.000000 wLong=  0.250000 cFull=  0.222036 cShort=  0.000000 cLong=  0.777964
  DFx wShort=  0.000000 wLong=  0.250000 cFull=  0.000000 cShort=  0.000000 cLong=  1.000000
 NAtoms=    5 NActive=    5 NUniq=    5 SFac= 1.00D+00 NAtFMM=   60 NAOKFM=F Big=F
 R6Disp: Dispersion energy =        -0.0009249392 Hartrees.
 Nuclear repulsion after empirical dispersion term =      138.5964465533 Hartrees.
 Leave Link  301 at Thu Apr 16 11:54:43 2020, MaxMem= 1073741824 cpu:       0.2
 (Enter /home/matheus/.gaussian/g09/l302.exe)
 NPDir=0 NMtPBC=     1 NCelOv=     1 NCel=       1 NClECP=     1 NCelD=      1
         NCelK=      1 NCelE2=     1 NClLst=     1 CellRange=     0.0.
 One-electron integrals computed using PRISM.
 NBasis=   197 RedAO= T  NBF=   197
 NBsUse=   197 1.00D-06 NBFU=   197
 Precomputing XC quadrature grid using
 IXCGrd= 2 IRadAn=           5 IRanWt=          -1 IRanGd=           0 AccXCQ= 0.00D+00.
 NRdTot=     427 NPtTot=      123814 NUsed=      126881 NTot=      126913
 NSgBfM=   229   229   229   229   229 NAtAll=     5     5.
 Leave Link  302 at Thu Apr 16 11:54:43 2020, MaxMem= 1073741824 cpu:       1.0
 (Enter /home/matheus/.gaussian/g09/l303.exe)
 DipDrv:  MaxL=1.
 Leave Link  303 at Thu Apr 16 11:54:43 2020, MaxMem= 1073741824 cpu:       0.2
 (Enter /home/matheus/.gaussian/g09/l401.exe)
 Initial guess read from the read-write file.
 B after Tr=     0.000000    0.000000    0.000000
         Rot=    1.000000    0.000000    0.000000    0.000000 Ang=   0.00 deg.
 Guess basis will be translated and rotated to current coordinates.
 Initial guess orbital symmetries:
       Occupied  (A) (A) (A) (A) (A) (A) (A) (A) (A) (A) (A) (A)
                 (A) (A) (A) (A) (A) (A) (A) (A) (A) (A) (A) (A)
                 (A) (A) (A)
       Virtual   (A) (A) (A) (A) (A) (A) (A) (A) (A) (A) (A) (A)
                 (A) (A) (A) (A) (A) (A) (A) (A) (A) (A) (A) (A)
                 (A) (A) (A) (A) (A) (A) (A) (A) (A) (A) (A) (A)
                 (A) (A) (A) (A) (A) (A) (A) (A) (A) (A) (A) (A)
                 (A) (A) (A) (A) (A) (A) (A) (A) (A) (A) (A) (A)
                 (A) (A) (A) (A) (A) (A) (A) (A) (A) (A) (A) (A)
                 (A) (A) (A) (A) (A) (A) (A) (A) (A) (A) (A) (A)
                 (A) (A) (A) (A) (A) (A) (A) (A) (A) (A) (A) (A)
                 (A) (A) (A) (A) (A) (A) (A) (A) (A) (A) (A) (A)
                 (A) (A) (A) (A) (A) (A) (A) (A) (A) (A) (A) (A)
                 (A) (A) (A) (A) (A) (A) (A) (A) (A) (A) (A) (A)
                 (A) (A) (A) (A) (A) (A) (A) (A) (A) (A) (A) (A)
                 (A) (A) (A) (A) (A) (A) (A) (A) (A) (A) (A) (A)
                 (A) (A) (A) (A) (A) (A) (A) (A) (A) (A) (A) (A)
                 (A) (A)
 The electronic state of the initial guess is 1-A.
 Generating alternative initial guess.
 Harris functional with IExCor= 4639 diagonalized for initial guess.
 ExpMin= 2.53D-02 ExpMax= 1.17D+07 ExpMxC= 1.33D+04 IAcc=3 IRadAn=         5 AccDes= 0.00D+00
 HarFok:  IExCor= 4639 AccDes= 0.00D+00 IRadAn=         5 IDoV= 1
 ScaDFX=  1.000000  1.000000  1.000000  1.000000
 FoFCou: FMM=F IPFlag=           0 FMFlag=      100000 FMFlg1=           0
         NFxFlg=           0 DoJE=T BraDBF=F KetDBF=T FulRan=T
         Omega=  0.000000  0.000000  1.000000  0.000000  0.000000 ICntrl=     500 IOpCl=  0
         NMat0=    1 NMatS0=    1 NMatT0=    0 NMatD0=    1 NMtDS0=    0 NMtDT0=    0
         I1Cent=           4 NGrid=           0.
 Petite list used in FoFCou.
 Harris En= -2875.40079077522    
 Leave Link  401 at Thu Apr 16 11:54:44 2020, MaxMem= 1073741824 cpu:       4.4
 (Enter /home/matheus/.gaussian/g09/l502.exe)
 Closed shell SCF:
 Requested convergence on RMS density matrix=1.00D-08 within 128 cycles.
 Requested convergence on MAX density matrix=1.00D-06.
 Requested convergence on             energy=1.00D-06.
 No special actions if energy rises.
 Using DIIS extrapolation, IDIIS=  1040.
 Integral symmetry usage will be decided dynamically.
       126823 words used for storage of precomputed grid.
 IEnd=      305770 IEndB=      305770 NGot=  1073741824 MDV=  1073505365
 LenX=  1073505365 LenY=  1073452483
 Fock matrices will be formed incrementally for  20 cycles.

 Cycle   1  Pass 1  IDiag  1:
 FoFJK:  IHMeth= 1 ICntrl=     0 DoSepK=T KAlg= 1 I1Cent= 0 FoldK=F
 FoFCou: FMM=F IPFlag=           0 FMFlag=      100000 FMFlg1=           0
         NFxFlg=           0 DoJE=T BraDBF=F KetDBF=F FulRan=T
         Omega=  0.000000  0.000000  1.000000  0.000000  0.000000 ICntrl=     500 IOpCl=  0
         NMat0=    1 NMatS0=    1 NMatT0=    0 NMatD0=    1 NMtDS0=    0 NMtDT0=    0
         I1Cent=           0 NGrid=           0.
 Symmetry not used in FoFCou.
 E= -2905.42766853066    
 DIIS: error= 8.17D-04 at cycle   1 NSaved=   1.
 NSaved= 1 IEnMin= 1 EnMin= -2905.42766853066     IErMin= 1 ErrMin= 8.17D-04
 ErrMax= 8.17D-04 EMaxC= 1.00D-01 BMatC= 2.90D-04 BMatP= 2.90D-04
 IDIUse=3 WtCom= 9.92D-01 WtEn= 8.17D-03
 Coeff-Com:  0.100D+01
 Coeff-En:   0.100D+01
 Coeff:      0.100D+01
 Gap=     0.408 Goal=   None    Shift=    0.000
 RMSDP=6.85D-05 MaxDP=1.88D-03              OVMax= 3.12D-03

 Cycle   2  Pass 1  IDiag  1:
 RMSU=  4.84D-05    CP:  1.00D+00
 FoFJK:  IHMeth= 1 ICntrl=     0 DoSepK=T KAlg= 1 I1Cent= 0 FoldK=F
 E= -2905.42772658515     Delta-E=       -0.000058054485 Rises=F Damp=F
 DIIS: error= 8.12D-05 at cycle   2 NSaved=   2.
 NSaved= 2 IEnMin= 2 EnMin= -2905.42772658515     IErMin= 2 ErrMin= 8.12D-05
 ErrMax= 8.12D-05 EMaxC= 1.00D-01 BMatC= 2.36D-06 BMatP= 2.90D-04
 IDIUse=1 WtCom= 1.00D+00 WtEn= 0.00D+00
 Coeff-Com: -0.417D-02 0.100D+01
 Coeff:     -0.417D-02 0.100D+01
 Gap=     0.407 Goal=   None    Shift=    0.000
 RMSDP=1.36D-05 MaxDP=4.62D-04 DE=-5.81D-05 OVMax= 6.57D-04

 Cycle   3  Pass 1  IDiag  1:
 RMSU=  6.75D-06    CP:  1.00D+00  1.14D+00
 FoFJK:  IHMeth= 1 ICntrl=     0 DoSepK=T KAlg= 1 I1Cent= 0 FoldK=F
 E= -2905.42772813368     Delta-E=       -0.000001548535 Rises=F Damp=F
 DIIS: error= 8.32D-05 at cycle   3 NSaved=   3.
 NSaved= 3 IEnMin= 3 EnMin= -2905.42772813368     IErMin= 2 ErrMin= 8.12D-05
 ErrMax= 8.32D-05 EMaxC= 1.00D-01 BMatC= 1.98D-06 BMatP= 2.36D-06
 IDIUse=1 WtCom= 1.00D+00 WtEn= 0.00D+00
 Coeff-Com: -0.850D-02 0.480D+00 0.528D+00
 Coeff:     -0.850D-02 0.480D+00 0.528D+00
 Gap=     0.407 Goal=   None    Shift=    0.000
 RMSDP=4.13D-06 MaxDP=2.04D-04 DE=-1.55D-06 OVMax= 3.48D-04

 Cycle   4  Pass 1  IDiag  1:
 RMSU=  2.45D-06    CP:  1.00D+00  1.16D+00  7.94D-01
 FoFJK:  IHMeth= 1 ICntrl=     0 DoSepK=T KAlg= 1 I1Cent= 0 FoldK=F
 E= -2905.42772934375     Delta-E=       -0.000001210070 Rises=F Damp=F
 DIIS: error= 1.86D-05 at cycle   4 NSaved=   4.
 NSaved= 4 IEnMin= 4 EnMin= -2905.42772934375     IErMin= 4 ErrMin= 1.86D-05
 ErrMax= 1.86D-05 EMaxC= 1.00D-01 BMatC= 1.20D-07 BMatP= 1.98D-06
 IDIUse=1 WtCom= 1.00D+00 WtEn= 0.00D+00
 Coeff-Com: -0.227D-02 0.352D-01 0.185D+00 0.782D+00
 Coeff:     -0.227D-02 0.352D-01 0.185D+00 0.782D+00
 Gap=     0.407 Goal=   None    Shift=    0.000
 RMSDP=1.77D-06 MaxDP=5.98D-05 DE=-1.21D-06 OVMax= 1.06D-04

 Cycle   5  Pass 1  IDiag  1:
 RMSU=  8.03D-07    CP:  1.00D+00  1.17D+00  9.01D-01  1.07D+00
 FoFJK:  IHMeth= 1 ICntrl=     0 DoSepK=T KAlg= 1 I1Cent= 0 FoldK=F
 E= -2905.42772943594     Delta-E=       -0.000000092190 Rises=F Damp=F
 DIIS: error= 8.02D-06 at cycle   5 NSaved=   5.
 NSaved= 5 IEnMin= 5 EnMin= -2905.42772943594     IErMin= 5 ErrMin= 8.02D-06
 ErrMax= 8.02D-06 EMaxC= 1.00D-01 BMatC= 1.79D-08 BMatP= 1.20D-07
 IDIUse=1 WtCom= 1.00D+00 WtEn= 0.00D+00
 Coeff-Com:  0.258D-03-0.565D-01-0.243D-03 0.323D+00 0.734D+00
 Coeff:      0.258D-03-0.565D-01-0.243D-03 0.323D+00 0.734D+00
 Gap=     0.407 Goal=   None    Shift=    0.000
 RMSDP=8.09D-07 MaxDP=4.75D-05 DE=-9.22D-08 OVMax= 3.90D-05

 Cycle   6  Pass 1  IDiag  1:
 RMSU=  2.57D-07    CP:  1.00D+00  1.17D+00  9.46D-01  1.20D+00  9.43D-01
 FoFJK:  IHMeth= 1 ICntrl=     0 DoSepK=T KAlg= 1 I1Cent= 0 FoldK=F
 E= -2905.42772945121     Delta-E=       -0.000000015271 Rises=F Damp=F
 DIIS: error= 1.51D-06 at cycle   6 NSaved=   6.
 NSaved= 6 IEnMin= 6 EnMin= -2905.42772945121     IErMin= 6 ErrMin= 1.51D-06
 ErrMax= 1.51D-06 EMaxC= 1.00D-01 BMatC= 7.35D-10 BMatP= 1.79D-08
 IDIUse=1 WtCom= 1.00D+00 WtEn= 0.00D+00
 Coeff-Com:  0.191D-03-0.188D-01-0.985D-02 0.528D-01 0.222D+00 0.754D+00
 Coeff:      0.191D-03-0.188D-01-0.985D-02 0.528D-01 0.222D+00 0.754D+00
 Gap=     0.407 Goal=   None    Shift=    0.000
 RMSDP=1.59D-07 MaxDP=6.30D-06 DE=-1.53D-08 OVMax= 8.54D-06

 Cycle   7  Pass 1  IDiag  1:
 RMSU=  6.52D-08    CP:  1.00D+00  1.17D+00  9.53D-01  1.22D+00  1.00D+00
                    CP:  1.05D+00
 FoFJK:  IHMeth= 1 ICntrl=     0 DoSepK=T KAlg= 1 I1Cent= 0 FoldK=F
 E= -2905.42772945202     Delta-E=       -0.000000000811 Rises=F Damp=F
 DIIS: error= 4.76D-07 at cycle   7 NSaved=   7.
 NSaved= 7 IEnMin= 7 EnMin= -2905.42772945202     IErMin= 7 ErrMin= 4.76D-07
 ErrMax= 4.76D-07 EMaxC= 1.00D-01 BMatC= 4.30D-11 BMatP= 7.35D-10
 IDIUse=1 WtCom= 1.00D+00 WtEn= 0.00D+00
 Coeff-Com: -0.266D-04 0.690D-02 0.238D-03-0.412D-01-0.872D-01 0.185D-01
 Coeff-Com:  0.110D+01
 Coeff:     -0.266D-04 0.690D-02 0.238D-03-0.412D-01-0.872D-01 0.185D-01
 Coeff:      0.110D+01
 Gap=     0.407 Goal=   None    Shift=    0.000
 RMSDP=8.26D-08 MaxDP=4.57D-06 DE=-8.11D-10 OVMax= 5.48D-06

 Cycle   8  Pass 1  IDiag  1:
 RMSU=  2.41D-08    CP:  1.00D+00  1.17D+00  9.56D-01  1.23D+00  1.02D+00
                    CP:  1.19D+00  1.26D+00
 FoFJK:  IHMeth= 1 ICntrl=     0 DoSepK=T KAlg= 1 I1Cent= 0 FoldK=F
 E= -2905.42772945213     Delta-E=       -0.000000000104 Rises=F Damp=F
 DIIS: error= 5.19D-08 at cycle   8 NSaved=   8.
 NSaved= 8 IEnMin= 8 EnMin= -2905.42772945213     IErMin= 8 ErrMin= 5.19D-08
 ErrMax= 5.19D-08 EMaxC= 1.00D-01 BMatC= 1.45D-12 BMatP= 4.30D-11
 IDIUse=1 WtCom= 1.00D+00 WtEn= 0.00D+00
 Coeff-Com: -0.110D-04 0.166D-02 0.346D-03-0.802D-02-0.192D-01-0.213D-01
 Coeff-Com:  0.140D+00 0.907D+00
 Coeff:     -0.110D-04 0.166D-02 0.346D-03-0.802D-02-0.192D-01-0.213D-01
 Coeff:      0.140D+00 0.907D+00
 Gap=     0.407 Goal=   None    Shift=    0.000
 RMSDP=1.23D-08 MaxDP=4.86D-07 DE=-1.04D-10 OVMax= 8.10D-07

 Cycle   9  Pass 1  IDiag  1:
 RMSU=  4.33D-09    CP:  1.00D+00  1.17D+00  9.56D-01  1.23D+00  1.02D+00
                    CP:  1.20D+00  1.32D+00  1.25D+00
 FoFJK:  IHMeth= 1 ICntrl=     0 DoSepK=T KAlg= 1 I1Cent= 0 FoldK=F
 E= -2905.42772945213     Delta-E=       -0.000000000005 Rises=F Damp=F
 DIIS: error= 2.01D-08 at cycle   9 NSaved=   9.
 NSaved= 9 IEnMin= 9 EnMin= -2905.42772945213     IErMin= 9 ErrMin= 2.01D-08
 ErrMax= 2.01D-08 EMaxC= 1.00D-01 BMatC= 1.65D-13 BMatP= 1.45D-12
 IDIUse=1 WtCom= 1.00D+00 WtEn= 0.00D+00
 Coeff-Com:  0.213D-05-0.595D-03-0.997D-05 0.355D-02 0.790D-02-0.323D-02
 Coeff-Com: -0.102D+00 0.715D-01 0.102D+01
 Coeff:      0.213D-05-0.595D-03-0.997D-05 0.355D-02 0.790D-02-0.323D-02
 Coeff:     -0.102D+00 0.715D-01 0.102D+01
 Gap=     0.407 Goal=   None    Shift=    0.000
 RMSDP=6.06D-09 MaxDP=2.57D-07 DE=-4.55D-12 OVMax= 4.73D-07

 SCF Done:  E(RwB97XD) =  -2905.42772945     A.U. after    9 cycles
             Convg  =    0.6065D-08             -V/T =  2.0016
 KE= 2.900903197766D+03 PE=-7.215565618546D+03 EE= 1.270638244774D+03
 Leave Link  502 at Thu Apr 16 11:55:14 2020, MaxMem= 1073741824 cpu:     242.4
 (Enter /home/matheus/.gaussian/g09/l108.exe)
 Variable Step   Value    
 -------- ---- -----------
     1       4    6.425069
 Leave Link  108 at Thu Apr 16 11:55:14 2020, MaxMem= 1073741824 cpu:       0.0
 (Enter /home/matheus/.gaussian/g09/l202.exe)
 ---------------------------------------------------------------------------------------------------
                            Z-MATRIX (ANGSTROMS AND DEGREES)
   CD    Cent   Atom    N1       Length/X        N2       Alpha/Y        N3        Beta/Z          J
 ---------------------------------------------------------------------------------------------------
      1      1  O        0   0.000000          0.000000          0.725000
      2      2  O        0   0.000000          0.000000         -0.725000
      3      3  H        0  -0.314221         -0.863315          1.023510
      4      4  H        0   0.000000          0.918721         -1.023510
      5      5  Kr       0   0.000000          3.400000          0.000000
 ---------------------------------------------------------------------------------------------------
                         Z-Matrix orientation:                         
 ---------------------------------------------------------------------
 Center     Atomic      Atomic             Coordinates (Angstroms)
 Number     Number       Type             X           Y           Z
 ---------------------------------------------------------------------
      1          8           0        0.000000    0.000000    0.725000
      2          8           0        0.000000    0.000000   -0.725000
      3          1           0       -0.314221   -0.863315    1.023510
      4          1           0        0.000000    0.918721   -1.023510
      5         36           0        0.000000    3.400000    0.000000
 ---------------------------------------------------------------------
                    Distance matrix (angstroms):
                    1          2          3          4          5
     1  O    0.000000
[...]
 FoFJK:  IHMeth= 1 ICntrl=     0 DoSepK=T KAlg= 1 I1Cent= 0 FoldK=F
 E= -2905.42775134183     Delta-E=       -0.000000001190 Rises=F Damp=F
 DIIS: error= 8.94D-07 at cycle   5 NSaved=   5.
 NSaved= 5 IEnMin= 5 EnMin= -2905.42775134183     IErMin= 5 ErrMin= 8.94D-07
 ErrMax= 8.94D-07 EMaxC= 1.00D-01 BMatC= 2.05D-10 BMatP= 1.66D-09
 IDIUse=1 WtCom= 1.00D+00 WtEn= 0.00D+00
 Coeff-Com:  0.419D-03-0.556D-01-0.347D-01 0.254D+00 0.836D+00
 Coeff:      0.419D-03-0.556D-01-0.347D-01 0.254D+00 0.836D+00
 Gap=     0.408 Goal=   None    Shift=    0.000
 RMSDP=9.12D-08 MaxDP=3.41D-06 DE=-1.19D-09 OVMax= 6.12D-06

 Cycle   6  Pass 1  IDiag  1:
 RMSU=  3.43D-08    CP:  1.00D+00  1.11D+00  1.13D+00  1.05D+00  1.05D+00
 FoFJK:  IHMeth= 1 ICntrl=     0 DoSepK=T KAlg= 1 I1Cent= 0 FoldK=F
 E= -2905.42775134205     Delta-E=       -0.000000000225 Rises=F Damp=F
 DIIS: error= 1.95D-07 at cycle   6 NSaved=   6.
 NSaved= 6 IEnMin= 6 EnMin= -2905.42775134205     IErMin= 6 ErrMin= 1.95D-07
 ErrMax= 1.95D-07 EMaxC= 1.00D-01 BMatC= 1.00D-11 BMatP= 2.05D-10
 IDIUse=1 WtCom= 1.00D+00 WtEn= 0.00D+00
 Coeff-Com:  0.227D-03-0.193D-01-0.250D-01 0.504D-01 0.273D+00 0.721D+00
 Coeff:      0.227D-03-0.193D-01-0.250D-01 0.504D-01 0.273D+00 0.721D+00
 Gap=     0.408 Goal=   None    Shift=    0.000
 RMSDP=1.54D-08 MaxDP=6.01D-07 DE=-2.25D-10 OVMax= 1.02D-06

 Cycle   7  Pass 1  IDiag  1:
 RMSU=  8.50D-09    CP:  1.00D+00  1.11D+00  1.14D+00  1.07D+00  1.10D+00
                    CP:  1.08D+00
 FoFJK:  IHMeth= 1 ICntrl=     0 DoSepK=T KAlg= 1 I1Cent= 0 FoldK=F
 E= -2905.42775134207     Delta-E=       -0.000000000017 Rises=F Damp=F
 DIIS: error= 8.48D-08 at cycle   7 NSaved=   7.
 NSaved= 7 IEnMin= 7 EnMin= -2905.42775134207     IErMin= 7 ErrMin= 8.48D-08
 ErrMax= 8.48D-08 EMaxC= 1.00D-01 BMatC= 1.02D-12 BMatP= 1.00D-11
 IDIUse=1 WtCom= 1.00D+00 WtEn= 0.00D+00
 Coeff-Com: -0.263D-04 0.620D-02 0.308D-03-0.376D-01-0.948D-01 0.155D+00
 Coeff-Com:  0.971D+00
 Coeff:     -0.263D-04 0.620D-02 0.308D-03-0.376D-01-0.948D-01 0.155D+00
 Coeff:      0.971D+00
 Gap=     0.408 Goal=   None    Shift=    0.000
 RMSDP=1.04D-08 MaxDP=3.42D-07 DE=-1.73D-11 OVMax= 6.25D-07

 Cycle   8  Pass 1  IDiag  1:
 RMSU=  3.05D-09    CP:  1.00D+00  1.11D+00  1.14D+00  1.08D+00  1.13D+00
                    CP:  1.24D+00  1.16D+00
 FoFJK:  IHMeth= 1 ICntrl=     0 DoSepK=T KAlg= 1 I1Cent= 0 FoldK=F
 E= -2905.42775134206     Delta-E=        0.000000000008 Rises=F Damp=F
 DIIS: error= 1.19D-08 at cycle   8 NSaved=   8.
 NSaved= 8 IEnMin= 7 EnMin= -2905.42775134207     IErMin= 8 ErrMin= 1.19D-08
 ErrMax= 1.19D-08 EMaxC= 1.00D-01 BMatC= 2.25D-14 BMatP= 1.02D-12
 IDIUse=1 WtCom= 1.00D+00 WtEn= 0.00D+00
 Coeff-Com: -0.512D-05 0.217D-03 0.556D-03 0.448D-03-0.283D-02-0.271D-01
 Coeff-Com: -0.427D-01 0.107D+01
 Coeff:     -0.512D-05 0.217D-03 0.556D-03 0.448D-03-0.283D-02-0.271D-01
 Coeff:     -0.427D-01 0.107D+01
 Gap=     0.408 Goal=   None    Shift=    0.000
 RMSDP=2.07D-09 MaxDP=6.21D-08 DE= 8.19D-12 OVMax= 2.46D-07

 SCF Done:  E(RwB97XD) =  -2905.42775134     A.U. after    8 cycles
             Convg  =    0.2067D-08             -V/T =  2.0016
 KE= 2.900915875620D+03 PE=-7.150598602515D+03 EE= 1.238233952602D+03
 Leave Link  502 at Thu Apr 16 12:01:45 2020, MaxMem= 1073741824 cpu:     161.8
 (Enter /home/matheus/.gaussian/g09/l108.exe)
 Variable Step   Value    
 -------- ---- -----------
     1      20    9.448631
 Leave Link  108 at Thu Apr 16 12:01:45 2020, MaxMem= 1073741824 cpu:       0.0
 (Enter /home/matheus/.gaussian/g09/l202.exe)
 ---------------------------------------------------------------------------------------------------
                            Z-MATRIX (ANGSTROMS AND DEGREES)
   CD    Cent   Atom    N1       Length/X        N2       Alpha/Y        N3        Beta/Z          J
 ---------------------------------------------------------------------------------------------------
      1      1  O        0   0.000000          0.000000          0.725000
      2      2  O        0   0.000000          0.000000         -0.725000
      3      3  H        0  -0.314221         -0.863315          1.023510
      4      4  H        0   0.000000          0.918721         -1.023510
      5      5  Kr       0   0.000000          5.000000          0.000000
 ---------------------------------------------------------------------------------------------------
                         Z-Matrix orientation:                         
 ---------------------------------------------------------------------
 Center     Atomic      Atomic             Coordinates (Angstroms)
 Number     Number       Type             X           Y           Z
 ---------------------------------------------------------------------
      1          8           0        0.000000    0.000000    0.725000
      2          8           0        0.000000    0.000000   -0.725000
      3          1           0       -0.314221   -0.863315    1.023510
      4          1           0        0.000000    0.918721   -1.023510
      5         36           0        0.000000    5.000000    0.000000
 ---------------------------------------------------------------------
                    Distance matrix (angstroms):
                    1          2          3          4          5
     1  O    0.000000
     2  O    1.450000   0.000000
     3  H    0.966000   1.975180   0.000000
     4  H    1.975180   0.966000   2.732157   0.000000
     5  Kr   5.052289   5.052289   5.960266   4.207661   0.000000
 Stoichiometry    H2KrO2
 Framework group  C1[X(H2KrO2)]
 Deg. of freedom     9
 Full point group                 C1      NOp   1
 RotChk:  IX=0 Diff= 4.09D-04
 Largest Abelian subgroup         C1      NOp   1
 Largest concise Abelian subgroup C1      NOp   1
                         Standard orientation:                         
 ---------------------------------------------------------------------
 Center     Atomic      Atomic             Coordinates (Angstroms)
 Number     Number       Type             X           Y           Z
 ---------------------------------------------------------------------
      1          8           0       -3.338788   -0.703117   -0.041633
      2          8           0       -3.329684    0.746197    0.002021
      3          1           0       -4.205330   -1.005406    0.259834
      4          1           0       -2.409117    1.038679    0.014862
      5         36           0        1.665617   -0.010497    0.001172
 ---------------------------------------------------------------------
 Rotational constants (GHZ):     26.5767121      0.8335823      0.8084647
 Leave Link  202 at Thu Apr 16 12:01:45 2020, MaxMem= 1073741824 cpu:       0.0
 (Enter /home/matheus/.gaussian/g09/l301.exe)
 Standard basis: Aug-CC-pVTZ (5D, 7F)
 Ernie: Thresh=  0.10000D-02 Tol=  0.10000D-05 Strict=F.
 Ernie:  38 primitive shells out of 205 were deleted.
 There are   197 symmetry adapted basis functions of A   symmetry.
 Integral buffers will be    131072 words long.
 Raffenetti 2 integral format.
 Two-electron integral symmetry is turned on.
   197 basis functions,   415 primitive gaussians,   229 cartesian basis functions
    27 alpha electrons       27 beta electrons
       nuclear repulsion energy       104.6559929900 Hartrees.
 IExCor= 4639 DFT=T Ex+Corr=wB97XD ExCW=0 ScaHFX=  1.000000
 ScaDFX=  1.000000  1.000000  1.000000  1.000000 ScalE2=  1.000000  1.000000
 IRadAn=      5 IRanWt=     -1 IRanGd=            0 ICorTp=0
  HFx wShort=  0.000000 wLong=  0.250000 cFull=  0.222036 cShort=  0.000000 cLong=  0.777964
  DFx wShort=  0.000000 wLong=  0.250000 cFull=  0.000000 cShort=  0.000000 cLong=  1.000000
 NAtoms=    5 NActive=    5 NUniq=    5 SFac= 1.00D+00 NAtFMM=   60 NAOKFM=F Big=F
 R6Disp: Dispersion energy =        -0.0004286147 Hartrees.
 Nuclear repulsion after empirical dispersion term =      104.6555643753 Hartrees.
 Leave Link  301 at Thu Apr 16 12:01:45 2020, MaxMem= 1073741824 cpu:       0.2
 (Enter /home/matheus/.gaussian/g09/l302.exe)
 NPDir=0 NMtPBC=     1 NCelOv=     1 NCel=       1 NClECP=     1 NCelD=      1
         NCelK=      1 NCelE2=     1 NClLst=     1 CellRange=     0.0.
 One-electron integrals computed using PRISM.
 NBasis=   197 RedAO= T  NBF=   197
 NBsUse=   197 1.00D-06 NBFU=   197
 Precomputing XC quadrature grid using
 IXCGrd= 2 IRadAn=           5 IRanWt=          -1 IRanGd=           0 AccXCQ= 0.00D+00.
 NRdTot=     428 NPtTot=      124116 NUsed=      127190 NTot=      127222
 NSgBfM=   228   228   229   229   229 NAtAll=     5     5.
 Leave Link  302 at Thu Apr 16 12:01:45 2020, MaxMem= 1073741824 cpu:       1.1
 (Enter /home/matheus/.gaussian/g09/l303.exe)
 DipDrv:  MaxL=1.
 Leave Link  303 at Thu Apr 16 12:01:45 2020, MaxMem= 1073741824 cpu:       0.2
 (Enter /home/matheus/.gaussian/g09/l401.exe)
 Initial guess read from the read-write file.
 B after Tr=     0.000000    0.000000    0.000000
         Rot=    1.000000    0.000000    0.000000    0.000000 Ang=   0.00 deg.
 Guess basis will be translated and rotated to current coordinates.
 Initial guess orbital symmetries:
       Occupied  (A) (A) (A) (A) (A) (A) (A) (A) (A) (A) (A) (A)
                 (A) (A) (A) (A) (A) (A) (A) (A) (A) (A) (A) (A)
                 (A) (A) (A)
       Virtual   (A) (A) (A) (A) (A) (A) (A) (A) (A) (A) (A) (A)
                 (A) (A) (A) (A) (A) (A) (A) (A) (A) (A) (A) (A)
                 (A) (A) (A) (A) (A) (A) (A) (A) (A) (A) (A) (A)
                 (A) (A) (A) (A) (A) (A) (A) (A) (A) (A) (A) (A)
                 (A) (A) (A) (A) (A) (A) (A) (A) (A) (A) (A) (A)
                 (A) (A) (A) (A) (A) (A) (A) (A) (A) (A) (A) (A)
                 (A) (A) (A) (A) (A) (A) (A) (A) (A) (A) (A) (A)
                 (A) (A) (A) (A) (A) (A) (A) (A) (A) (A) (A) (A)
                 (A) (A) (A) (A) (A) (A) (A) (A) (A) (A) (A) (A)
                 (A) (A) (A) (A) (A) (A) (A) (A) (A) (A) (A) (A)
                 (A) (A) (A) (A) (A) (A) (A) (A) (A) (A) (A) (A)
                 (A) (A) (A) (A) (A) (A) (A) (A) (A) (A) (A) (A)
                 (A) (A) (A) (A) (A) (A) (A) (A) (A) (A) (A) (A)
                 (A) (A) (A) (A) (A) (A) (A) (A) (A) (A) (A) (A)
                 (A) (A)
 The electronic state of the initial guess is 1-A.
 Generating alternative initial guess.
 Harris functional with IExCor= 4639 diagonalized for initial guess.
 ExpMin= 2.53D-02 ExpMax= 1.17D+07 ExpMxC= 1.33D+04 IAcc=3 IRadAn=         5 AccDes= 0.00D+00
 HarFok:  IExCor= 4639 AccDes= 0.00D+00 IRadAn=         5 IDoV= 1
 ScaDFX=  1.000000  1.000000  1.000000  1.000000
 FoFCou: FMM=F IPFlag=           0 FMFlag=      100000 FMFlg1=           0
         NFxFlg=           0 DoJE=T BraDBF=F KetDBF=T FulRan=T
         Omega=  0.000000  0.000000  1.000000  0.000000  0.000000 ICntrl=     500 IOpCl=  0
         NMat0=    1 NMatS0=    1 NMatT0=    0 NMatD0=    1 NMtDS0=    0 NMtDT0=    0
         I1Cent=           4 NGrid=           0.
 Petite list used in FoFCou.
 Harris En= -2875.40202131844    
 Leave Link  401 at Thu Apr 16 12:01:46 2020, MaxMem= 1073741824 cpu:       4.8
 (Enter /home/matheus/.gaussian/g09/l502.exe)
 Closed shell SCF:
 Requested convergence on RMS density matrix=1.00D-08 within 128 cycles.
 Requested convergence on MAX density matrix=1.00D-06.
 Requested convergence on             energy=1.00D-06.
 No special actions if energy rises.
 Using DIIS extrapolation, IDIIS=  1040.
 Integral symmetry usage will be decided dynamically.
       127132 words used for storage of precomputed grid.
 IEnd=      306079 IEndB=      306079 NGot=  1073741824 MDV=  1073505056
 LenX=  1073505056 LenY=  1073452174
 Fock matrices will be formed incrementally for  20 cycles.

 Cycle   1  Pass 1  IDiag  1:
 FoFJK:  IHMeth= 1 ICntrl=     0 DoSepK=T KAlg= 1 I1Cent= 0 FoldK=F
 FoFCou: FMM=F IPFlag=           0 FMFlag=      100000 FMFlg1=           0
         NFxFlg=           0 DoJE=T BraDBF=F KetDBF=F FulRan=T
         Omega=  0.000000  0.000000  1.000000  0.000000  0.000000 ICntrl=     500 IOpCl=  0
         NMat0=    1 NMatS0=    1 NMatT0=    0 NMatD0=    1 NMtDS0=    0 NMtDT0=    0
         I1Cent=           0 NGrid=           0.
 Symmetry not used in FoFCou.
 E= -2905.42770550862    
 DIIS: error= 1.32D-04 at cycle   1 NSaved=   1.
 NSaved= 1 IEnMin= 1 EnMin= -2905.42770550862     IErMin= 1 ErrMin= 1.32D-04
 ErrMax= 1.32D-04 EMaxC= 1.00D-01 BMatC= 3.83D-06 BMatP= 3.83D-06
 IDIUse=3 WtCom= 9.99D-01 WtEn= 1.32D-03
 Coeff-Com:  0.100D+01
 Coeff-En:   0.100D+01
 Coeff:      0.100D+01
 Gap=     0.408 Goal=   None    Shift=    0.000
 RMSDP=1.98D-05 MaxDP=7.07D-04              OVMax= 3.94D-04

 Cycle   2  Pass 1  IDiag  1:
 RMSU=  1.40D-05    CP:  1.00D+00
 FoFJK:  IHMeth= 1 ICntrl=     0 DoSepK=T KAlg= 1 I1Cent= 0 FoldK=F
 E= -2905.42770631515     Delta-E=       -0.000000806535 Rises=F Damp=F
 DIIS: error= 1.12D-05 at cycle   2 NSaved=   2.
 NSaved= 2 IEnMin= 2 EnMin= -2905.42770631515     IErMin= 2 ErrMin= 1.12D-05
 ErrMax= 1.12D-05 EMaxC= 1.00D-01 BMatC= 2.13D-08 BMatP= 3.83D-06
 IDIUse=1 WtCom= 1.00D+00 WtEn= 0.00D+00
 Coeff-Com: -0.455D-02 0.100D+01
 Coeff:     -0.455D-02 0.100D+01
 Gap=     0.408 Goal=   None    Shift=    0.000
 RMSDP=2.07D-06 MaxDP=5.69D-05 DE=-8.07D-07 OVMax= 7.61D-05

 Cycle   3  Pass 1  IDiag  1:
 RMSU=  8.07D-07    CP:  1.00D+00  1.09D+00
 FoFJK:  IHMeth= 1 ICntrl=     0 DoSepK=T KAlg= 1 I1Cent= 0 FoldK=F
 E= -2905.42770634053     Delta-E=       -0.000000025382 Rises=F Damp=F
 DIIS: error= 6.04D-06 at cycle   3 NSaved=   3.
 NSaved= 3 IEnMin= 3 EnMin= -2905.42770634053     IErMin= 3 ErrMin= 6.04D-06
 ErrMax= 6.04D-06 EMaxC= 1.00D-01 BMatC= 6.08D-09 BMatP= 2.13D-08
 IDIUse=1 WtCom= 1.00D+00 WtEn= 0.00D+00
 Coeff-Com: -0.539D-02 0.315D+00 0.691D+00
 Coeff:     -0.539D-02 0.315D+00 0.691D+00
 Gap=     0.408 Goal=   None    Shift=    0.000
 RMSDP=3.09D-07 MaxDP=1.14D-05 DE=-2.54D-08 OVMax= 2.21D-05

 Cycle   4  Pass 1  IDiag  1:
 RMSU=  1.88D-07    CP:  1.00D+00  1.10D+00  1.00D+00
 FoFJK:  IHMeth= 1 ICntrl=     0 DoSepK=T KAlg= 1 I1Cent= 0 FoldK=F
 E= -2905.42770634494     Delta-E=       -0.000000004407 Rises=F Damp=F
 DIIS: error= 2.45D-06 at cycle   4 NSaved=   4.
 NSaved= 4 IEnMin= 4 EnMin= -2905.42770634494     IErMin= 4 ErrMin= 2.45D-06
 ErrMax= 2.45D-06 EMaxC= 1.00D-01 BMatC= 1.32D-09 BMatP= 6.08D-09
 IDIUse=1 WtCom= 1.00D+00 WtEn= 0.00D+00
 Coeff-Com: -0.196D-02 0.445D-01 0.306D+00 0.651D+00
 Coeff:     -0.196D-02 0.445D-01 0.306D+00 0.651D+00
 Gap=     0.408 Goal=   None    Shift=    0.000
 RMSDP=1.66D-07 MaxDP=5.83D-06 DE=-4.41D-09 OVMax= 9.54D-06

 Cycle   5  Pass 1  IDiag  1:
 RMSU=  7.82D-08    CP:  1.00D+00  1.10D+00  1.10D+00  9.31D-01
 FoFJK:  IHMeth= 1 ICntrl=     0 DoSepK=T KAlg= 1 I1Cent= 0 FoldK=F
 E= -2905.42770634586     Delta-E=       -0.000000000923 Rises=F Damp=F
 DIIS: error= 8.23D-07 at cycle   5 NSaved=   5.
 NSaved= 5 IEnMin= 5 EnMin= -2905.42770634586     IErMin= 5 ErrMin= 8.23D-07
 ErrMax= 8.23D-07 EMaxC= 1.00D-01 BMatC= 1.72D-10 BMatP= 1.32D-09
 IDIUse=1 WtCom= 1.00D+00 WtEn= 0.00D+00
 Coeff-Com:  0.393D-03-0.551D-01-0.329D-01 0.262D+00 0.826D+00
 Coeff:      0.393D-03-0.551D-01-0.329D-01 0.262D+00 0.826D+00
 Gap=     0.408 Goal=   None    Shift=    0.000
 RMSDP=7.93D-08 MaxDP=3.00D-06 DE=-9.23D-10 OVMax= 5.20D-06

 Cycle   6  Pass 1  IDiag  1:
 RMSU=  3.14D-08    CP:  1.00D+00  1.10D+00  1.14D+00  1.06D+00  1.04D+00
 FoFJK:  IHMeth= 1 ICntrl=     0 DoSepK=T KAlg= 1 I1Cent= 0 FoldK=F
 E= -2905.42770634605     Delta-E=       -0.000000000185 Rises=F Damp=F
 DIIS: error= 1.78D-07 at cycle   6 NSaved=   6.
 NSaved= 6 IEnMin= 6 EnMin= -2905.42770634605     IErMin= 6 ErrMin= 1.78D-07
 ErrMax= 1.78D-07 EMaxC= 1.00D-01 BMatC= 8.64D-12 BMatP= 1.72D-10
 IDIUse=1 WtCom= 1.00D+00 WtEn= 0.00D+00
 Coeff-Com:  0.218D-03-0.194D-01-0.250D-01 0.527D-01 0.273D+00 0.719D+00
 Coeff:      0.218D-03-0.194D-01-0.250D-01 0.527D-01 0.273D+00 0.719D+00
 Gap=     0.408 Goal=   None    Shift=    0.000
 RMSDP=1.42D-08 MaxDP=5.50D-07 DE=-1.85D-10 OVMax= 9.67D-07

 Cycle   7  Pass 1  IDiag  1:
 RMSU=  7.95D-09    CP:  1.00D+00  1.10D+00  1.14D+00  1.08D+00  1.09D+00
                    CP:  1.09D+00
 FoFJK:  IHMeth= 1 ICntrl=     0 DoSepK=T KAlg= 1 I1Cent= 0 FoldK=F
 E= -2905.42770634606     Delta-E=       -0.000000000009 Rises=F Damp=F
 DIIS: error= 7.75D-08 at cycle   7 NSaved=   7.
 NSaved= 7 IEnMin= 7 EnMin= -2905.42770634606     IErMin= 7 ErrMin= 7.75D-08
 ErrMax= 7.75D-08 EMaxC= 1.00D-01 BMatC= 8.49D-13 BMatP= 8.64D-12
 IDIUse=1 WtCom= 1.00D+00 WtEn= 0.00D+00
 Coeff-Com: -0.244D-04 0.613D-02 0.109D-03-0.386D-01-0.935D-01 0.150D+00
 Coeff-Com:  0.976D+00
 Coeff:     -0.244D-04 0.613D-02 0.109D-03-0.386D-01-0.935D-01 0.150D+00
 Coeff:      0.976D+00
 Gap=     0.408 Goal=   None    Shift=    0.000
 RMSDP=9.48D-09 MaxDP=3.14D-07 DE=-9.09D-12 OVMax= 5.84D-07

 SCF Done:  E(RwB97XD) =  -2905.42770635     A.U. after    7 cycles
             Convg  =    0.9480D-08             -V/T =  2.0016
 KE= 2.900916369030D+03 PE=-7.147873901971D+03 EE= 1.236874262219D+03
 Leave Link  502 at Thu Apr 16 12:02:04 2020, MaxMem= 1073741824 cpu:     144.9
 (Enter /home/matheus/.gaussian/g09/l108.exe)
 Scan completed.

 Summary of the potential surface scan:
   N      R1          SCF    
 ----  ---------  -----------
    1     3.0000  -2905.42424
    2     3.1000  -2905.42593
    3     3.2000  -2905.42703
    4     3.3000  -2905.42773
    5     3.4000  -2905.42815
    6     3.5000  -2905.42839
    7     3.6000  -2905.42850
    8     3.7000  -2905.42853
    9     3.8000  -2905.42851
   10     3.9000  -2905.42845
   11     4.0000  -2905.42838
   12     4.1000  -2905.42830
   13     4.2000  -2905.42822
   14     4.3000  -2905.42814
   15     4.4000  -2905.42806
   16     4.5000  -2905.42799
   17     4.6000  -2905.42792
   18     4.7000  -2905.42786
   19     4.8000  -2905.42780
   20     4.9000  -2905.42775
   21     5.0000  -2905.42771
 ----  ---------  -----------
  
 Leave Link  108 at Thu Apr 16 12:02:04 2020, MaxMem= 1073741824 cpu:       0.0
 (Enter /home/matheus/.gaussian/g09/l9999.exe)

 Test job not archived.
 1\1\GINC-REDGIANT\Scan\RwB97XD\Aug-CC-pVTZ\H2Kr1O2\ROOT\16-Apr-2020\1\
 \#p wb97xd/aug-cc-PVTz iop(3/107=0250000000) iop(3/108=0250000000) int
 =ultrafine Scan\\TCC\\0,1\O,0,0.,0.,0.725\O,0,0.,0.,-0.725\H,0,-0.3142
 209495,-0.8633149634,1.0235104166\H,0,0.,0.9187205947,-1.0235104166\Kr
 ,0,0.,R1,0.\\R1=3.,s,20,0.1\\Version=EM64L-G09RevC.01\State=1-A\HF=-29
 05.4242439,-2905.4259279,-2905.4270255,-2905.4277295,-2905.4281528,-29
 05.4283921,-2905.428497,-2905.4285266,-2905.4285076,-2905.4284529,-290
 5.4283825,-2905.4283036,-2905.4282218,-2905.4281387,-2905.4280615,-290
 5.4279885,-2905.427919,-2905.4278571,-2905.427802,-2905.4277513,-2905.
 4277063\RMSD=8.443e-09,6.888e-09,6.530e-09,6.065e-09,5.406e-09,4.361e-
 09,3.681e-09,3.039e-09,9.507e-09,8.374e-09,7.487e-09,6.245e-09,5.317e-
 09,4.521e-09,3.748e-09,3.266e-09,2.920e-09,2.591e-09,2.292e-09,2.067e-
 09,9.480e-09\PG=C01 [X(H2Kr1O2)]\\@


          EVOLUTION
 IN THE BEGINNING GOD MADE MAN.
 HE WORKED THE DIRT WITH HIS HANDS.
 THEN GOD DECIDED TO GIVE MAN SCIENCE,
 MAN SHOULD BE USEFUL (LIKE AN APPLIANCE.)
 BUT SOON MAN'S KNOWLEDGE GREW TOO GREAT,
 TO THE HEADING SCIENCE HE COULDN'T RELATE
 SO GOD SAID "LETS HAVE DIFFERENT FIELDS,
 WE'LL DIVIDE THEM UP, SEE WHAT IT YIELDS."
 ENTER PHYSICS, CHEMISTRY, BIO
 THEY SPRANG UP AROUND THE NILE.
 BUT CHEMISTRY SURPASSED THE REST
 FAR AND AWAY IT WAS THE BEST.
 EXPERIMENT WAS GOD'S DECREE
 EXPERIMENT DID CHEMISTS WITH LOTS OF GLEE
 BUT SOON THEIR TESTS BEGAN TO BOG,
 THEY FOUND THEMSELVES DEEP IN A FOG.
 "GIVE US SOME HELP" THEY CRIED TO GOD.
 GOD LOOKED AROUND, THEN GAVE THE NOD.
 ENTER EINSTEIN, HEISENBERG, BOHR,
 REACTION PATHS WERE CLEAR ONCE MORE.
 WITH THEORISTS GOD SEND DIRECTION
 AND THEN HE STOPPED, HE'D MADE PERFECTION.
          -- THOMAS A. HOLME, 1981
 Job cpu time:  0 days  1 hours 12 minutes 58.6 seconds.
 File lengths (MBytes):  RWF=     33 Int=      0 D2E=      0 Chk=      4 Scr=      1
 Normal termination of Gaussian 09 at Thu Apr 16 12:02:04 2020.
