 Entering Gaussian System, Link 0=g09
 Input=/home/matheus/.tcc/Inputs-wb97xd/H2O2-Kr_8.com
 Output=/home/matheus/.tcc/Logs-wb97xd/H2O2-Kr_8.log
 Initial command:
 /home/matheus/.gaussian/g09/l1.exe /home/matheus/.gaussian/g09/scratch/Gau-29422.inp -scrdir=/home/matheus/.gaussian/g09/scratch/
 Entering Link 1 = /home/matheus/.gaussian/g09/l1.exe PID=     29425.
  
 Copyright (c) 1988,1990,1992,1993,1995,1998,2003,2009,2011,
            Gaussian, Inc.  All Rights Reserved.
  
 This is part of the Gaussian(R) 09 program.  It is based on
 the Gaussian(R) 03 system (copyright 2003, Gaussian, Inc.),
 the Gaussian(R) 98 system (copyright 1998, Gaussian, Inc.),
 the Gaussian(R) 94 system (copyright 1995, Gaussian, Inc.),
 the Gaussian 92(TM) system (copyright 1992, Gaussian, Inc.),
 the Gaussian 90(TM) system (copyright 1990, Gaussian, Inc.),
 the Gaussian 88(TM) system (copyright 1988, Gaussian, Inc.),
 the Gaussian 86(TM) system (copyright 1986, Carnegie Mellon
 University), and the Gaussian 82(TM) system (copyright 1983,
 Carnegie Mellon University). Gaussian is a federally registered
 trademark of Gaussian, Inc.
  
 This software contains proprietary and confidential information,
 including trade secrets, belonging to Gaussian, Inc.
  
 This software is provided under written license and may be
 used, copied, transmitted, or stored only in accord with that
 written license.
  
 The following legend is applicable only to US Government
 contracts under FAR:
  
                    RESTRICTED RIGHTS LEGEND
  
 Use, reproduction and disclosure by the US Government is
 subject to restrictions as set forth in subparagraphs (a)
 and (c) of the Commercial Computer Software - Restricted
 Rights clause in FAR 52.227-19.
  
 Gaussian, Inc.
 340 Quinnipiac St., Bldg. 40, Wallingford CT 06492
  
  
 ---------------------------------------------------------------
 Warning -- This program may not be used in any manner that
 competes with the business of Gaussian, Inc. or will provide
 assistance to any competitor of Gaussian, Inc.  The licensee
 of this program is prohibited from giving any competitor of
 Gaussian, Inc. access to this program.  By using this program,
 the user acknowledges that Gaussian, Inc. is engaged in the
 business of creating and licensing software in the field of
 computational chemistry and represents and warrants to the
 licensee that it is not a competitor of Gaussian, Inc. and that
 it will not use this program in any manner prohibited above.
 ---------------------------------------------------------------
  

 Cite this work as:
 Gaussian 09, Revision C.01,
 M. J. Frisch, G. W. Trucks, H. B. Schlegel, G. E. Scuseria, 
 M. A. Robb, J. R. Cheeseman, G. Scalmani, V. Barone, B. Mennucci, 
 G. A. Petersson, H. Nakatsuji, M. Caricato, X. Li, H. P. Hratchian, 
 A. F. Izmaylov, J. Bloino, G. Zheng, J. L. Sonnenberg, M. Hada, 
 M. Ehara, K. Toyota, R. Fukuda, J. Hasegawa, M. Ishida, T. Nakajima, 
 Y. Honda, O. Kitao, H. Nakai, T. Vreven, J. A. Montgomery, Jr., 
 J. E. Peralta, F. Ogliaro, M. Bearpark, J. J. Heyd, E. Brothers, 
 K. N. Kudin, V. N. Staroverov, T. Keith, R. Kobayashi, J. Normand, 
 K. Raghavachari, A. Rendell, J. C. Burant, S. S. Iyengar, J. Tomasi, 
 M. Cossi, N. Rega, J. M. Millam, M. Klene, J. E. Knox, J. B. Cross, 
 V. Bakken, C. Adamo, J. Jaramillo, R. Gomperts, R. E. Stratmann, 
 O. Yazyev, A. J. Austin, R. Cammi, C. Pomelli, J. W. Ochterski, 
 R. L. Martin, K. Morokuma, V. G. Zakrzewski, G. A. Voth, 
 P. Salvador, J. J. Dannenberg, S. Dapprich, A. D. Daniels, 
 O. Farkas, J. B. Foresman, J. V. Ortiz, J. Cioslowski, 
 and D. J. Fox, Gaussian, Inc., Wallingford CT, 2010.
 
 ******************************************
 Gaussian 09:  EM64L-G09RevC.01 23-Sep-2011
                16-Apr-2020 
 ******************************************
 %mem=8GB
 %nproc=8
 Will use up to    8 processors via shared memory.
 ----------------------------------------------------------------------
 #p wb97xd/aug-cc-PVTz iop(3/107=0250000000) iop(3/108=0250000000) int=
 ultrafine Scan
 ----------------------------------------------------------------------
 1/38=1,60=1/1,8;
 2/12=2,17=6,18=5,29=3,40=1/2;
 3/5=16,6=1,7=10,11=2,16=1,25=1,30=1,74=-58,75=-5,107=250000000,108=250000000/1,2,3;
 4//1;
 5/5=2,38=5/2;
 6/7=2,8=2,9=2,10=2,18=1,28=1/1;
 1/60=1/8(1);
 99/9=1/99;
 2/29=3/2;
 3/5=16,6=1,7=10,11=2,16=1,25=1,30=1,74=-58,75=-5,107=250000000,108=250000000/1,2,3;
 4/5=5,16=3/1;
 5/5=2,38=5/2;
 1/60=1/8(-4);
 99/9=1/99;
 Leave Link    1 at Thu Apr 16 09:59:46 2020, MaxMem= 1073741824 cpu:       0.2
 (Enter /home/matheus/.gaussian/g09/l101.exe)
 ---
 TCC
 ---
 Charge =  0 Multiplicity = 1
 Symbolic Z-Matrix:
 O                     0.        0.        0.725 
 O                     0.        0.       -0.725 
 H                     0.90476   0.15953   1.02351 
 H                     0.        0.91872  -1.02351 
 Kr                    0.       R1        0. 
       Variables:
  R1                    3.     Scan 20    0.1    
 
 NAtoms=      5 NQM=        0 NQMF=       0 NMMI=      5 NMMIF=      0
                NMic=       0 NMicF=      0.
                    Isotopes and Nuclear Properties:
 (Nuclear quadrupole moments (NQMom) in fm**2, nuclear magnetic moments (NMagM)
  in nuclear magnetons)

  Atom         1           2           3           4           5
 IAtWgt=          16          16           1           1          84
 AtmWgt=  15.9949146  15.9949146   1.0078250   1.0078250  83.9115064
 NucSpn=           0           0           1           1           0
 AtZEff=   0.0000000   0.0000000   0.0000000   0.0000000   0.0000000
 NQMom=    0.0000000   0.0000000   0.0000000   0.0000000   0.0000000
 NMagM=    0.0000000   0.0000000   2.7928460   2.7928460   0.0000000
 Leave Link  101 at Thu Apr 16 09:59:46 2020, MaxMem= 1073741824 cpu:       0.3
 (Enter /home/matheus/.gaussian/g09/l108.exe)
 Scan the potential surface.
 Variable   Value     No. Steps Step-Size
 -------- ----------- --------- ---------
     1       3.000000      20      0.1000
 A total of     21 points will be computed.
 Leave Link  108 at Thu Apr 16 09:59:46 2020, MaxMem= 1073741824 cpu:       0.0
 (Enter /home/matheus/.gaussian/g09/l202.exe)
 ---------------------------------------------------------------------------------------------------
                            Z-MATRIX (ANGSTROMS AND DEGREES)
   CD    Cent   Atom    N1       Length/X        N2       Alpha/Y        N3        Beta/Z          J
 ---------------------------------------------------------------------------------------------------
      1      1  O        0   0.000000          0.000000          0.725000
      2      2  O        0   0.000000          0.000000         -0.725000
      3      3  H        0   0.904763          0.159534          1.023510
      4      4  H        0   0.000000          0.918721         -1.023510
      5      5  Kr       0   0.000000          3.000000          0.000000
 ---------------------------------------------------------------------------------------------------
                         Z-Matrix orientation:                         
 ---------------------------------------------------------------------
 Center     Atomic      Atomic             Coordinates (Angstroms)
 Number     Number       Type             X           Y           Z
 ---------------------------------------------------------------------
      1          8           0        0.000000    0.000000    0.725000
      2          8           0        0.000000    0.000000   -0.725000
      3          1           0        0.904763    0.159534    1.023510
      4          1           0        0.000000    0.918721   -1.023510
      5         36           0        0.000000    3.000000    0.000000
 ---------------------------------------------------------------------
                    Distance matrix (angstroms):
                    1          2          3          4          5
     1  O    0.000000
     2  O    1.450000   0.000000
     3  H    0.966000   1.975180   0.000000
     4  H    1.975180   0.966000   2.363314   0.000000
     5  Kr   3.086361   3.086361   3.151891   2.319331   0.000000
 Stoichiometry    H2KrO2
 Framework group  C1[X(H2KrO2)]
 Deg. of freedom     9
 Full point group                 C1      NOp   1
 Largest Abelian subgroup         C1      NOp   1
 Largest concise Abelian subgroup C1      NOp   1
                         Standard orientation:                         
 ---------------------------------------------------------------------
 Center     Atomic      Atomic             Coordinates (Angstroms)
 Number     Number       Type             X           Y           Z
 ---------------------------------------------------------------------
      1          8           0        2.025459   -0.700316   -0.115097
      2          8           0        2.013251    0.743386    0.019343
      3          1           0        1.883208   -1.082864    0.760447
      4          1           0        1.092171    1.031511    0.061209
      5         36           0       -0.980140   -0.008145   -0.001545
 ---------------------------------------------------------------------
 Rotational constants (GHZ):     25.6204873      2.3529019      2.1689661
 Leave Link  202 at Thu Apr 16 09:59:46 2020, MaxMem= 1073741824 cpu:       0.0
 (Enter /home/matheus/.gaussian/g09/l301.exe)
 Standard basis: Aug-CC-pVTZ (5D, 7F)
 Ernie: Thresh=  0.10000D-02 Tol=  0.10000D-05 Strict=F.
 Ernie:  38 primitive shells out of 205 were deleted.
 There are   197 symmetry adapted basis functions of A   symmetry.
 Integral buffers will be    131072 words long.
 Raffenetti 2 integral format.
 Two-electron integral symmetry is turned on.
   197 basis functions,   415 primitive gaussians,   229 cartesian basis functions
    27 alpha electrons       27 beta electrons
       nuclear repulsion energy       149.6490473971 Hartrees.
 IExCor= 4639 DFT=T Ex+Corr=wB97XD ExCW=0 ScaHFX=  1.000000
 ScaDFX=  1.000000  1.000000  1.000000  1.000000 ScalE2=  1.000000  1.000000
 IRadAn=      5 IRanWt=     -1 IRanGd=            0 ICorTp=0
  HFx wShort=  0.000000 wLong=  0.250000 cFull=  0.222036 cShort=  0.000000 cLong=  0.777964
  DFx wShort=  0.000000 wLong=  0.250000 cFull=  0.000000 cShort=  0.000000 cLong=  1.000000
 NAtoms=    5 NActive=    5 NUniq=    5 SFac= 1.00D+00 NAtFMM=   60 NAOKFM=F Big=F
 R6Disp: Dispersion energy =        -0.0009616899 Hartrees.
 Nuclear repulsion after empirical dispersion term =      149.6480857072 Hartrees.
 Leave Link  301 at Thu Apr 16 09:59:46 2020, MaxMem= 1073741824 cpu:       0.2
 (Enter /home/matheus/.gaussian/g09/l302.exe)
 NPDir=0 NMtPBC=     1 NCelOv=     1 NCel=       1 NClECP=     1 NCelD=      1
         NCelK=      1 NCelE2=     1 NClLst=     1 CellRange=     0.0.
 One-electron integrals computed using PRISM.
 NBasis=   197 RedAO= T  NBF=   197
 NBsUse=   197 1.00D-06 NBFU=   197
 Precomputing XC quadrature grid using
 IXCGrd= 2 IRadAn=           5 IRanWt=          -1 IRanGd=           0 AccXCQ= 0.00D+00.
 NRdTot=     427 NPtTot=      123512 NUsed=      126579 NTot=      126611
 NSgBfM=   229   229   229   229   229 NAtAll=     5     5.
 Leave Link  302 at Thu Apr 16 09:59:46 2020, MaxMem= 1073741824 cpu:       1.0
 (Enter /home/matheus/.gaussian/g09/l303.exe)
 DipDrv:  MaxL=1.
 Leave Link  303 at Thu Apr 16 09:59:46 2020, MaxMem= 1073741824 cpu:       0.2
 (Enter /home/matheus/.gaussian/g09/l401.exe)
 Harris functional with IExCor= 4639 diagonalized for initial guess.
 ExpMin= 2.53D-02 ExpMax= 1.17D+07 ExpMxC= 1.33D+04 IAcc=3 IRadAn=         5 AccDes= 0.00D+00
 HarFok:  IExCor= 4639 AccDes= 0.00D+00 IRadAn=         5 IDoV= 1
 ScaDFX=  1.000000  1.000000  1.000000  1.000000
 FoFCou: FMM=F IPFlag=           0 FMFlag=      100000 FMFlg1=           0
         NFxFlg=           0 DoJE=T BraDBF=F KetDBF=T FulRan=T
         Omega=  0.000000  0.000000  1.000000  0.000000  0.000000 ICntrl=     500 IOpCl=  0
         NMat0=    1 NMatS0=    1 NMatT0=    0 NMatD0=    1 NMtDS0=    0 NMtDT0=    0
         I1Cent=           4 NGrid=           0.
 Petite list used in FoFCou.
 Harris En= -2875.39739829731    
 Initial guess orbital symmetries:
       Occupied  (A) (A) (A) (A) (A) (A) (A) (A) (A) (A) (A) (A)
                 (A) (A) (A) (A) (A) (A) (A) (A) (A) (A) (A) (A)
                 (A) (A) (A)
       Virtual   (A) (A) (A) (A) (A) (A) (A) (A) (A) (A) (A) (A)
                 (A) (A) (A) (A) (A) (A) (A) (A) (A) (A) (A) (A)
                 (A) (A) (A) (A) (A) (A) (A) (A) (A) (A) (A) (A)
                 (A) (A) (A) (A) (A) (A) (A) (A) (A) (A) (A) (A)
                 (A) (A) (A) (A) (A) (A) (A) (A) (A) (A) (A) (A)
                 (A) (A) (A) (A) (A) (A) (A) (A) (A) (A) (A) (A)
                 (A) (A) (A) (A) (A) (A) (A) (A) (A) (A) (A) (A)
                 (A) (A) (A) (A) (A) (A) (A) (A) (A) (A) (A) (A)
                 (A) (A) (A) (A) (A) (A) (A) (A) (A) (A) (A) (A)
                 (A) (A) (A) (A) (A) (A) (A) (A) (A) (A) (A) (A)
                 (A) (A) (A) (A) (A) (A) (A) (A) (A) (A) (A) (A)
                 (A) (A) (A) (A) (A) (A) (A) (A) (A) (A) (A) (A)
                 (A) (A) (A) (A) (A) (A) (A) (A) (A) (A) (A) (A)
                 (A) (A) (A) (A) (A) (A) (A) (A) (A) (A) (A) (A)
                 (A) (A)
 The electronic state of the initial guess is 1-A.
 Leave Link  401 at Thu Apr 16 09:59:47 2020, MaxMem= 1073741824 cpu:       3.9
 (Enter /home/matheus/.gaussian/g09/l502.exe)
 Closed shell SCF:
 Requested convergence on RMS density matrix=1.00D-08 within 128 cycles.
 Requested convergence on MAX density matrix=1.00D-06.
 Requested convergence on             energy=1.00D-06.
 No special actions if energy rises.
 Using DIIS extrapolation, IDIIS=  1040.
 Integral symmetry usage will be decided dynamically.
       126521 words used for storage of precomputed grid.
 IEnd=      305468 IEndB=      305468 NGot=  1073741824 MDV=  1073505667
 LenX=  1073505667 LenY=  1073452785
 Fock matrices will be formed incrementally for  20 cycles.

 Cycle   1  Pass 1  IDiag  1:
 FoFJK:  IHMeth= 1 ICntrl=     0 DoSepK=T KAlg= 1 I1Cent= 0 FoldK=F
 FoFCou: FMM=F IPFlag=           0 FMFlag=      100000 FMFlg1=           0
         NFxFlg=           0 DoJE=T BraDBF=F KetDBF=F FulRan=T
         Omega=  0.000000  0.000000  1.000000  0.000000  0.000000 ICntrl=     500 IOpCl=  0
         NMat0=    1 NMatS0=    1 NMatT0=    0 NMatD0=    1 NMtDS0=    0 NMtDT0=    0
         I1Cent=           0 NGrid=           0.
 Symmetry not used in FoFCou.
 E= -2904.90198419810    
 DIIS: error= 6.00D-02 at cycle   1 NSaved=   1.
 NSaved= 1 IEnMin= 1 EnMin= -2904.90198419810     IErMin= 1 ErrMin= 6.00D-02
 ErrMax= 6.00D-02 EMaxC= 1.00D-01 BMatC= 2.22D+00 BMatP= 2.22D+00
 IDIUse=3 WtCom= 4.00D-01 WtEn= 6.00D-01
 Coeff-Com:  0.100D+01
 Coeff-En:   0.100D+01
 Coeff:      0.100D+01
 Gap=     0.559 Goal=   None    Shift=    0.000
 GapD=    0.559 DampG=2.000 DampE=0.500 DampFc=1.0000 IDamp=-1.
 RMSDP=6.12D-03 MaxDP=3.66D-01              OVMax= 1.83D-01

 Cycle   2  Pass 1  IDiag  1:
 RMSU=  4.30D-03    CP:  1.03D+00
 FoFJK:  IHMeth= 1 ICntrl=     0 DoSepK=T KAlg= 1 I1Cent= 0 FoldK=F
 E= -2905.22336393831     Delta-E=       -0.321379740217 Rises=F Damp=F
 DIIS: error= 2.79D-02 at cycle   2 NSaved=   2.
 NSaved= 2 IEnMin= 2 EnMin= -2905.22336393831     IErMin= 2 ErrMin= 2.79D-02
 ErrMax= 2.79D-02 EMaxC= 1.00D-01 BMatC= 5.65D-01 BMatP= 2.22D+00
 IDIUse=3 WtCom= 7.21D-01 WtEn= 2.79D-01
 Coeff-Com:  0.328D+00 0.672D+00
 Coeff-En:   0.196D+00 0.804D+00
 Coeff:      0.291D+00 0.709D+00
 Gap=     0.505 Goal=   None    Shift=    0.000
 RMSDP=2.66D-03 MaxDP=1.56D-01 DE=-3.21D-01 OVMax= 7.37D-02

 Cycle   3  Pass 1  IDiag  1:
 RMSU=  5.59D-04    CP:  1.02D+00  5.84D-01
 FoFJK:  IHMeth= 1 ICntrl=     0 DoSepK=T KAlg= 1 I1Cent= 0 FoldK=F
 E= -2905.41786228380     Delta-E=       -0.194498345483 Rises=F Damp=F
 DIIS: error= 5.94D-03 at cycle   3 NSaved=   3.
 NSaved= 3 IEnMin= 3 EnMin= -2905.41786228380     IErMin= 3 ErrMin= 5.94D-03
 ErrMax= 5.94D-03 EMaxC= 1.00D-01 BMatC= 1.71D-02 BMatP= 5.65D-01
 IDIUse=3 WtCom= 9.41D-01 WtEn= 5.94D-02
 Coeff-Com:  0.347D-01 0.185D+00 0.781D+00
 Coeff-En:   0.000D+00 0.000D+00 0.100D+01
 Coeff:      0.326D-01 0.174D+00 0.794D+00
 Gap=     0.453 Goal=   None    Shift=    0.000
 RMSDP=4.70D-04 MaxDP=1.85D-02 DE=-1.94D-01 OVMax= 2.58D-02

 Cycle   4  Pass 1  IDiag  1:
 RMSU=  2.31D-04    CP:  1.02D+00  6.38D-01  9.10D-01
 FoFJK:  IHMeth= 1 ICntrl=     0 DoSepK=T KAlg= 1 I1Cent= 0 FoldK=F
 E= -2905.42574353447     Delta-E=       -0.007881250675 Rises=F Damp=F
 DIIS: error= 2.12D-03 at cycle   4 NSaved=   4.
 NSaved= 4 IEnMin= 4 EnMin= -2905.42574353447     IErMin= 4 ErrMin= 2.12D-03
 ErrMax= 2.12D-03 EMaxC= 1.00D-01 BMatC= 1.79D-03 BMatP= 1.71D-02
 IDIUse=3 WtCom= 9.79D-01 WtEn= 2.12D-02
 Coeff-Com: -0.237D-02 0.461D-01 0.370D+00 0.586D+00
 Coeff-En:   0.000D+00 0.000D+00 0.000D+00 0.100D+01
 Coeff:     -0.232D-02 0.451D-01 0.363D+00 0.595D+00
 Gap=     0.438 Goal=   None    Shift=    0.000
 RMSDP=1.21D-04 MaxDP=6.80D-03 DE=-7.88D-03 OVMax= 6.73D-03

 Cycle   5  Pass 1  IDiag  1:
 RMSU=  3.99D-05    CP:  1.02D+00  6.36D-01  9.55D-01  6.99D-01
 FoFJK:  IHMeth= 1 ICntrl=     0 DoSepK=T KAlg= 1 I1Cent= 0 FoldK=F
 E= -2905.42682541603     Delta-E=       -0.001081881554 Rises=F Damp=F
 DIIS: error= 2.39D-04 at cycle   5 NSaved=   5.
 NSaved= 5 IEnMin= 5 EnMin= -2905.42682541603     IErMin= 5 ErrMin= 2.39D-04
 ErrMax= 2.39D-04 EMaxC= 1.00D-01 BMatC= 1.92D-05 BMatP= 1.79D-03
 IDIUse=3 WtCom= 9.98D-01 WtEn= 2.39D-03
 Coeff-Com: -0.133D-02 0.783D-02 0.831D-01 0.151D+00 0.759D+00
 Coeff-En:   0.000D+00 0.000D+00 0.000D+00 0.000D+00 0.100D+01
 Coeff:     -0.133D-02 0.781D-02 0.829D-01 0.151D+00 0.760D+00
 Gap=     0.437 Goal=   None    Shift=    0.000
 RMSDP=2.20D-05 MaxDP=9.85D-04 DE=-1.08D-03 OVMax= 1.41D-03

 Cycle   6  Pass 1  IDiag  1:
 RMSU=  1.35D-05    CP:  1.02D+00  6.36D-01  9.64D-01  7.16D-01  1.11D+00
 FoFJK:  IHMeth= 1 ICntrl=     0 DoSepK=T KAlg= 1 I1Cent= 0 FoldK=F
 E= -2905.42683501627     Delta-E=       -0.000009600241 Rises=F Damp=F
 DIIS: error= 1.72D-04 at cycle   6 NSaved=   6.
 NSaved= 6 IEnMin= 6 EnMin= -2905.42683501627     IErMin= 6 ErrMin= 1.72D-04
 ErrMax= 1.72D-04 EMaxC= 1.00D-01 BMatC= 1.03D-05 BMatP= 1.92D-05
 IDIUse=3 WtCom= 9.98D-01 WtEn= 1.72D-03
 Coeff-Com: -0.269D-03-0.584D-02-0.329D-01-0.450D-01 0.438D+00 0.646D+00
 Coeff-En:   0.000D+00 0.000D+00 0.000D+00 0.000D+00 0.220D+00 0.780D+00
 Coeff:     -0.269D-03-0.583D-02-0.329D-01-0.449D-01 0.438D+00 0.646D+00
 Gap=     0.437 Goal=   None    Shift=    0.000
 RMSDP=1.16D-05 MaxDP=4.57D-04 DE=-9.60D-06 OVMax= 7.19D-04

 Cycle   7  Pass 1  IDiag  1:
 RMSU=  3.60D-06    CP:  1.02D+00  6.36D-01  9.71D-01  7.22D-01  1.25D+00
                    CP:  7.82D-01
 FoFJK:  IHMeth= 1 ICntrl=     0 DoSepK=T KAlg= 1 I1Cent= 0 FoldK=F
 E= -2905.42684243420     Delta-E=       -0.000007417931 Rises=F Damp=F
 DIIS: error= 1.57D-05 at cycle   7 NSaved=   7.
 NSaved= 7 IEnMin= 7 EnMin= -2905.42684243420     IErMin= 7 ErrMin= 1.57D-05
 ErrMax= 1.57D-05 EMaxC= 1.00D-01 BMatC= 9.88D-08 BMatP= 1.03D-05
 IDIUse=1 WtCom= 1.00D+00 WtEn= 0.00D+00
 Coeff-Com:  0.240D-04-0.124D-02-0.897D-02-0.133D-01 0.673D-02 0.847D-01
 Coeff-Com:  0.932D+00
 Coeff:      0.240D-04-0.124D-02-0.897D-02-0.133D-01 0.673D-02 0.847D-01
 Coeff:      0.932D+00
 Gap=     0.437 Goal=   None    Shift=    0.000
 RMSDP=2.45D-06 MaxDP=8.34D-05 DE=-7.42D-06 OVMax= 2.09D-04

 Cycle   8  Pass 1  IDiag  1:
 RMSU=  8.44D-07    CP:  1.02D+00  6.36D-01  9.72D-01  7.24D-01  1.27D+00
                    CP:  8.37D-01  1.18D+00
 FoFJK:  IHMeth= 1 ICntrl=     0 DoSepK=T KAlg= 1 I1Cent= 0 FoldK=F
 E= -2905.42684261214     Delta-E=       -0.000000177945 Rises=F Damp=F
 DIIS: error= 4.01D-06 at cycle   8 NSaved=   8.
 NSaved= 8 IEnMin= 8 EnMin= -2905.42684261214     IErMin= 8 ErrMin= 4.01D-06
 ErrMax= 4.01D-06 EMaxC= 1.00D-01 BMatC= 5.47D-09 BMatP= 9.88D-08
 IDIUse=1 WtCom= 1.00D+00 WtEn= 0.00D+00
 Coeff-Com:  0.169D-04 0.258D-03 0.136D-02 0.161D-02-0.260D-01-0.324D-01
 Coeff-Com:  0.251D-01 0.103D+01
 Coeff:      0.169D-04 0.258D-03 0.136D-02 0.161D-02-0.260D-01-0.324D-01
 Coeff:      0.251D-01 0.103D+01
 Gap=     0.437 Goal=   None    Shift=    0.000
 RMSDP=7.63D-07 MaxDP=1.91D-05 DE=-1.78D-07 OVMax= 8.54D-05

 Cycle   9  Pass 1  IDiag  1:
 RMSU=  2.60D-07    CP:  1.02D+00  6.36D-01  9.72D-01  7.24D-01  1.28D+00
                    CP:  8.47D-01  1.26D+00  1.32D+00
 FoFJK:  IHMeth= 1 ICntrl=     0 DoSepK=T KAlg= 1 I1Cent= 0 FoldK=F
 E= -2905.42684262840     Delta-E=       -0.000000016257 Rises=F Damp=F
 DIIS: error= 1.56D-06 at cycle   9 NSaved=   9.
 NSaved= 9 IEnMin= 9 EnMin= -2905.42684262840     IErMin= 9 ErrMin= 1.56D-06
 ErrMax= 1.56D-06 EMaxC= 1.00D-01 BMatC= 4.94D-10 BMatP= 5.47D-09
 IDIUse=1 WtCom= 1.00D+00 WtEn= 0.00D+00
 Coeff-Com: -0.203D-05 0.767D-04 0.569D-03 0.658D-03 0.258D-03-0.313D-02
 Coeff-Com: -0.552D-01-0.887D-01 0.115D+01
 Coeff:     -0.203D-05 0.767D-04 0.569D-03 0.658D-03 0.258D-03-0.313D-02
 Coeff:     -0.552D-01-0.887D-01 0.115D+01
 Gap=     0.437 Goal=   None    Shift=    0.000
 RMSDP=2.81D-07 MaxDP=7.62D-06 DE=-1.63D-08 OVMax= 3.66D-05

 Cycle  10  Pass 1  IDiag  1:
 RMSU=  8.71D-08    CP:  1.02D+00  6.36D-01  9.72D-01  7.23D-01  1.28D+00
                    CP:  8.49D-01  1.27D+00  1.44D+00  1.43D+00
 FoFJK:  IHMeth= 1 ICntrl=     0 DoSepK=T KAlg= 1 I1Cent= 0 FoldK=F
 E= -2905.42684263028     Delta-E=       -0.000000001881 Rises=F Damp=F
 DIIS: error= 3.51D-07 at cycle  10 NSaved=  10.
 NSaved=10 IEnMin=10 EnMin= -2905.42684263028     IErMin=10 ErrMin= 3.51D-07
 ErrMax= 3.51D-07 EMaxC= 1.00D-01 BMatC= 5.81D-11 BMatP= 4.94D-10
 IDIUse=1 WtCom= 1.00D+00 WtEn= 0.00D+00
 Coeff-Com: -0.952D-06-0.157D-04-0.852D-04-0.996D-04 0.225D-02 0.295D-02
 Coeff-Com: -0.659D-03-0.121D+00 0.126D+00 0.992D+00
 Coeff:     -0.952D-06-0.157D-04-0.852D-04-0.996D-04 0.225D-02 0.295D-02
 Coeff:     -0.659D-03-0.121D+00 0.126D+00 0.992D+00
 Gap=     0.437 Goal=   None    Shift=    0.000
 RMSDP=8.54D-08 MaxDP=1.87D-06 DE=-1.88D-09 OVMax= 1.18D-05

 Cycle  11  Pass 1  IDiag  1:
 RMSU=  2.18D-08    CP:  1.02D+00  6.36D-01  9.72D-01  7.23D-01  1.28D+00
                    CP:  8.49D-01  1.27D+00  1.46D+00  1.60D+00  1.29D+00
 FoFJK:  IHMeth= 1 ICntrl=     0 DoSepK=T KAlg= 1 I1Cent= 0 FoldK=F
 E= -2905.42684263047     Delta-E=       -0.000000000186 Rises=F Damp=F
 DIIS: error= 1.41D-07 at cycle  11 NSaved=  11.
 NSaved=11 IEnMin=11 EnMin= -2905.42684263047     IErMin=11 ErrMin= 1.41D-07
 ErrMax= 1.41D-07 EMaxC= 1.00D-01 BMatC= 5.42D-12 BMatP= 5.81D-11
 IDIUse=1 WtCom= 1.00D+00 WtEn= 0.00D+00
 Coeff-Com:  0.480D-06-0.616D-05-0.539D-04-0.420D-04-0.302D-03 0.206D-04
 Coeff-Com:  0.730D-02 0.121D-01-0.120D+00-0.999D-01 0.120D+01
 Coeff:      0.480D-06-0.616D-05-0.539D-04-0.420D-04-0.302D-03 0.206D-04
 Coeff:      0.730D-02 0.121D-01-0.120D+00-0.999D-01 0.120D+01
 Gap=     0.437 Goal=   None    Shift=    0.000
 RMSDP=3.23D-08 MaxDP=6.24D-07 DE=-1.86D-10 OVMax= 4.66D-06

 Cycle  12  Pass 1  IDiag  1:
 RMSU=  6.49D-09    CP:  1.02D+00  6.36D-01  9.72D-01  7.23D-01  1.28D+00
                    CP:  8.49D-01  1.27D+00  1.47D+00  1.65D+00  1.45D+00
                    CP:  1.35D+00
 FoFJK:  IHMeth= 1 ICntrl=     0 DoSepK=T KAlg= 1 I1Cent= 0 FoldK=F
 E= -2905.42684263048     Delta-E=       -0.000000000014 Rises=F Damp=F
 DIIS: error= 3.64D-08 at cycle  12 NSaved=  12.
 NSaved=12 IEnMin=12 EnMin= -2905.42684263048     IErMin=12 ErrMin= 3.64D-08
 ErrMax= 3.64D-08 EMaxC= 1.00D-01 BMatC= 2.42D-13 BMatP= 5.42D-12
 IDIUse=1 WtCom= 1.00D+00 WtEn= 0.00D+00
 Coeff-Com: -0.394D-07 0.755D-06 0.672D-05-0.648D-06-0.106D-03-0.148D-03
 Coeff-Com: -0.254D-03 0.519D-02 0.606D-02-0.425D-01-0.142D+00 0.117D+01
 Coeff:     -0.394D-07 0.755D-06 0.672D-05-0.648D-06-0.106D-03-0.148D-03
 Coeff:     -0.254D-03 0.519D-02 0.606D-02-0.425D-01-0.142D+00 0.117D+01
 Gap=     0.437 Goal=   None    Shift=    0.000
 RMSDP=6.95D-09 MaxDP=1.89D-07 DE=-1.41D-11 OVMax= 8.42D-07

 SCF Done:  E(RwB97XD) =  -2905.42684263     A.U. after   12 cycles
             Convg  =    0.6946D-08             -V/T =  2.0015
 KE= 2.900945789273D+03 PE=-7.237319581453D+03 EE= 1.281298863842D+03
 Leave Link  502 at Thu Apr 16 10:00:24 2020, MaxMem= 1073741824 cpu:     298.2
 (Enter /home/matheus/.gaussian/g09/l601.exe)
 Copying SCF densities to generalized density rwf, IOpCl= 0 IROHF=0.

 **********************************************************************

            Population analysis using the SCF density.

 **********************************************************************

 Orbital symmetries:
       Occupied  (A) (A) (A) (A) (A) (A) (A) (A) (A) (A) (A) (A)
                 (A) (A) (A) (A) (A) (A) (A) (A) (A) (A) (A) (A)
                 (A) (A) (A)
       Virtual   (A) (A) (A) (A) (A) (A) (A) (A) (A) (A) (A) (A)
                 (A) (A) (A) (A) (A) (A) (A) (A) (A) (A) (A) (A)
                 (A) (A) (A) (A) (A) (A) (A) (A) (A) (A) (A) (A)
                 (A) (A) (A) (A) (A) (A) (A) (A) (A) (A) (A) (A)
                 (A) (A) (A) (A) (A) (A) (A) (A) (A) (A) (A) (A)
                 (A) (A) (A) (A) (A) (A) (A) (A) (A) (A) (A) (A)
                 (A) (A) (A) (A) (A) (A) (A) (A) (A) (A) (A) (A)
                 (A) (A) (A) (A) (A) (A) (A) (A) (A) (A) (A) (A)
                 (A) (A) (A) (A) (A) (A) (A) (A) (A) (A) (A) (A)
                 (A) (A) (A) (A) (A) (A) (A) (A) (A) (A) (A) (A)
                 (A) (A) (A) (A) (A) (A) (A) (A) (A) (A) (A) (A)
                 (A) (A) (A) (A) (A) (A) (A) (A) (A) (A) (A) (A)
                 (A) (A) (A) (A) (A) (A) (A) (A) (A) (A) (A) (A)
                 (A) (A) (A) (A) (A) (A) (A) (A) (A) (A) (A) (A)
                 (A) (A)
 The electronic state is 1-A.
 Alpha  occ. eigenvalues -- -513.09810 -67.36637 -60.91517 -60.91506 -60.91497
 Alpha  occ. eigenvalues --  -19.34105 -19.33748  -9.81966  -7.51299  -7.51262
 Alpha  occ. eigenvalues --   -7.51234  -3.37981  -3.37974  -3.37953  -3.37923
 Alpha  occ. eigenvalues --   -3.37920  -1.24653  -1.03350  -1.02594  -0.67551
 Alpha  occ. eigenvalues --   -0.58424  -0.54004  -0.50342  -0.49989  -0.49078
 Alpha  occ. eigenvalues --   -0.42356  -0.40274
 Alpha virt. eigenvalues --    0.03427   0.04368   0.08379   0.09526   0.10274
 Alpha virt. eigenvalues --    0.11846   0.13136   0.14198   0.17319   0.17921
 Alpha virt. eigenvalues --    0.18120   0.19082   0.20304   0.22308   0.23207
 Alpha virt. eigenvalues --    0.24381   0.25438   0.27810   0.30484   0.32221
 Alpha virt. eigenvalues --    0.33806   0.35152   0.36876   0.38422   0.38819
 Alpha virt. eigenvalues --    0.40368   0.42364   0.47105   0.51816   0.53911
 Alpha virt. eigenvalues --    0.54819   0.59326   0.61021   0.63331   0.67433
 Alpha virt. eigenvalues --    0.70161   0.70826   0.72566   0.74603   0.74702
 Alpha virt. eigenvalues --    0.75830   0.76397   0.78060   0.79629   0.81928
 Alpha virt. eigenvalues --    0.82936   0.85788   0.87678   0.89182   0.90022
 Alpha virt. eigenvalues --    0.91139   0.91643   0.94543   0.94849   0.97255
 Alpha virt. eigenvalues --    0.98843   1.02213   1.04323   1.05786   1.07105
 Alpha virt. eigenvalues --    1.09322   1.14126   1.17074   1.21549   1.23422
 Alpha virt. eigenvalues --    1.24509   1.28268   1.34239   1.36176   1.39011
 Alpha virt. eigenvalues --    1.42522   1.47294   1.49363   1.53454   1.58420
 Alpha virt. eigenvalues --    1.67696   1.69251   1.81755   1.90958   1.93528
 Alpha virt. eigenvalues --    1.98705   2.01760   2.03655   2.08580   2.13949
 Alpha virt. eigenvalues --    2.15736   2.17052   2.19798   2.22748   2.24056
 Alpha virt. eigenvalues --    2.25675   2.28432   2.29414   2.30158   2.31343
 Alpha virt. eigenvalues --    2.35795   2.37768   2.44366   2.46316   2.46984
 Alpha virt. eigenvalues --    2.47525   2.48735   2.50750   2.55030   2.55971
 Alpha virt. eigenvalues --    2.58579   2.61652   2.64574   2.68573   2.70487
 Alpha virt. eigenvalues --    2.71282   2.73774   2.75327   2.82811   2.87344
 Alpha virt. eigenvalues --    2.94145   3.02774   3.09670   3.11566   3.60704
 Alpha virt. eigenvalues --    3.65393   3.91421   3.93573   3.99571   4.08475
 Alpha virt. eigenvalues --    4.12332   4.15253   4.21212   4.23821   4.28439
 Alpha virt. eigenvalues --    4.33352   4.49360   4.50404   4.56764   4.70394
 Alpha virt. eigenvalues --    4.91941   4.95922   4.98608   5.14737   5.15212
 Alpha virt. eigenvalues --    5.19292   5.43577   5.84802   6.02768   6.13946
 Alpha virt. eigenvalues --    6.21207   6.25515   6.30412   6.43418   6.48482
 Alpha virt. eigenvalues --    6.60374   6.76958   6.77517   6.81676   6.84716
 Alpha virt. eigenvalues --    6.88884   6.90234   6.93097   6.97448   7.00868
 Alpha virt. eigenvalues --    7.07675   7.13016   7.23688   7.46050   7.57497
 Alpha virt. eigenvalues --    7.79430   8.10240   8.12855  14.11570  14.67900
          Condensed to atoms (all electrons):
              1          2          3          4          5
     1  O    8.196526  -0.173644   0.208512   0.006515  -0.017171
     2  O   -0.173644   8.251574   0.015031   0.186506  -0.020180
     3  H    0.208512   0.015031   0.550944  -0.000041  -0.001500
     4  H    0.006515   0.186506  -0.000041   0.567312  -0.004053
     5  Kr  -0.017171  -0.020180  -0.001500  -0.004053  36.033693
 Mulliken atomic charges:
              1
     1  O   -0.220737
     2  O   -0.259287
     3  H    0.227053
     4  H    0.243760
     5  Kr   0.009211
 Sum of Mulliken atomic charges =   0.00000
 Mulliken charges with hydrogens summed into heavy atoms:
              1
     1  O    0.006316
     2  O   -0.015526
     5  Kr   0.009211
 Sum of Mulliken charges with hydrogens summed into heavy atoms =   0.00000
 Electronic spatial extent (au):  <R**2>=            482.5358
 Charge=              0.0000 electrons
 Dipole moment (field-independent basis, Debye):
    X=             -2.0427    Y=             -0.3713    Z=              1.4317  Tot=              2.5220
 Quadrupole moment (field-independent basis, Debye-Ang):
   XX=            -35.7046   YY=            -27.8694   ZZ=            -29.0330
   XY=             -1.8976   XZ=              2.8435   YZ=             -1.8115
 Traceless Quadrupole moment (field-independent basis, Debye-Ang):
   XX=             -4.8356   YY=              2.9996   ZZ=              1.8360
   XY=             -1.8976   XZ=              2.8435   YZ=             -1.8115
 Octapole moment (field-independent basis, Debye-Ang**2):
  XXX=            -37.3261  YYY=             -1.0214  ZZZ=              1.0813  XYY=             -5.4430
  XXY=             -5.6177  XXZ=              4.8875  XZZ=             -5.6134  YZZ=             -1.8361
  YYZ=              2.2459  XYZ=             -3.5284
 Hexadecapole moment (field-independent basis, Debye-Ang**3):
 XXXX=           -456.5464 YYYY=            -62.9065 ZZZZ=            -29.7509 XXXY=            -10.9681
 XXXZ=              9.7485 YYYX=             -3.5615 YYYZ=             -2.6668 ZZZX=              2.5666
 ZZZY=             -1.9401 XXYY=            -81.5182 XXZZ=            -72.1944 YYZZ=            -15.8827
 XXYZ=             -6.9975 YYXZ=              4.2598 ZZXY=             -3.3375
 N-N= 1.496480857072D+02 E-N=-7.237319579488D+03  KE= 2.900945789273D+03
 No NMR shielding tensors so no spin-rotation constants.
 Leave Link  601 at Thu Apr 16 10:00:24 2020, MaxMem= 1073741824 cpu:       0.7
 (Enter /home/matheus/.gaussian/g09/l108.exe)
 Variable Step   Value    
 -------- ---- -----------
     1       1    5.858151
 Leave Link  108 at Thu Apr 16 10:00:24 2020, MaxMem= 1073741824 cpu:       0.0
 (Enter /home/matheus/.gaussian/g09/l202.exe)
 ---------------------------------------------------------------------------------------------------
                            Z-MATRIX (ANGSTROMS AND DEGREES)
   CD    Cent   Atom    N1       Length/X        N2       Alpha/Y        N3        Beta/Z          J
 ---------------------------------------------------------------------------------------------------
      1      1  O        0   0.000000          0.000000          0.725000
      2      2  O        0   0.000000          0.000000         -0.725000
      3      3  H        0   0.904763          0.159534          1.023510
      4      4  H        0   0.000000          0.918721         -1.023510
      5      5  Kr       0   0.000000          3.100000          0.000000
 ---------------------------------------------------------------------------------------------------
                         Z-Matrix orientation:                         
 ---------------------------------------------------------------------
 Center     Atomic      Atomic             Coordinates (Angstroms)
 Number     Number       Type             X           Y           Z
 ---------------------------------------------------------------------
      1          8           0        0.000000    0.000000    0.725000
      2          8           0        0.000000    0.000000   -0.725000
      3          1           0        0.904763    0.159534    1.023510
      4          1           0        0.000000    0.918721   -1.023510
      5         36           0        0.000000    3.100000    0.000000
 ---------------------------------------------------------------------
                    Distance matrix (angstroms):
                    1          2          3          4          5
     1  O    0.000000
     2  O    1.450000   0.000000
     3  H    0.966000   1.975180   0.000000
     4  H    1.975180   0.966000   2.363314   0.000000
     5  Kr   3.183650   3.183650   3.242300   2.409472   0.000000
 Stoichiometry    H2KrO2
 Framework group  C1[X(H2KrO2)]
 Deg. of freedom     9
 Full point group                 C1      NOp   1
 RotChk:  IX=0 Diff= 1.12D-03
 Largest Abelian subgroup         C1      NOp   1
 Largest concise Abelian subgroup C1      NOp   1
                         Standard orientation:                         
 ---------------------------------------------------------------------
 Center     Atomic      Atomic             Coordinates (Angstroms)
 Number     Number       Type             X           Y           Z
 ---------------------------------------------------------------------
      1          8           0        2.091715   -0.701005   -0.115197
      2          8           0        2.080378    0.742700    0.019294
      3          1           0        1.948815   -1.083494    0.760267
      4          1           0        1.159466    1.031419    0.060750
      5         36           0       -1.013473   -0.007819   -0.001494
 ---------------------------------------------------------------------
 Rotational constants (GHZ):     25.6202787      2.2030853      2.0410178
 Leave Link  202 at Thu Apr 16 10:00:24 2020, MaxMem= 1073741824 cpu:       0.0
 (Enter /home/matheus/.gaussian/g09/l301.exe)
 Standard basis: Aug-CC-pVTZ (5D, 7F)
 Ernie: Thresh=  0.10000D-02 Tol=  0.10000D-05 Strict=F.
 Ernie:  38 primitive shells out of 205 were deleted.
 There are   197 symmetry adapted basis functions of A   symmetry.
 Integral buffers will be    131072 words long.
 Raffenetti 2 integral format.
 Two-electron integral symmetry is turned on.
   197 basis functions,   415 primitive gaussians,   229 cartesian basis functions
    27 alpha electrons       27 beta electrons
       nuclear repulsion energy       146.1552713322 Hartrees.
 IExCor= 4639 DFT=T Ex+Corr=wB97XD ExCW=0 ScaHFX=  1.000000
 ScaDFX=  1.000000  1.000000  1.000000  1.000000 ScalE2=  1.000000  1.000000
 IRadAn=      5 IRanWt=     -1 IRanGd=            0 ICorTp=0
  HFx wShort=  0.000000 wLong=  0.250000 cFull=  0.222036 cShort=  0.000000 cLong=  0.777964
  DFx wShort=  0.000000 wLong=  0.250000 cFull=  0.000000 cShort=  0.000000 cLong=  1.000000
 NAtoms=    5 NActive=    5 NUniq=    5 SFac= 1.00D+00 NAtFMM=   60 NAOKFM=F Big=F
 R6Disp: Dispersion energy =        -0.0010264850 Hartrees.
 Nuclear repulsion after empirical dispersion term =      146.1542448472 Hartrees.
 Leave Link  301 at Thu Apr 16 10:00:24 2020, MaxMem= 1073741824 cpu:       0.2
 (Enter /home/matheus/.gaussian/g09/l302.exe)
 NPDir=0 NMtPBC=     1 NCelOv=     1 NCel=       1 NClECP=     1 NCelD=      1
         NCelK=      1 NCelE2=     1 NClLst=     1 CellRange=     0.0.
 One-electron integrals computed using PRISM.
 NBasis=   197 RedAO= T  NBF=   197
 NBsUse=   197 1.00D-06 NBFU=   197
 Precomputing XC quadrature grid using
 IXCGrd= 2 IRadAn=           5 IRanWt=          -1 IRanGd=           0 AccXCQ= 0.00D+00.
 NRdTot=     427 NPtTot=      123512 NUsed=      126579 NTot=      126611
 NSgBfM=   229   229   229   229   229 NAtAll=     5     5.
 Leave Link  302 at Thu Apr 16 10:00:24 2020, MaxMem= 1073741824 cpu:       1.1
 (Enter /home/matheus/.gaussian/g09/l303.exe)
 DipDrv:  MaxL=1.
 Leave Link  303 at Thu Apr 16 10:00:25 2020, MaxMem= 1073741824 cpu:       0.2
 (Enter /home/matheus/.gaussian/g09/l401.exe)
 Initial guess read from the read-write file.
 B after Tr=     0.000000    0.000000    0.000000
         Rot=    1.000000    0.000000    0.000000    0.000000 Ang=   0.00 deg.
 Guess basis will be translated and rotated to current coordinates.
 Initial guess orbital symmetries:
       Occupied  (A) (A) (A) (A) (A) (A) (A) (A) (A) (A) (A) (A)
                 (A) (A) (A) (A) (A) (A) (A) (A) (A) (A) (A) (A)
                 (A) (A) (A)
       Virtual   (A) (A) (A) (A) (A) (A) (A) (A) (A) (A) (A) (A)
                 (A) (A) (A) (A) (A) (A) (A) (A) (A) (A) (A) (A)
                 (A) (A) (A) (A) (A) (A) (A) (A) (A) (A) (A) (A)
                 (A) (A) (A) (A) (A) (A) (A) (A) (A) (A) (A) (A)
                 (A) (A) (A) (A) (A) (A) (A) (A) (A) (A) (A) (A)
                 (A) (A) (A) (A) (A) (A) (A) (A) (A) (A) (A) (A)
                 (A) (A) (A) (A) (A) (A) (A) (A) (A) (A) (A) (A)
                 (A) (A) (A) (A) (A) (A) (A) (A) (A) (A) (A) (A)
                 (A) (A) (A) (A) (A) (A) (A) (A) (A) (A) (A) (A)
                 (A) (A) (A) (A) (A) (A) (A) (A) (A) (A) (A) (A)
                 (A) (A) (A) (A) (A) (A) (A) (A) (A) (A) (A) (A)
                 (A) (A) (A) (A) (A) (A) (A) (A) (A) (A) (A) (A)
                 (A) (A) (A) (A) (A) (A) (A) (A) (A) (A) (A) (A)
                 (A) (A) (A) (A) (A) (A) (A) (A) (A) (A) (A) (A)
                 (A) (A)
 The electronic state of the initial guess is 1-A.
 Generating alternative initial guess.
 Harris functional with IExCor= 4639 diagonalized for initial guess.
 ExpMin= 2.53D-02 ExpMax= 1.17D+07 ExpMxC= 1.33D+04 IAcc=3 IRadAn=         5 AccDes= 0.00D+00
 HarFok:  IExCor= 4639 AccDes= 0.00D+00 IRadAn=         5 IDoV= 1
 ScaDFX=  1.000000  1.000000  1.000000  1.000000
 FoFCou: FMM=F IPFlag=           0 FMFlag=      100000 FMFlg1=           0
         NFxFlg=           0 DoJE=T BraDBF=F KetDBF=T FulRan=T
         Omega=  0.000000  0.000000  1.000000  0.000000  0.000000 ICntrl=     500 IOpCl=  0
         NMat0=    1 NMatS0=    1 NMatT0=    0 NMatD0=    1 NMtDS0=    0 NMtDT0=    0
         I1Cent=           4 NGrid=           0.
 Petite list used in FoFCou.
 Harris En= -2875.40082417659    
 Leave Link  401 at Thu Apr 16 10:00:25 2020, MaxMem= 1073741824 cpu:       4.5
 (Enter /home/matheus/.gaussian/g09/l502.exe)
 Closed shell SCF:
 Requested convergence on RMS density matrix=1.00D-08 within 128 cycles.
 Requested convergence on MAX density matrix=1.00D-06.
 Requested convergence on             energy=1.00D-06.
 No special actions if energy rises.
 Using DIIS extrapolation, IDIIS=  1040.
 Integral symmetry usage will be decided dynamically.
       126521 words used for storage of precomputed grid.
 IEnd=      305468 IEndB=      305468 NGot=  1073741824 MDV=  1073505667
 LenX=  1073505667 LenY=  1073452785
 Fock matrices will be formed incrementally for  20 cycles.

 Cycle   1  Pass 1  IDiag  1:
 FoFJK:  IHMeth= 1 ICntrl=     0 DoSepK=T KAlg= 1 I1Cent= 0 FoldK=F
 FoFCou: FMM=F IPFlag=           0 FMFlag=      100000 FMFlg1=           0
         NFxFlg=           0 DoJE=T BraDBF=F KetDBF=F FulRan=T
         Omega=  0.000000  0.000000  1.000000  0.000000  0.000000 ICntrl=     500 IOpCl=  0
         NMat0=    1 NMatS0=    1 NMatT0=    0 NMatD0=    1 NMtDS0=    0 NMtDT0=    0
         I1Cent=           0 NGrid=           0.
 Symmetry not used in FoFCou.
 E= -2905.42859931494    
 DIIS: error= 1.25D-03 at cycle   1 NSaved=   1.
 NSaved= 1 IEnMin= 1 EnMin= -2905.42859931494     IErMin= 1 ErrMin= 1.25D-03
 ErrMax= 1.25D-03 EMaxC= 1.00D-01 BMatC= 5.41D-04 BMatP= 5.41D-04
 IDIUse=3 WtCom= 9.87D-01 WtEn= 1.25D-02
 Coeff-Com:  0.100D+01
 Coeff-En:   0.100D+01
 Coeff:      0.100D+01
 Gap=     0.439 Goal=   None    Shift=    0.000
 GapD=    0.439 DampG=2.000 DampE=1.000 DampFc=2.0000 IDamp=-1.
 RMSDP=7.25D-05 MaxDP=2.33D-03              OVMax= 3.00D-03

 Cycle   2  Pass 1  IDiag  1:
 RMSU=  5.12D-05    CP:  1.00D+00
 FoFJK:  IHMeth= 1 ICntrl=     0 DoSepK=T KAlg= 1 I1Cent= 0 FoldK=F
 E= -2905.42869958223     Delta-E=       -0.000100267289 Rises=F Damp=F
 DIIS: error= 1.08D-04 at cycle   2 NSaved=   2.
 NSaved= 2 IEnMin= 2 EnMin= -2905.42869958223     IErMin= 2 ErrMin= 1.08D-04
 ErrMax= 1.08D-04 EMaxC= 1.00D-01 BMatC= 5.33D-06 BMatP= 5.41D-04
 IDIUse=3 WtCom= 9.99D-01 WtEn= 1.08D-03
 Coeff-Com:  0.454D-03 0.100D+01
 Coeff-En:   0.000D+00 0.100D+01
 Coeff:      0.453D-03 0.100D+01
 Gap=     0.437 Goal=   None    Shift=    0.000
 RMSDP=1.65D-05 MaxDP=7.20D-04 DE=-1.00D-04 OVMax= 8.51D-04

 Cycle   3  Pass 1  IDiag  1:
 RMSU=  9.86D-06    CP:  1.00D+00  1.12D+00
 FoFJK:  IHMeth= 1 ICntrl=     0 DoSepK=T KAlg= 1 I1Cent= 0 FoldK=F
 E= -2905.42870232481     Delta-E=       -0.000002742581 Rises=F Damp=F
 DIIS: error= 9.69D-05 at cycle   3 NSaved=   3.
 NSaved= 3 IEnMin= 3 EnMin= -2905.42870232481     IErMin= 3 ErrMin= 9.69D-05
 ErrMax= 9.69D-05 EMaxC= 1.00D-01 BMatC= 4.45D-06 BMatP= 5.33D-06
 IDIUse=1 WtCom= 1.00D+00 WtEn= 0.00D+00
 Coeff-Com: -0.801D-02 0.479D+00 0.529D+00
 Coeff:     -0.801D-02 0.479D+00 0.529D+00
 Gap=     0.437 Goal=   None    Shift=    0.000
 RMSDP=6.04D-06 MaxDP=3.29D-04 DE=-2.74D-06 OVMax= 4.45D-04

 Cycle   4  Pass 1  IDiag  1:
 RMSU=  2.96D-06    CP:  1.00D+00  1.14D+00  7.07D-01
 FoFJK:  IHMeth= 1 ICntrl=     0 DoSepK=T KAlg= 1 I1Cent= 0 FoldK=F
 E= -2905.42870505572     Delta-E=       -0.000002730910 Rises=F Damp=F
 DIIS: error= 2.34D-05 at cycle   4 NSaved=   4.
 NSaved= 4 IEnMin= 4 EnMin= -2905.42870505572     IErMin= 4 ErrMin= 2.34D-05
 ErrMax= 2.34D-05 EMaxC= 1.00D-01 BMatC= 2.10D-07 BMatP= 4.45D-06
 IDIUse=1 WtCom= 1.00D+00 WtEn= 0.00D+00
 Coeff-Com: -0.262D-02 0.682D-01 0.182D+00 0.753D+00
 Coeff:     -0.262D-02 0.682D-01 0.182D+00 0.753D+00
 Gap=     0.437 Goal=   None    Shift=    0.000
 RMSDP=2.00D-06 MaxDP=6.20D-05 DE=-2.73D-06 OVMax= 1.17D-04

 Cycle   5  Pass 1  IDiag  1:
 RMSU=  1.14D-06    CP:  1.00D+00  1.15D+00  7.76D-01  1.03D+00
 FoFJK:  IHMeth= 1 ICntrl=     0 DoSepK=T KAlg= 1 I1Cent= 0 FoldK=F
 E= -2905.42870520347     Delta-E=       -0.000000147744 Rises=F Damp=F
 DIIS: error= 1.16D-05 at cycle   5 NSaved=   5.
 NSaved= 5 IEnMin= 5 EnMin= -2905.42870520347     IErMin= 5 ErrMin= 1.16D-05
 ErrMax= 1.16D-05 EMaxC= 1.00D-01 BMatC= 4.45D-08 BMatP= 2.10D-07
 IDIUse=1 WtCom= 1.00D+00 WtEn= 0.00D+00
 Coeff-Com:  0.165D-03-0.542D-01-0.972D-02 0.347D+00 0.716D+00
 Coeff:      0.165D-03-0.542D-01-0.972D-02 0.347D+00 0.716D+00
 Gap=     0.437 Goal=   None    Shift=    0.000
 RMSDP=9.33D-07 MaxDP=3.82D-05 DE=-1.48D-07 OVMax= 4.88D-05

 Cycle   6  Pass 1  IDiag  1:
 RMSU=  3.53D-07    CP:  1.00D+00  1.16D+00  8.08D-01  1.16D+00  8.80D-01
 FoFJK:  IHMeth= 1 ICntrl=     0 DoSepK=T KAlg= 1 I1Cent= 0 FoldK=F
 E= -2905.42870523822     Delta-E=       -0.000000034748 Rises=F Damp=F
 DIIS: error= 2.33D-06 at cycle   6 NSaved=   6.
 NSaved= 6 IEnMin= 6 EnMin= -2905.42870523822     IErMin= 6 ErrMin= 2.33D-06
 ErrMax= 2.33D-06 EMaxC= 1.00D-01 BMatC= 1.41D-09 BMatP= 4.45D-08
 IDIUse=1 WtCom= 1.00D+00 WtEn= 0.00D+00
 Coeff-Com:  0.183D-03-0.213D-01-0.125D-01 0.716D-01 0.226D+00 0.737D+00
 Coeff:      0.183D-03-0.213D-01-0.125D-01 0.716D-01 0.226D+00 0.737D+00
 Gap=     0.437 Goal=   None    Shift=    0.000
 RMSDP=1.91D-07 MaxDP=6.35D-06 DE=-3.47D-08 OVMax= 1.05D-05

 Cycle   7  Pass 1  IDiag  1:
 RMSU=  8.62D-08    CP:  1.00D+00  1.16D+00  8.13D-01  1.18D+00  9.36D-01
                    CP:  1.04D+00
 FoFJK:  IHMeth= 1 ICntrl=     0 DoSepK=T KAlg= 1 I1Cent= 0 FoldK=F
 E= -2905.42870523962     Delta-E=       -0.000000001403 Rises=F Damp=F
 DIIS: error= 4.53D-07 at cycle   7 NSaved=   7.
 NSaved= 7 IEnMin= 7 EnMin= -2905.42870523962     IErMin= 7 ErrMin= 4.53D-07
 ErrMax= 4.53D-07 EMaxC= 1.00D-01 BMatC= 5.96D-11 BMatP= 1.41D-09
 IDIUse=1 WtCom= 1.00D+00 WtEn= 0.00D+00
 Coeff-Com: -0.117D-04 0.514D-02 0.127D-02-0.333D-01-0.693D-01 0.735D-02
 Coeff-Com:  0.109D+01
 Coeff:     -0.117D-04 0.514D-02 0.127D-02-0.333D-01-0.693D-01 0.735D-02
 Coeff:      0.109D+01
 Gap=     0.437 Goal=   None    Shift=    0.000
 RMSDP=8.70D-08 MaxDP=3.63D-06 DE=-1.40D-09 OVMax= 5.60D-06

 Cycle   8  Pass 1  IDiag  1:
 RMSU=  2.60D-08    CP:  1.00D+00  1.16D+00  8.15D-01  1.19D+00  9.50D-01
                    CP:  1.16D+00  1.19D+00
 FoFJK:  IHMeth= 1 ICntrl=     0 DoSepK=T KAlg= 1 I1Cent= 0 FoldK=F
 E= -2905.42870523975     Delta-E=       -0.000000000129 Rises=F Damp=F
 DIIS: error= 7.24D-08 at cycle   8 NSaved=   8.
 NSaved= 8 IEnMin= 8 EnMin= -2905.42870523975     IErMin= 8 ErrMin= 7.24D-08
 ErrMax= 7.24D-08 EMaxC= 1.00D-01 BMatC= 3.09D-12 BMatP= 5.96D-11
 IDIUse=1 WtCom= 1.00D+00 WtEn= 0.00D+00
 Coeff-Com: -0.116D-04 0.208D-02 0.821D-03-0.105D-01-0.240D-01-0.272D-01
 Coeff-Com:  0.205D+00 0.853D+00
 Coeff:     -0.116D-04 0.208D-02 0.821D-03-0.105D-01-0.240D-01-0.272D-01
 Coeff:      0.205D+00 0.853D+00
 Gap=     0.437 Goal=   None    Shift=    0.000
 RMSDP=1.26D-08 MaxDP=3.07D-07 DE=-1.29D-10 OVMax= 8.33D-07

 Cycle   9  Pass 1  IDiag  1:
 RMSU=  5.43D-09    CP:  1.00D+00  1.16D+00  8.15D-01  1.19D+00  9.50D-01
                    CP:  1.17D+00  1.23D+00  1.20D+00
 FoFJK:  IHMeth= 1 ICntrl=     0 DoSepK=T KAlg= 1 I1Cent= 0 FoldK=F
 E= -2905.42870523976     Delta-E=       -0.000000000006 Rises=F Damp=F
 DIIS: error= 2.09D-08 at cycle   9 NSaved=   9.
 NSaved= 9 IEnMin= 9 EnMin= -2905.42870523976     IErMin= 9 ErrMin= 2.09D-08
 ErrMax= 2.09D-08 EMaxC= 1.00D-01 BMatC= 1.82D-13 BMatP= 3.09D-12
 IDIUse=1 WtCom= 1.00D+00 WtEn= 0.00D+00
 Coeff-Com:  0.541D-06-0.298D-03-0.834D-04 0.194D-02 0.437D-02-0.434D-03
 Coeff-Com: -0.739D-01 0.266D-01 0.104D+01
 Coeff:      0.541D-06-0.298D-03-0.834D-04 0.194D-02 0.437D-02-0.434D-03
 Coeff:     -0.739D-01 0.266D-01 0.104D+01
 Gap=     0.437 Goal=   None    Shift=    0.000
 RMSDP=6.07D-09 MaxDP=1.93D-07 DE=-6.37D-12 OVMax= 3.52D-07

 SCF Done:  E(RwB97XD) =  -2905.42870524     A.U. after    9 cycles
             Convg  =    0.6074D-08             -V/T =  2.0015
 KE= 2.900932443382D+03 PE=-7.230336800044D+03 EE= 1.277821406575D+03
 Leave Link  502 at Thu Apr 16 10:00:52 2020, MaxMem= 1073741824 cpu:     214.4
 (Enter /home/matheus/.gaussian/g09/l108.exe)
 Variable Step   Value    
 -------- ---- -----------
     1       2    6.047124
 Leave Link  108 at Thu Apr 16 10:00:52 2020, MaxMem= 1073741824 cpu:       0.0
 (Enter /home/matheus/.gaussian/g09/l202.exe)
 ---------------------------------------------------------------------------------------------------
                            Z-MATRIX (ANGSTROMS AND DEGREES)
   CD    Cent   Atom    N1       Length/X        N2       Alpha/Y        N3        Beta/Z          J
 ---------------------------------------------------------------------------------------------------
      1      1  O        0   0.000000          0.000000          0.725000
      2      2  O        0   0.000000          0.000000         -0.725000
      3      3  H        0   0.904763          0.159534          1.023510
      4      4  H        0   0.000000          0.918721         -1.023510
      5      5  Kr       0   0.000000          3.200000          0.000000
 ---------------------------------------------------------------------------------------------------
                         Z-Matrix orientation:                         
 ---------------------------------------------------------------------
 Center     Atomic      Atomic             Coordinates (Angstroms)
 Number     Number       Type             X           Y           Z
 ---------------------------------------------------------------------
      1          8           0        0.000000    0.000000    0.725000
      2          8           0        0.000000    0.000000   -0.725000
      3          1           0        0.904763    0.159534    1.023510
      4          1           0        0.000000    0.918721   -1.023510
      5         36           0        0.000000    3.200000    0.000000
 ---------------------------------------------------------------------
                    Distance matrix (angstroms):
                    1          2          3          4          5
     1  O    0.000000
     2  O    1.450000   0.000000
     3  H    0.966000   1.975180   0.000000
     4  H    1.975180   0.966000   2.363314   0.000000
     5  Kr   3.281101   3.281101   3.333257   2.500362   0.000000
 Stoichiometry    H2KrO2
 Framework group  C1[X(H2KrO2)]
 Deg. of freedom     9
 Full point group                 C1      NOp   1
 RotChk:  IX=0 Diff= 1.02D-03
 Largest Abelian subgroup         C1      NOp   1
 Largest concise Abelian subgroup C1      NOp   1
                         Standard orientation:                         
 ---------------------------------------------------------------------
 Center     Atomic      Atomic             Coordinates (Angstroms)
 Number     Number       Type             X           Y           Z
 ---------------------------------------------------------------------
      1          8           0        2.158014   -0.701636   -0.115291
      2          8           0        2.147457    0.742070    0.019248
      3          1           0        2.014515   -1.084075    0.760097
      4          1           0        1.226695    1.031322    0.060317
      5         36           0       -1.046805   -0.007520   -0.001446
 ---------------------------------------------------------------------
 Rotational constants (GHZ):     25.6200954      2.0671048      1.9237734
 Leave Link  202 at Thu Apr 16 10:00:52 2020, MaxMem= 1073741824 cpu:       0.0
 (Enter /home/matheus/.gaussian/g09/l301.exe)
 Standard basis: Aug-CC-pVTZ (5D, 7F)
 Ernie: Thresh=  0.10000D-02 Tol=  0.10000D-05 Strict=F.
 Ernie:  38 primitive shells out of 205 were deleted.
 There are   197 symmetry adapted basis functions of A   symmetry.
 Integral buffers will be    131072 words long.
 Raffenetti 2 integral format.
 Two-electron integral symmetry is turned on.
   197 basis functions,   415 primitive gaussians,   229 cartesian basis functions
    27 alpha electrons       27 beta electrons
       nuclear repulsion energy       142.8639406607 Hartrees.
 IExCor= 4639 DFT=T Ex+Corr=wB97XD ExCW=0 ScaHFX=  1.000000
 ScaDFX=  1.000000  1.000000  1.000000  1.000000 ScalE2=  1.000000  1.000000
 IRadAn=      5 IRanWt=     -1 IRanGd=            0 ICorTp=0
  HFx wShort=  0.000000 wLong=  0.250000 cFull=  0.222036 cShort=  0.000000 cLong=  0.777964
  DFx wShort=  0.000000 wLong=  0.250000 cFull=  0.000000 cShort=  0.000000 cLong=  1.000000
 NAtoms=    5 NActive=    5 NUniq=    5 SFac= 1.00D+00 NAtFMM=   60 NAOKFM=F Big=F
 R6Disp: Dispersion energy =        -0.0010817926 Hartrees.
 Nuclear repulsion after empirical dispersion term =      142.8628588681 Hartrees.
 Leave Link  301 at Thu Apr 16 10:00:52 2020, MaxMem= 1073741824 cpu:       0.2
 (Enter /home/matheus/.gaussian/g09/l302.exe)
 NPDir=0 NMtPBC=     1 NCelOv=     1 NCel=       1 NClECP=     1 NCelD=      1
         NCelK=      1 NCelE2=     1 NClLst=     1 CellRange=     0.0.
 One-electron integrals computed using PRISM.
 NBasis=   197 RedAO= T  NBF=   197
 NBsUse=   197 1.00D-06 NBFU=   197
 Precomputing XC quadrature grid using
 IXCGrd= 2 IRadAn=           5 IRanWt=          -1 IRanGd=           0 AccXCQ= 0.00D+00.
 NRdTot=     427 NPtTot=      123512 NUsed=      126579 NTot=      126611
 NSgBfM=   229   229   229   229   229 NAtAll=     5     5.
 Leave Link  302 at Thu Apr 16 10:00:52 2020, MaxMem= 1073741824 cpu:       1.0
 (Enter /home/matheus/.gaussian/g09/l303.exe)
 DipDrv:  MaxL=1.
 Leave Link  303 at Thu Apr 16 10:00:52 2020, MaxMem= 1073741824 cpu:       0.2
 (Enter /home/matheus/.gaussian/g09/l401.exe)
 Initial guess read from the read-write file.
 B after Tr=     0.000000    0.000000    0.000000
         Rot=    1.000000    0.000000    0.000000    0.000000 Ang=   0.00 deg.
 Guess basis will be translated and rotated to current coordinates.
 Initial guess orbital symmetries:
       Occupied  (A) (A) (A) (A) (A) (A) (A) (A) (A) (A) (A) (A)
                 (A) (A) (A) (A) (A) (A) (A) (A) (A) (A) (A) (A)
                 (A) (A) (A)
       Virtual   (A) (A) (A) (A) (A) (A) (A) (A) (A) (A) (A) (A)
                 (A) (A) (A) (A) (A) (A) (A) (A) (A) (A) (A) (A)
                 (A) (A) (A) (A) (A) (A) (A) (A) (A) (A) (A) (A)
                 (A) (A) (A) (A) (A) (A) (A) (A) (A) (A) (A) (A)
                 (A) (A) (A) (A) (A) (A) (A) (A) (A) (A) (A) (A)
                 (A) (A) (A) (A) (A) (A) (A) (A) (A) (A) (A) (A)
                 (A) (A) (A) (A) (A) (A) (A) (A) (A) (A) (A) (A)
                 (A) (A) (A) (A) (A) (A) (A) (A) (A) (A) (A) (A)
                 (A) (A) (A) (A) (A) (A) (A) (A) (A) (A) (A) (A)
                 (A) (A) (A) (A) (A) (A) (A) (A) (A) (A) (A) (A)
                 (A) (A) (A) (A) (A) (A) (A) (A) (A) (A) (A) (A)
                 (A) (A) (A) (A) (A) (A) (A) (A) (A) (A) (A) (A)
                 (A) (A) (A) (A) (A) (A) (A) (A) (A) (A) (A) (A)
                 (A) (A) (A) (A) (A) (A) (A) (A) (A) (A) (A) (A)
                 (A) (A)
 The electronic state of the initial guess is 1-A.
 Generating alternative initial guess.
 Harris functional with IExCor= 4639 diagonalized for initial guess.
 ExpMin= 2.53D-02 ExpMax= 1.17D+07 ExpMxC= 1.33D+04 IAcc=3 IRadAn=         5 AccDes= 0.00D+00
 HarFok:  IExCor= 4639 AccDes= 0.00D+00 IRadAn=         5 IDoV= 1
 ScaDFX=  1.000000  1.000000  1.000000  1.000000
 FoFCou: FMM=F IPFlag=           0 FMFlag=      100000 FMFlg1=           0
         NFxFlg=           0 DoJE=T BraDBF=F KetDBF=T FulRan=T
         Omega=  0.000000  0.000000  1.000000  0.000000  0.000000 ICntrl=     500 IOpCl=  0
         NMat0=    1 NMatS0=    1 NMatT0=    0 NMatD0=    1 NMtDS0=    0 NMtDT0=    0
         I1Cent=           4 NGrid=           0.
 Petite list used in FoFCou.
 Harris En= -2875.40327570380    
 Leave Link  401 at Thu Apr 16 10:00:53 2020, MaxMem= 1073741824 cpu:       4.4
 (Enter /home/matheus/.gaussian/g09/l502.exe)
 Closed shell SCF:
 Requested convergence on RMS density matrix=1.00D-08 within 128 cycles.
 Requested convergence on MAX density matrix=1.00D-06.
 Requested convergence on             energy=1.00D-06.
 No special actions if energy rises.
 Using DIIS extrapolation, IDIIS=  1040.
 Integral symmetry usage will be decided dynamically.
       126521 words used for storage of precomputed grid.
 IEnd=      305468 IEndB=      305468 NGot=  1073741824 MDV=  1073505667
 LenX=  1073505667 LenY=  1073452785
 Fock matrices will be formed incrementally for  20 cycles.

 Cycle   1  Pass 1  IDiag  1:
 FoFJK:  IHMeth= 1 ICntrl=     0 DoSepK=T KAlg= 1 I1Cent= 0 FoldK=F
 FoFCou: FMM=F IPFlag=           0 FMFlag=      100000 FMFlg1=           0
         NFxFlg=           0 DoJE=T BraDBF=F KetDBF=F FulRan=T
         Omega=  0.000000  0.000000  1.000000  0.000000  0.000000 ICntrl=     500 IOpCl=  0
         NMat0=    1 NMatS0=    1 NMatT0=    0 NMatD0=    1 NMtDS0=    0 NMtDT0=    0
         I1Cent=           0 NGrid=           0.
 Symmetry not used in FoFCou.
 E= -2905.42984477574    
 DIIS: error= 1.19D-03 at cycle   1 NSaved=   1.
 NSaved= 1 IEnMin= 1 EnMin= -2905.42984477574     IErMin= 1 ErrMin= 1.19D-03
 ErrMax= 1.19D-03 EMaxC= 1.00D-01 BMatC= 4.16D-04 BMatP= 4.16D-04
 IDIUse=3 WtCom= 9.88D-01 WtEn= 1.19D-02
 Coeff-Com:  0.100D+01
 Coeff-En:   0.100D+01
 Coeff:      0.100D+01
 Gap=     0.440 Goal=   None    Shift=    0.000
 GapD=    0.440 DampG=2.000 DampE=1.000 DampFc=2.0000 IDamp=-1.
 RMSDP=6.53D-05 MaxDP=2.01D-03              OVMax= 2.68D-03

 Cycle   2  Pass 1  IDiag  1:
 RMSU=  4.62D-05    CP:  1.00D+00
 FoFJK:  IHMeth= 1 ICntrl=     0 DoSepK=T KAlg= 1 I1Cent= 0 FoldK=F
 E= -2905.42992056628     Delta-E=       -0.000075790538 Rises=F Damp=F
 DIIS: error= 9.34D-05 at cycle   2 NSaved=   2.
 NSaved= 2 IEnMin= 2 EnMin= -2905.42992056628     IErMin= 2 ErrMin= 9.34D-05
 ErrMax= 9.34D-05 EMaxC= 1.00D-01 BMatC= 3.49D-06 BMatP= 4.16D-04
 IDIUse=1 WtCom= 1.00D+00 WtEn= 0.00D+00
 Coeff-Com: -0.192D-02 0.100D+01
 Coeff:     -0.192D-02 0.100D+01
 Gap=     0.437 Goal=   None    Shift=    0.000
 RMSDP=1.40D-05 MaxDP=5.55D-04 DE=-7.58D-05 OVMax= 7.00D-04

 Cycle   3  Pass 1  IDiag  1:
 RMSU=  8.02D-06    CP:  1.00D+00  1.13D+00
 FoFJK:  IHMeth= 1 ICntrl=     0 DoSepK=T KAlg= 1 I1Cent= 0 FoldK=F
 E= -2905.42992259965     Delta-E=       -0.000002033373 Rises=F Damp=F
 DIIS: error= 8.50D-05 at cycle   3 NSaved=   3.
 NSaved= 3 IEnMin= 3 EnMin= -2905.42992259965     IErMin= 3 ErrMin= 8.50D-05
 ErrMax= 8.50D-05 EMaxC= 1.00D-01 BMatC= 2.88D-06 BMatP= 3.49D-06
 IDIUse=1 WtCom= 1.00D+00 WtEn= 0.00D+00
 Coeff-Com: -0.779D-02 0.477D+00 0.531D+00
 Coeff:     -0.779D-02 0.477D+00 0.531D+00
 Gap=     0.438 Goal=   None    Shift=    0.000
 RMSDP=4.93D-06 MaxDP=2.65D-04 DE=-2.03D-06 OVMax= 3.68D-04

 Cycle   4  Pass 1  IDiag  1:
 RMSU=  2.53D-06    CP:  1.00D+00  1.15D+00  7.29D-01
 FoFJK:  IHMeth= 1 ICntrl=     0 DoSepK=T KAlg= 1 I1Cent= 0 FoldK=F
 E= -2905.42992436997     Delta-E=       -0.000001770320 Rises=F Damp=F
 DIIS: error= 2.28D-05 at cycle   4 NSaved=   4.
 NSaved= 4 IEnMin= 4 EnMin= -2905.42992436997     IErMin= 4 ErrMin= 2.28D-05
 ErrMax= 2.28D-05 EMaxC= 1.00D-01 BMatC= 1.50D-07 BMatP= 2.88D-06
 IDIUse=1 WtCom= 1.00D+00 WtEn= 0.00D+00
 Coeff-Com: -0.229D-02 0.532D-01 0.181D+00 0.768D+00
 Coeff:     -0.229D-02 0.532D-01 0.181D+00 0.768D+00
 Gap=     0.438 Goal=   None    Shift=    0.000
 RMSDP=1.80D-06 MaxDP=5.91D-05 DE=-1.77D-06 OVMax= 9.99D-05

 Cycle   5  Pass 1  IDiag  1:
 RMSU=  9.56D-07    CP:  1.00D+00  1.16D+00  8.11D-01  1.05D+00
 FoFJK:  IHMeth= 1 ICntrl=     0 DoSepK=T KAlg= 1 I1Cent= 0 FoldK=F
 E= -2905.42992447811     Delta-E=       -0.000000108142 Rises=F Damp=F
 DIIS: error= 9.39D-06 at cycle   5 NSaved=   5.
 NSaved= 5 IEnMin= 5 EnMin= -2905.42992447811     IErMin= 5 ErrMin= 9.39D-06
 ErrMax= 9.39D-06 EMaxC= 1.00D-01 BMatC= 3.05D-08 BMatP= 1.50D-07
 IDIUse=1 WtCom= 1.00D+00 WtEn= 0.00D+00
 Coeff-Com:  0.199D-03-0.555D-01-0.418D-02 0.353D+00 0.707D+00
 Coeff:      0.199D-03-0.555D-01-0.418D-02 0.353D+00 0.707D+00
 Gap=     0.438 Goal=   None    Shift=    0.000
 RMSDP=8.06D-07 MaxDP=3.28D-05 DE=-1.08D-07 OVMax= 3.93D-05

 Cycle   6  Pass 1  IDiag  1:
 RMSU=  2.94D-07    CP:  1.00D+00  1.16D+00  8.46D-01  1.18D+00  8.76D-01
 FoFJK:  IHMeth= 1 ICntrl=     0 DoSepK=T KAlg= 1 I1Cent= 0 FoldK=F
 E= -2905.42992450200     Delta-E=       -0.000000023891 Rises=F Damp=F
 DIIS: error= 1.92D-06 at cycle   6 NSaved=   6.
 NSaved= 6 IEnMin= 6 EnMin= -2905.42992450200     IErMin= 6 ErrMin= 1.92D-06
 ErrMax= 1.92D-06 EMaxC= 1.00D-01 BMatC= 9.51D-10 BMatP= 3.05D-08
 IDIUse=1 WtCom= 1.00D+00 WtEn= 0.00D+00
 Coeff-Com:  0.176D-03-0.204D-01-0.106D-01 0.693D-01 0.217D+00 0.744D+00
 Coeff:      0.176D-03-0.204D-01-0.106D-01 0.693D-01 0.217D+00 0.744D+00
 Gap=     0.438 Goal=   None    Shift=    0.000
 RMSDP=1.64D-07 MaxDP=5.67D-06 DE=-2.39D-08 OVMax= 9.44D-06

 Cycle   7  Pass 1  IDiag  1:
 RMSU=  7.07D-08    CP:  1.00D+00  1.16D+00  8.52D-01  1.20D+00  9.32D-01
                    CP:  1.04D+00
 FoFJK:  IHMeth= 1 ICntrl=     0 DoSepK=T KAlg= 1 I1Cent= 0 FoldK=F
 E= -2905.42992450298     Delta-E=       -0.000000000983 Rises=F Damp=F
 DIIS: error= 3.62D-07 at cycle   7 NSaved=   7.
 NSaved= 7 IEnMin= 7 EnMin= -2905.42992450298     IErMin= 7 ErrMin= 3.62D-07
 ErrMax= 3.62D-07 EMaxC= 1.00D-01 BMatC= 4.52D-11 BMatP= 9.51D-10
 IDIUse=1 WtCom= 1.00D+00 WtEn= 0.00D+00
 Coeff-Com: -0.154D-04 0.551D-02 0.742D-03-0.358D-01-0.709D-01 0.156D-01
 Coeff-Com:  0.108D+01
 Coeff:     -0.154D-04 0.551D-02 0.742D-03-0.358D-01-0.709D-01 0.156D-01
 Coeff:      0.108D+01
 Gap=     0.438 Goal=   None    Shift=    0.000
 RMSDP=7.33D-08 MaxDP=3.10D-06 DE=-9.83D-10 OVMax= 5.08D-06

 Cycle   8  Pass 1  IDiag  1:
 RMSU=  2.27D-08    CP:  1.00D+00  1.16D+00  8.54D-01  1.21D+00  9.46D-01
                    CP:  1.15D+00  1.20D+00
 FoFJK:  IHMeth= 1 ICntrl=     0 DoSepK=T KAlg= 1 I1Cent= 0 FoldK=F
 E= -2905.42992450309     Delta-E=       -0.000000000109 Rises=F Damp=F
 DIIS: error= 5.71D-08 at cycle   8 NSaved=   8.
 NSaved= 8 IEnMin= 8 EnMin= -2905.42992450309     IErMin= 8 ErrMin= 5.71D-08
 ErrMax= 5.71D-08 EMaxC= 1.00D-01 BMatC= 2.22D-12 BMatP= 4.52D-11
 IDIUse=1 WtCom= 1.00D+00 WtEn= 0.00D+00
 Coeff-Com: -0.116D-04 0.205D-02 0.584D-03-0.106D-01-0.230D-01-0.242D-01
 Coeff-Com:  0.200D+00 0.856D+00
 Coeff:     -0.116D-04 0.205D-02 0.584D-03-0.106D-01-0.230D-01-0.242D-01
 Coeff:      0.200D+00 0.856D+00
 Gap=     0.438 Goal=   None    Shift=    0.000
 RMSDP=1.10D-08 MaxDP=2.71D-07 DE=-1.09D-10 OVMax= 7.71D-07

 Cycle   9  Pass 1  IDiag  1:
 RMSU=  4.78D-09    CP:  1.00D+00  1.16D+00  8.54D-01  1.21D+00  9.45D-01
                    CP:  1.16D+00  1.24D+00  1.21D+00
 FoFJK:  IHMeth= 1 ICntrl=     0 DoSepK=T KAlg= 1 I1Cent= 0 FoldK=F
 E= -2905.42992450308     Delta-E=        0.000000000011 Rises=F Damp=F
 DIIS: error= 2.26D-08 at cycle   9 NSaved=   9.
 NSaved= 9 IEnMin= 8 EnMin= -2905.42992450309     IErMin= 9 ErrMin= 2.26D-08
 ErrMax= 2.26D-08 EMaxC= 1.00D-01 BMatC= 1.70D-13 BMatP= 2.22D-12
 IDIUse=1 WtCom= 1.00D+00 WtEn= 0.00D+00
 Coeff-Com:  0.117D-05-0.420D-03-0.738D-04 0.265D-02 0.578D-02-0.582D-03
 Coeff-Com: -0.887D-01 0.924D-02 0.107D+01
 Coeff:      0.117D-05-0.420D-03-0.738D-04 0.265D-02 0.578D-02-0.582D-03
 Coeff:     -0.887D-01 0.924D-02 0.107D+01
 Gap=     0.438 Goal=   None    Shift=    0.000
 RMSDP=5.97D-09 MaxDP=1.97D-07 DE= 1.14D-11 OVMax= 4.97D-07

 SCF Done:  E(RwB97XD) =  -2905.42992450     A.U. after    9 cycles
             Convg  =    0.5971D-08             -V/T =  2.0016
 KE= 2.900923730766D+03 PE=-7.223764695297D+03 EE= 1.274548181160D+03
 Leave Link  502 at Thu Apr 16 10:01:19 2020, MaxMem= 1073741824 cpu:     213.3
 (Enter /home/matheus/.gaussian/g09/l108.exe)
 Variable Step   Value    
 -------- ---- -----------
     1       3    6.236096
 Leave Link  108 at Thu Apr 16 10:01:19 2020, MaxMem= 1073741824 cpu:       0.0
 (Enter /home/matheus/.gaussian/g09/l202.exe)
 ---------------------------------------------------------------------------------------------------
                            Z-MATRIX (ANGSTROMS AND DEGREES)
   CD    Cent   Atom    N1       Length/X        N2       Alpha/Y        N3        Beta/Z          J
 ---------------------------------------------------------------------------------------------------
      1      1  O        0   0.000000          0.000000          0.725000
      2      2  O        0   0.000000          0.000000         -0.725000
      3      3  H        0   0.904763          0.159534          1.023510
      4      4  H        0   0.000000          0.918721         -1.023510
      5      5  Kr       0   0.000000          3.300000          0.000000
 ---------------------------------------------------------------------------------------------------
                         Z-Matrix orientation:                         
 ---------------------------------------------------------------------
 Center     Atomic      Atomic             Coordinates (Angstroms)
 Number     Number       Type             X           Y           Z
 ---------------------------------------------------------------------
      1          8           0        0.000000    0.000000    0.725000
      2          8           0        0.000000    0.000000   -0.725000
      3          1           0        0.904763    0.159534    1.023510
      4          1           0        0.000000    0.918721   -1.023510
      5         36           0        0.000000    3.300000    0.000000
 ---------------------------------------------------------------------
                    Distance matrix (angstroms):
                    1          2          3          4          5
     1  O    0.000000
     2  O    1.450000   0.000000
     3  H    0.966000   1.975180   0.000000
     4  H    1.975180   0.966000   2.363314   0.000000
     5  Kr   3.378702   3.378702   3.424718   2.591923   0.000000
 Stoichiometry    H2KrO2
 Framework group  C1[X(H2KrO2)]
 Deg. of freedom     9
 Full point group                 C1      NOp   1
 RotChk:  IX=0 Diff= 9.39D-04
 Largest Abelian subgroup         C1      NOp   1
 Largest concise Abelian subgroup C1      NOp   1
                         Standard orientation:                         
 ---------------------------------------------------------------------
 Center     Atomic      Atomic             Coordinates (Angstroms)
 Number     Number       Type             X           Y           Z
 ---------------------------------------------------------------------
      1          8           0        2.224352   -0.702218   -0.115379
      2          8           0        2.214495    0.741489    0.019205
      3          1           0        2.080296   -1.084611    0.759938
      4          1           0        1.293867    1.031221    0.059909
      5         36           0       -1.080137   -0.007244   -0.001402
 ---------------------------------------------------------------------
 Rotational constants (GHZ):     25.6199337      1.9433112      1.8161032
 Leave Link  202 at Thu Apr 16 10:01:19 2020, MaxMem= 1073741824 cpu:       0.0
 (Enter /home/matheus/.gaussian/g09/l301.exe)
 Standard basis: Aug-CC-pVTZ (5D, 7F)
 Ernie: Thresh=  0.10000D-02 Tol=  0.10000D-05 Strict=F.
 Ernie:  38 primitive shells out of 205 were deleted.
 There are   197 symmetry adapted basis functions of A   symmetry.
 Integral buffers will be    131072 words long.
 Raffenetti 2 integral format.
 Two-electron integral symmetry is turned on.
   197 basis functions,   415 primitive gaussians,   229 cartesian basis functions
    27 alpha electrons       27 beta electrons
       nuclear repulsion energy       139.7586326220 Hartrees.
 IExCor= 4639 DFT=T Ex+Corr=wB97XD ExCW=0 ScaHFX=  1.000000
 ScaDFX=  1.000000  1.000000  1.000000  1.000000 ScalE2=  1.000000  1.000000
 IRadAn=      5 IRanWt=     -1 IRanGd=            0 ICorTp=0
  HFx wShort=  0.000000 wLong=  0.250000 cFull=  0.222036 cShort=  0.000000 cLong=  0.777964
  DFx wShort=  0.000000 wLong=  0.250000 cFull=  0.000000 cShort=  0.000000 cLong=  1.000000
 NAtoms=    5 NActive=    5 NUniq=    5 SFac= 1.00D+00 NAtFMM=   60 NAOKFM=F Big=F
 R6Disp: Dispersion energy =        -0.0011247405 Hartrees.
 Nuclear repulsion after empirical dispersion term =      139.7575078815 Hartrees.
 Leave Link  301 at Thu Apr 16 10:01:20 2020, MaxMem= 1073741824 cpu:       0.2
 (Enter /home/matheus/.gaussian/g09/l302.exe)
 NPDir=0 NMtPBC=     1 NCelOv=     1 NCel=       1 NClECP=     1 NCelD=      1
         NCelK=      1 NCelE2=     1 NClLst=     1 CellRange=     0.0.
 One-electron integrals computed using PRISM.
 NBasis=   197 RedAO= T  NBF=   197
 NBsUse=   197 1.00D-06 NBFU=   197
 Precomputing XC quadrature grid using
 IXCGrd= 2 IRadAn=           5 IRanWt=          -1 IRanGd=           0 AccXCQ= 0.00D+00.
 NRdTot=     427 NPtTot=      123512 NUsed=      126579 NTot=      126611
 NSgBfM=   229   229   229   229   229 NAtAll=     5     5.
 Leave Link  302 at Thu Apr 16 10:01:20 2020, MaxMem= 1073741824 cpu:       1.0
 (Enter /home/matheus/.gaussian/g09/l303.exe)
 DipDrv:  MaxL=1.
 Leave Link  303 at Thu Apr 16 10:01:20 2020, MaxMem= 1073741824 cpu:       0.2
 (Enter /home/matheus/.gaussian/g09/l401.exe)
 Initial guess read from the read-write file.
 B after Tr=     0.000000    0.000000    0.000000
         Rot=    1.000000    0.000000    0.000000    0.000000 Ang=   0.00 deg.
 Guess basis will be translated and rotated to current coordinates.
 Initial guess orbital symmetries:
       Occupied  (A) (A) (A) (A) (A) (A) (A) (A) (A) (A) (A) (A)
                 (A) (A) (A) (A) (A) (A) (A) (A) (A) (A) (A) (A)
                 (A) (A) (A)
       Virtual   (A) (A) (A) (A) (A) (A) (A) (A) (A) (A) (A) (A)
                 (A) (A) (A) (A) (A) (A) (A) (A) (A) (A) (A) (A)
                 (A) (A) (A) (A) (A) (A) (A) (A) (A) (A) (A) (A)
                 (A) (A) (A) (A) (A) (A) (A) (A) (A) (A) (A) (A)
                 (A) (A) (A) (A) (A) (A) (A) (A) (A) (A) (A) (A)
                 (A) (A) (A) (A) (A) (A) (A) (A) (A) (A) (A) (A)
                 (A) (A) (A) (A) (A) (A) (A) (A) (A) (A) (A) (A)
                 (A) (A) (A) (A) (A) (A) (A) (A) (A) (A) (A) (A)
                 (A) (A) (A) (A) (A) (A) (A) (A) (A) (A) (A) (A)
                 (A) (A) (A) (A) (A) (A) (A) (A) (A) (A) (A) (A)
                 (A) (A) (A) (A) (A) (A) (A) (A) (A) (A) (A) (A)
                 (A) (A) (A) (A) (A) (A) (A) (A) (A) (A) (A) (A)
                 (A) (A) (A) (A) (A) (A) (A) (A) (A) (A) (A) (A)
                 (A) (A) (A) (A) (A) (A) (A) (A) (A) (A) (A) (A)
                 (A) (A)
 The electronic state of the initial guess is 1-A.
 Generating alternative initial guess.
 Harris functional with IExCor= 4639 diagonalized for initial guess.
 ExpMin= 2.53D-02 ExpMax= 1.17D+07 ExpMxC= 1.33D+04 IAcc=3 IRadAn=         5 AccDes= 0.00D+00
 HarFok:  IExCor= 4639 AccDes= 0.00D+00 IRadAn=         5 IDoV= 1
 ScaDFX=  1.000000  1.000000  1.000000  1.000000
 FoFCou: FMM=F IPFlag=           0 FMFlag=      100000 FMFlg1=           0
         NFxFlg=           0 DoJE=T BraDBF=F KetDBF=T FulRan=T
         Omega=  0.000000  0.000000  1.000000  0.000000  0.000000 ICntrl=     500 IOpCl=  0
         NMat0=    1 NMatS0=    1 NMatT0=    0 NMatD0=    1 NMtDS0=    0 NMtDT0=    0
         I1Cent=           4 NGrid=           0.
 Petite list used in FoFCou.
 Harris En= -2875.40502419093    
 Leave Link  401 at Thu Apr 16 10:01:20 2020, MaxMem= 1073741824 cpu:       4.4
 (Enter /home/matheus/.gaussian/g09/l502.exe)
 Closed shell SCF:
 Requested convergence on RMS density matrix=1.00D-08 within 128 cycles.
 Requested convergence on MAX density matrix=1.00D-06.
 Requested convergence on             energy=1.00D-06.
 No special actions if energy rises.
 Using DIIS extrapolation, IDIIS=  1040.
 Integral symmetry usage will be decided dynamically.
       126521 words used for storage of precomputed grid.
 IEnd=      305468 IEndB=      305468 NGot=  1073741824 MDV=  1073505667
 LenX=  1073505667 LenY=  1073452785
 Fock matrices will be formed incrementally for  20 cycles.

 Cycle   1  Pass 1  IDiag  1:
 FoFJK:  IHMeth= 1 ICntrl=     0 DoSepK=T KAlg= 1 I1Cent= 0 FoldK=F
 FoFCou: FMM=F IPFlag=           0 FMFlag=      100000 FMFlg1=           0
         NFxFlg=           0 DoJE=T BraDBF=F KetDBF=F FulRan=T
         Omega=  0.000000  0.000000  1.000000  0.000000  0.000000 ICntrl=     500 IOpCl=  0
         NMat0=    1 NMatS0=    1 NMatT0=    0 NMatD0=    1 NMtDS0=    0 NMtDT0=    0
         I1Cent=           0 NGrid=           0.
 Symmetry not used in FoFCou.
 E= -2905.43064007115    
 DIIS: error= 9.90D-04 at cycle   1 NSaved=   1.
 NSaved= 1 IEnMin= 1 EnMin= -2905.43064007115     IErMin= 1 ErrMin= 9.90D-04
 ErrMax= 9.90D-04 EMaxC= 1.00D-01 BMatC= 3.11D-04 BMatP= 3.11D-04
 IDIUse=3 WtCom= 9.90D-01 WtEn= 9.90D-03
 Coeff-Com:  0.100D+01
 Coeff-En:   0.100D+01
 Coeff:      0.100D+01
 Gap=     0.440 Goal=   None    Shift=    0.000
 RMSDP=6.05D-05 MaxDP=1.90D-03              OVMax= 2.47D-03

 Cycle   2  Pass 1  IDiag  1:
 RMSU=  4.28D-05    CP:  1.00D+00
 FoFJK:  IHMeth= 1 ICntrl=     0 DoSepK=T KAlg= 1 I1Cent= 0 FoldK=F
 E= -2905.43069793537     Delta-E=       -0.000057864222 Rises=F Damp=F
 DIIS: error= 8.08D-05 at cycle   2 NSaved=   2.
 NSaved= 2 IEnMin= 2 EnMin= -2905.43069793537     IErMin= 2 ErrMin= 8.08D-05
 ErrMax= 8.08D-05 EMaxC= 1.00D-01 BMatC= 2.33D-06 BMatP= 3.11D-04
 IDIUse=1 WtCom= 1.00D+00 WtEn= 0.00D+00
 Coeff-Com: -0.392D-02 0.100D+01
 Coeff:     -0.392D-02 0.100D+01
 Gap=     0.438 Goal=   None    Shift=    0.000
 RMSDP=1.21D-05 MaxDP=4.40D-04 DE=-5.79D-05 OVMax= 5.79D-04

 Cycle   3  Pass 1  IDiag  1:
 RMSU=  6.50D-06    CP:  1.00D+00  1.13D+00
 FoFJK:  IHMeth= 1 ICntrl=     0 DoSepK=T KAlg= 1 I1Cent= 0 FoldK=F
 E= -2905.43069946955     Delta-E=       -0.000001534184 Rises=F Damp=F
 DIIS: error= 7.41D-05 at cycle   3 NSaved=   3.
 NSaved= 3 IEnMin= 3 EnMin= -2905.43069946955     IErMin= 3 ErrMin= 7.41D-05
 ErrMax= 7.41D-05 EMaxC= 1.00D-01 BMatC= 1.90D-06 BMatP= 2.33D-06
 IDIUse=1 WtCom= 1.00D+00 WtEn= 0.00D+00
 Coeff-Com: -0.786D-02 0.475D+00 0.533D+00
 Coeff:     -0.786D-02 0.475D+00 0.533D+00
 Gap=     0.438 Goal=   None    Shift=    0.000
 RMSDP=4.08D-06 MaxDP=2.15D-04 DE=-1.53D-06 OVMax= 3.07D-04

 Cycle   4  Pass 1  IDiag  1:
 RMSU=  2.20D-06    CP:  1.00D+00  1.15D+00  7.47D-01
 FoFJK:  IHMeth= 1 ICntrl=     0 DoSepK=T KAlg= 1 I1Cent= 0 FoldK=F
 E= -2905.43070063800     Delta-E=       -0.000001168447 Rises=F Damp=F
 DIIS: error= 2.05D-05 at cycle   4 NSaved=   4.
 NSaved= 4 IEnMin= 4 EnMin= -2905.43070063800     IErMin= 4 ErrMin= 2.05D-05
 ErrMax= 2.05D-05 EMaxC= 1.00D-01 BMatC= 1.10D-07 BMatP= 1.90D-06
 IDIUse=1 WtCom= 1.00D+00 WtEn= 0.00D+00
 Coeff-Com: -0.205D-02 0.379D-01 0.182D+00 0.782D+00
 Coeff:     -0.205D-02 0.379D-01 0.182D+00 0.782D+00
 Gap=     0.438 Goal=   None    Shift=    0.000
 RMSDP=1.62D-06 MaxDP=5.53D-05 DE=-1.17D-06 OVMax= 8.95D-05

 Cycle   5  Pass 1  IDiag  1:
 RMSU=  8.06D-07    CP:  1.00D+00  1.16D+00  8.44D-01  1.07D+00
 FoFJK:  IHMeth= 1 ICntrl=     0 DoSepK=T KAlg= 1 I1Cent= 0 FoldK=F
 E= -2905.43070071914     Delta-E=       -0.000000081145 Rises=F Damp=F
 DIIS: error= 7.45D-06 at cycle   5 NSaved=   5.
 NSaved= 5 IEnMin= 5 EnMin= -2905.43070071914     IErMin= 5 ErrMin= 7.45D-06
 ErrMax= 7.45D-06 EMaxC= 1.00D-01 BMatC= 2.08D-08 BMatP= 1.10D-07
 IDIUse=1 WtCom= 1.00D+00 WtEn= 0.00D+00
 Coeff-Com:  0.226D-03-0.561D-01 0.219D-02 0.355D+00 0.699D+00
 Coeff:      0.226D-03-0.561D-01 0.219D-02 0.355D+00 0.699D+00
 Gap=     0.438 Goal=   None    Shift=    0.000
 RMSDP=6.86D-07 MaxDP=2.75D-05 DE=-8.11D-08 OVMax= 3.31D-05

 Cycle   6  Pass 1  IDiag  1:
 RMSU=  2.44D-07    CP:  1.00D+00  1.17D+00  8.81D-01  1.19D+00  8.73D-01
 FoFJK:  IHMeth= 1 ICntrl=     0 DoSepK=T KAlg= 1 I1Cent= 0 FoldK=F
 E= -2905.43070073548     Delta-E=       -0.000000016331 Rises=F Damp=F
 DIIS: error= 1.57D-06 at cycle   6 NSaved=   6.
 NSaved= 6 IEnMin= 6 EnMin= -2905.43070073548     IErMin= 6 ErrMin= 1.57D-06
 ErrMax= 1.57D-06 EMaxC= 1.00D-01 BMatC= 6.60D-10 BMatP= 2.08D-08
 IDIUse=1 WtCom= 1.00D+00 WtEn= 0.00D+00
 Coeff-Com:  0.174D-03-0.195D-01-0.877D-02 0.661D-01 0.211D+00 0.751D+00
 Coeff:      0.174D-03-0.195D-01-0.877D-02 0.661D-01 0.211D+00 0.751D+00
 Gap=     0.438 Goal=   None    Shift=    0.000
 RMSDP=1.42D-07 MaxDP=5.45D-06 DE=-1.63D-08 OVMax= 8.50D-06

 Cycle   7  Pass 1  IDiag  1:
 RMSU=  5.90D-08    CP:  1.00D+00  1.17D+00  8.87D-01  1.22D+00  9.29D-01
                    CP:  1.03D+00
 FoFJK:  IHMeth= 1 ICntrl=     0 DoSepK=T KAlg= 1 I1Cent= 0 FoldK=F
 E= -2905.43070073617     Delta-E=       -0.000000000695 Rises=F Damp=F
 DIIS: error= 3.25D-07 at cycle   7 NSaved=   7.
 NSaved= 7 IEnMin= 7 EnMin= -2905.43070073617     IErMin= 7 ErrMin= 3.25D-07
 ErrMax= 3.25D-07 EMaxC= 1.00D-01 BMatC= 3.43D-11 BMatP= 6.60D-10
 IDIUse=1 WtCom= 1.00D+00 WtEn= 0.00D+00
 Coeff-Com: -0.195D-04 0.590D-02 0.102D-03-0.382D-01-0.737D-01 0.202D-01
 Coeff-Com:  0.109D+01
 Coeff:     -0.195D-04 0.590D-02 0.102D-03-0.382D-01-0.737D-01 0.202D-01
 Coeff:      0.109D+01
 Gap=     0.438 Goal=   None    Shift=    0.000
 RMSDP=6.28D-08 MaxDP=2.63D-06 DE=-6.95D-10 OVMax= 4.67D-06

 Cycle   8  Pass 1  IDiag  1:
 RMSU=  2.03D-08    CP:  1.00D+00  1.17D+00  8.89D-01  1.23D+00  9.43D-01
                    CP:  1.14D+00  1.22D+00
 FoFJK:  IHMeth= 1 ICntrl=     0 DoSepK=T KAlg= 1 I1Cent= 0 FoldK=F
 E= -2905.43070073625     Delta-E=       -0.000000000077 Rises=F Damp=F
 DIIS: error= 5.60D-08 at cycle   8 NSaved=   8.
 NSaved= 8 IEnMin= 8 EnMin= -2905.43070073625     IErMin= 8 ErrMin= 5.60D-08
 ErrMax= 5.60D-08 EMaxC= 1.00D-01 BMatC= 1.54D-12 BMatP= 3.43D-11
 IDIUse=1 WtCom= 1.00D+00 WtEn= 0.00D+00
 Coeff-Com: -0.112D-04 0.191D-02 0.331D-03-0.101D-01-0.212D-01-0.215D-01
 Coeff-Com:  0.183D+00 0.867D+00
 Coeff:     -0.112D-04 0.191D-02 0.331D-03-0.101D-01-0.212D-01-0.215D-01
 Coeff:      0.183D+00 0.867D+00
 Gap=     0.438 Goal=   None    Shift=    0.000
 RMSDP=1.02D-08 MaxDP=2.72D-07 DE=-7.73D-11 OVMax= 8.18D-07

 Cycle   9  Pass 1  IDiag  1:
 RMSU=  4.16D-09    CP:  1.00D+00  1.17D+00  8.89D-01  1.23D+00  9.41D-01
                    CP:  1.14D+00  1.27D+00  1.23D+00
 FoFJK:  IHMeth= 1 ICntrl=     0 DoSepK=T KAlg= 1 I1Cent= 0 FoldK=F
 E= -2905.43070073624     Delta-E=        0.000000000012 Rises=F Damp=F
 DIIS: error= 2.03D-08 at cycle   9 NSaved=   9.
 NSaved= 9 IEnMin= 8 EnMin= -2905.43070073625     IErMin= 9 ErrMin= 2.03D-08
 ErrMax= 2.03D-08 EMaxC= 1.00D-01 BMatC= 1.59D-13 BMatP= 1.54D-12
 IDIUse=1 WtCom= 1.00D+00 WtEn= 0.00D+00
 Coeff-Com:  0.191D-05-0.565D-03-0.280D-04 0.354D-02 0.747D-02-0.120D-02
 Coeff-Com: -0.107D+00 0.157D-02 0.110D+01
 Coeff:      0.191D-05-0.565D-03-0.280D-04 0.354D-02 0.747D-02-0.120D-02
 Coeff:     -0.107D+00 0.157D-02 0.110D+01
 Gap=     0.438 Goal=   None    Shift=    0.000
 RMSDP=6.01D-09 MaxDP=2.13D-07 DE= 1.23D-11 OVMax= 5.55D-07

 SCF Done:  E(RwB97XD) =  -2905.43070074     A.U. after    9 cycles
             Convg  =    0.6015D-08             -V/T =  2.0016
 KE= 2.900918459980D+03 PE=-7.217568970750D+03 EE= 1.271462302152D+03
 Leave Link  502 at Thu Apr 16 10:01:46 2020, MaxMem= 1073741824 cpu:     207.7
 (Enter /home/matheus/.gaussian/g09/l108.exe)
 Variable Step   Value    
 -------- ---- -----------
     1       4    6.425069
 Leave Link  108 at Thu Apr 16 10:01:46 2020, MaxMem= 1073741824 cpu:       0.0
 (Enter /home/matheus/.gaussian/g09/l202.exe)
 ---------------------------------------------------------------------------------------------------
                            Z-MATRIX (ANGSTROMS AND DEGREES)
   CD    Cent   Atom    N1       Length/X        N2       Alpha/Y        N3        Beta/Z          J
 ---------------------------------------------------------------------------------------------------
      1      1  O        0   0.000000          0.000000          0.725000
      2      2  O        0   0.000000          0.000000         -0.725000
      3      3  H        0   0.904763          0.159534          1.023510
      4      4  H        0   0.000000          0.918721         -1.023510
      5      5  Kr       0   0.000000          3.400000          0.000000
 ---------------------------------------------------------------------------------------------------
                         Z-Matrix orientation:                         
 ---------------------------------------------------------------------
 Center     Atomic      Atomic             Coordinates (Angstroms)
 Number     Number       Type             X           Y           Z
 ---------------------------------------------------------------------
      1          8           0        0.000000    0.000000    0.725000
      2          8           0        0.000000    0.000000   -0.725000
      3          1           0        0.904763    0.159534    1.023510
      4          1           0        0.000000    0.918721   -1.023510
      5         36           0        0.000000    3.400000    0.000000
 ---------------------------------------------------------------------
                    Distance matrix (angstroms):
                    1          2          3          4          5
     1  O    0.000000
     2  O    1.450000   0.000000
     3  H    0.966000   1.975180   0.000000
[...]
 Coeff-Com: -0.506D-02 0.101D+01
 Coeff:     -0.506D-02 0.101D+01
 Gap=     0.438 Goal=   None    Shift=    0.000
 RMSDP=2.15D-06 MaxDP=7.26D-05 DE=-1.02D-06 OVMax= 8.60D-05

 Cycle   3  Pass 1  IDiag  1:
 RMSU=  8.45D-07    CP:  1.00D+00  1.11D+00
 FoFJK:  IHMeth= 1 ICntrl=     0 DoSepK=T KAlg= 1 I1Cent= 0 FoldK=F
 E= -2905.43057587265     Delta-E=       -0.000000031792 Rises=F Damp=F
 DIIS: error= 5.48D-06 at cycle   3 NSaved=   3.
 NSaved= 3 IEnMin= 3 EnMin= -2905.43057587265     IErMin= 3 ErrMin= 5.48D-06
 ErrMax= 5.48D-06 EMaxC= 1.00D-01 BMatC= 5.10D-09 BMatP= 2.52D-08
 IDIUse=1 WtCom= 1.00D+00 WtEn= 0.00D+00
 Coeff-Com: -0.594D-02 0.272D+00 0.734D+00
 Coeff:     -0.594D-02 0.272D+00 0.734D+00
 Gap=     0.438 Goal=   None    Shift=    0.000
 RMSDP=3.42D-07 MaxDP=9.91D-06 DE=-3.18D-08 OVMax= 2.72D-05

 Cycle   4  Pass 1  IDiag  1:
 RMSU=  1.93D-07    CP:  1.00D+00  1.12D+00  1.05D+00
 FoFJK:  IHMeth= 1 ICntrl=     0 DoSepK=T KAlg= 1 I1Cent= 0 FoldK=F
 E= -2905.43057587699     Delta-E=       -0.000000004336 Rises=F Damp=F
 DIIS: error= 2.10D-06 at cycle   4 NSaved=   4.
 NSaved= 4 IEnMin= 4 EnMin= -2905.43057587699     IErMin= 4 ErrMin= 2.10D-06
 ErrMax= 2.10D-06 EMaxC= 1.00D-01 BMatC= 8.67D-10 BMatP= 5.10D-09
 IDIUse=1 WtCom= 1.00D+00 WtEn= 0.00D+00
 Coeff-Com: -0.185D-02 0.322D-01 0.268D+00 0.702D+00
 Coeff:     -0.185D-02 0.322D-01 0.268D+00 0.702D+00
 Gap=     0.438 Goal=   None    Shift=    0.000
 RMSDP=1.63D-07 MaxDP=5.11D-06 DE=-4.34D-09 OVMax= 9.93D-06

 Cycle   5  Pass 1  IDiag  1:
 RMSU=  8.00D-08    CP:  1.00D+00  1.12D+00  1.13D+00  1.04D+00
 FoFJK:  IHMeth= 1 ICntrl=     0 DoSepK=T KAlg= 1 I1Cent= 0 FoldK=F
 E= -2905.43057587760     Delta-E=       -0.000000000609 Rises=F Damp=F
 DIIS: error= 1.16D-06 at cycle   5 NSaved=   5.
 NSaved= 5 IEnMin= 5 EnMin= -2905.43057587760     IErMin= 5 ErrMin= 1.16D-06
 ErrMax= 1.16D-06 EMaxC= 1.00D-01 BMatC= 2.41D-10 BMatP= 8.67D-10
 IDIUse=1 WtCom= 1.00D+00 WtEn= 0.00D+00
 Coeff-Com:  0.446D-03-0.497D-01-0.397D-01 0.363D+00 0.726D+00
 Coeff:      0.446D-03-0.497D-01-0.397D-01 0.363D+00 0.726D+00
 Gap=     0.438 Goal=   None    Shift=    0.000
 RMSDP=8.24D-08 MaxDP=2.33D-06 DE=-6.09D-10 OVMax= 5.22D-06

 Cycle   6  Pass 1  IDiag  1:
 RMSU=  2.79D-08    CP:  1.00D+00  1.13D+00  1.17D+00  1.19D+00  9.69D-01
 FoFJK:  IHMeth= 1 ICntrl=     0 DoSepK=T KAlg= 1 I1Cent= 0 FoldK=F
 E= -2905.43057587783     Delta-E=       -0.000000000231 Rises=F Damp=F
 DIIS: error= 1.15D-07 at cycle   6 NSaved=   6.
 NSaved= 6 IEnMin= 6 EnMin= -2905.43057587783     IErMin= 6 ErrMin= 1.15D-07
 ErrMax= 1.15D-07 EMaxC= 1.00D-01 BMatC= 5.02D-12 BMatP= 2.41D-10
 IDIUse=1 WtCom= 1.00D+00 WtEn= 0.00D+00
 Coeff-Com:  0.172D-03-0.111D-01-0.201D-01 0.436D-01 0.152D+00 0.835D+00
 Coeff:      0.172D-03-0.111D-01-0.201D-01 0.436D-01 0.152D+00 0.835D+00
 Gap=     0.438 Goal=   None    Shift=    0.000
 RMSDP=1.67D-08 MaxDP=5.07D-07 DE=-2.31D-10 OVMax= 1.14D-06

 Cycle   7  Pass 1  IDiag  1:
 RMSU=  7.89D-09    CP:  1.00D+00  1.13D+00  1.18D+00  1.21D+00  1.03D+00
                    CP:  1.18D+00
 FoFJK:  IHMeth= 1 ICntrl=     0 DoSepK=T KAlg= 1 I1Cent= 0 FoldK=F
 E= -2905.43057587784     Delta-E=       -0.000000000015 Rises=F Damp=F
 DIIS: error= 6.72D-08 at cycle   7 NSaved=   7.
 NSaved= 7 IEnMin= 7 EnMin= -2905.43057587784     IErMin= 7 ErrMin= 6.72D-08
 ErrMax= 6.72D-08 EMaxC= 1.00D-01 BMatC= 1.20D-12 BMatP= 5.02D-12
 IDIUse=1 WtCom= 1.00D+00 WtEn= 0.00D+00
 Coeff-Com: -0.262D-04 0.610D-02 0.740D-04-0.585D-01-0.906D-01 0.301D+00
 Coeff-Com:  0.842D+00
 Coeff:     -0.262D-04 0.610D-02 0.740D-04-0.585D-01-0.906D-01 0.301D+00
 Coeff:      0.842D+00
 Gap=     0.438 Goal=   None    Shift=    0.000
 RMSDP=8.88D-09 MaxDP=2.47D-07 DE=-1.46D-11 OVMax= 6.00D-07

 SCF Done:  E(RwB97XD) =  -2905.43057588     A.U. after    7 cycles
             Convg  =    0.8882D-08             -V/T =  2.0016
 KE= 2.900929497008D+03 PE=-7.151667694990D+03 EE= 1.238644770970D+03
 Leave Link  502 at Thu Apr 16 10:07:38 2020, MaxMem= 1073741824 cpu:     130.4
 (Enter /home/matheus/.gaussian/g09/l108.exe)
 Variable Step   Value    
 -------- ---- -----------
     1      20    9.448631
 Leave Link  108 at Thu Apr 16 10:07:38 2020, MaxMem= 1073741824 cpu:       0.0
 (Enter /home/matheus/.gaussian/g09/l202.exe)
 ---------------------------------------------------------------------------------------------------
                            Z-MATRIX (ANGSTROMS AND DEGREES)
   CD    Cent   Atom    N1       Length/X        N2       Alpha/Y        N3        Beta/Z          J
 ---------------------------------------------------------------------------------------------------
      1      1  O        0   0.000000          0.000000          0.725000
      2      2  O        0   0.000000          0.000000         -0.725000
      3      3  H        0   0.904763          0.159534          1.023510
      4      4  H        0   0.000000          0.918721         -1.023510
      5      5  Kr       0   0.000000          5.000000          0.000000
 ---------------------------------------------------------------------------------------------------
                         Z-Matrix orientation:                         
 ---------------------------------------------------------------------
 Center     Atomic      Atomic             Coordinates (Angstroms)
 Number     Number       Type             X           Y           Z
 ---------------------------------------------------------------------
      1          8           0        0.000000    0.000000    0.725000
      2          8           0        0.000000    0.000000   -0.725000
      3          1           0        0.904763    0.159534    1.023510
      4          1           0        0.000000    0.918721   -1.023510
      5         36           0        0.000000    5.000000    0.000000
 ---------------------------------------------------------------------
                    Distance matrix (angstroms):
                    1          2          3          4          5
     1  O    0.000000
     2  O    1.450000   0.000000
     3  H    0.966000   1.975180   0.000000
     4  H    1.975180   0.966000   2.363314   0.000000
     5  Kr   5.052289   5.052289   5.029541   4.207661   0.000000
 Stoichiometry    H2KrO2
 Framework group  C1[X(H2KrO2)]
 Deg. of freedom     9
 Full point group                 C1      NOp   1
 RotChk:  IX=0 Diff= 3.29D-04
 Largest Abelian subgroup         C1      NOp   1
 Largest concise Abelian subgroup C1      NOp   1
                         Standard orientation:                         
 ---------------------------------------------------------------------
 Center     Atomic      Atomic             Coordinates (Angstroms)
 Number     Number       Type             X           Y           Z
 ---------------------------------------------------------------------
      1          8           0        3.354972   -0.707931   -0.116326
      2          8           0        3.350947    0.735757    0.018764
      3          1           0        3.205209   -1.089993    0.758176
      4          1           0        2.431446    1.029584    0.055369
      5         36           0       -1.646778   -0.004506   -0.000918
 ---------------------------------------------------------------------
 Rotational constants (GHZ):     25.6187626      0.8438806      0.8189668
 Leave Link  202 at Thu Apr 16 10:07:38 2020, MaxMem= 1073741824 cpu:       0.0
 (Enter /home/matheus/.gaussian/g09/l301.exe)
 Standard basis: Aug-CC-pVTZ (5D, 7F)
 Ernie: Thresh=  0.10000D-02 Tol=  0.10000D-05 Strict=F.
 Ernie:  38 primitive shells out of 205 were deleted.
 There are   197 symmetry adapted basis functions of A   symmetry.
 Integral buffers will be    131072 words long.
 Raffenetti 2 integral format.
 Two-electron integral symmetry is turned on.
   197 basis functions,   415 primitive gaussians,   229 cartesian basis functions
    27 alpha electrons       27 beta electrons
       nuclear repulsion energy       105.2776892707 Hartrees.
 IExCor= 4639 DFT=T Ex+Corr=wB97XD ExCW=0 ScaHFX=  1.000000
 ScaDFX=  1.000000  1.000000  1.000000  1.000000 ScalE2=  1.000000  1.000000
 IRadAn=      5 IRanWt=     -1 IRanGd=            0 ICorTp=0
  HFx wShort=  0.000000 wLong=  0.250000 cFull=  0.222036 cShort=  0.000000 cLong=  0.777964
  DFx wShort=  0.000000 wLong=  0.250000 cFull=  0.000000 cShort=  0.000000 cLong=  1.000000
 NAtoms=    5 NActive=    5 NUniq=    5 SFac= 1.00D+00 NAtFMM=   60 NAOKFM=F Big=F
 R6Disp: Dispersion energy =        -0.0005041309 Hartrees.
 Nuclear repulsion after empirical dispersion term =      105.2771851398 Hartrees.
 Leave Link  301 at Thu Apr 16 10:07:38 2020, MaxMem= 1073741824 cpu:       0.2
 (Enter /home/matheus/.gaussian/g09/l302.exe)
 NPDir=0 NMtPBC=     1 NCelOv=     1 NCel=       1 NClECP=     1 NCelD=      1
         NCelK=      1 NCelE2=     1 NClLst=     1 CellRange=     0.0.
 One-electron integrals computed using PRISM.
 NBasis=   197 RedAO= T  NBF=   197
 NBsUse=   197 1.00D-06 NBFU=   197
 Precomputing XC quadrature grid using
 IXCGrd= 2 IRadAn=           5 IRanWt=          -1 IRanGd=           0 AccXCQ= 0.00D+00.
 NRdTot=     427 NPtTot=      123814 NUsed=      126881 NTot=      126913
 NSgBfM=   228   228   229   229   229 NAtAll=     5     5.
 Leave Link  302 at Thu Apr 16 10:07:38 2020, MaxMem= 1073741824 cpu:       1.0
 (Enter /home/matheus/.gaussian/g09/l303.exe)
 DipDrv:  MaxL=1.
 Leave Link  303 at Thu Apr 16 10:07:38 2020, MaxMem= 1073741824 cpu:       0.2
 (Enter /home/matheus/.gaussian/g09/l401.exe)
 Initial guess read from the read-write file.
 B after Tr=     0.000000    0.000000    0.000000
         Rot=    1.000000    0.000000    0.000000    0.000000 Ang=   0.00 deg.
 Guess basis will be translated and rotated to current coordinates.
 Initial guess orbital symmetries:
       Occupied  (A) (A) (A) (A) (A) (A) (A) (A) (A) (A) (A) (A)
                 (A) (A) (A) (A) (A) (A) (A) (A) (A) (A) (A) (A)
                 (A) (A) (A)
       Virtual   (A) (A) (A) (A) (A) (A) (A) (A) (A) (A) (A) (A)
                 (A) (A) (A) (A) (A) (A) (A) (A) (A) (A) (A) (A)
                 (A) (A) (A) (A) (A) (A) (A) (A) (A) (A) (A) (A)
                 (A) (A) (A) (A) (A) (A) (A) (A) (A) (A) (A) (A)
                 (A) (A) (A) (A) (A) (A) (A) (A) (A) (A) (A) (A)
                 (A) (A) (A) (A) (A) (A) (A) (A) (A) (A) (A) (A)
                 (A) (A) (A) (A) (A) (A) (A) (A) (A) (A) (A) (A)
                 (A) (A) (A) (A) (A) (A) (A) (A) (A) (A) (A) (A)
                 (A) (A) (A) (A) (A) (A) (A) (A) (A) (A) (A) (A)
                 (A) (A) (A) (A) (A) (A) (A) (A) (A) (A) (A) (A)
                 (A) (A) (A) (A) (A) (A) (A) (A) (A) (A) (A) (A)
                 (A) (A) (A) (A) (A) (A) (A) (A) (A) (A) (A) (A)
                 (A) (A) (A) (A) (A) (A) (A) (A) (A) (A) (A) (A)
                 (A) (A) (A) (A) (A) (A) (A) (A) (A) (A) (A) (A)
                 (A) (A)
 The electronic state of the initial guess is 1-A.
 Generating alternative initial guess.
 Harris functional with IExCor= 4639 diagonalized for initial guess.
 ExpMin= 2.53D-02 ExpMax= 1.17D+07 ExpMxC= 1.33D+04 IAcc=3 IRadAn=         5 AccDes= 0.00D+00
 HarFok:  IExCor= 4639 AccDes= 0.00D+00 IRadAn=         5 IDoV= 1
 ScaDFX=  1.000000  1.000000  1.000000  1.000000
 FoFCou: FMM=F IPFlag=           0 FMFlag=      100000 FMFlg1=           0
         NFxFlg=           0 DoJE=T BraDBF=F KetDBF=T FulRan=T
         Omega=  0.000000  0.000000  1.000000  0.000000  0.000000 ICntrl=     500 IOpCl=  0
         NMat0=    1 NMatS0=    1 NMatT0=    0 NMatD0=    1 NMtDS0=    0 NMtDT0=    0
         I1Cent=           4 NGrid=           0.
 Petite list used in FoFCou.
 Harris En= -2875.40599584551    
 Leave Link  401 at Thu Apr 16 10:07:39 2020, MaxMem= 1073741824 cpu:       4.1
 (Enter /home/matheus/.gaussian/g09/l502.exe)
 Closed shell SCF:
 Requested convergence on RMS density matrix=1.00D-08 within 128 cycles.
 Requested convergence on MAX density matrix=1.00D-06.
 Requested convergence on             energy=1.00D-06.
 No special actions if energy rises.
 Using DIIS extrapolation, IDIIS=  1040.
 Integral symmetry usage will be decided dynamically.
       126823 words used for storage of precomputed grid.
 IEnd=      305770 IEndB=      305770 NGot=  1073741824 MDV=  1073505365
 LenX=  1073505365 LenY=  1073452483
 Fock matrices will be formed incrementally for  20 cycles.

 Cycle   1  Pass 1  IDiag  1:
 FoFJK:  IHMeth= 1 ICntrl=     0 DoSepK=T KAlg= 1 I1Cent= 0 FoldK=F
 FoFCou: FMM=F IPFlag=           0 FMFlag=      100000 FMFlg1=           0
         NFxFlg=           0 DoJE=T BraDBF=F KetDBF=F FulRan=T
         Omega=  0.000000  0.000000  1.000000  0.000000  0.000000 ICntrl=     500 IOpCl=  0
         NMat0=    1 NMatS0=    1 NMatT0=    0 NMatD0=    1 NMtDS0=    0 NMtDT0=    0
         I1Cent=           0 NGrid=           0.
 Symmetry not used in FoFCou.
 E= -2905.43052428129    
 DIIS: error= 1.00D-04 at cycle   1 NSaved=   1.
 NSaved= 1 IEnMin= 1 EnMin= -2905.43052428129     IErMin= 1 ErrMin= 1.00D-04
 ErrMax= 1.00D-04 EMaxC= 1.00D-01 BMatC= 3.53D-06 BMatP= 3.53D-06
 IDIUse=1 WtCom= 1.00D+00 WtEn= 0.00D+00
 Coeff-Com:  0.100D+01
 Coeff:      0.100D+01
 Gap=     0.438 Goal=   None    Shift=    0.000
 RMSDP=1.58D-05 MaxDP=5.77D-04              OVMax= 4.08D-04

 Cycle   2  Pass 1  IDiag  1:
 RMSU=  1.12D-05    CP:  1.00D+00
 FoFJK:  IHMeth= 1 ICntrl=     0 DoSepK=T KAlg= 1 I1Cent= 0 FoldK=F
 E= -2905.43052513557     Delta-E=       -0.000000854287 Rises=F Damp=F
 DIIS: error= 1.37D-05 at cycle   2 NSaved=   2.
 NSaved= 2 IEnMin= 2 EnMin= -2905.43052513557     IErMin= 2 ErrMin= 1.37D-05
 ErrMax= 1.37D-05 EMaxC= 1.00D-01 BMatC= 2.09D-08 BMatP= 3.53D-06
 IDIUse=1 WtCom= 1.00D+00 WtEn= 0.00D+00
 Coeff-Com: -0.463D-02 0.100D+01
 Coeff:     -0.463D-02 0.100D+01
 Gap=     0.438 Goal=   None    Shift=    0.000
 RMSDP=1.94D-06 MaxDP=6.61D-05 DE=-8.54D-07 OVMax= 7.89D-05

 Cycle   3  Pass 1  IDiag  1:
 RMSU=  7.79D-07    CP:  1.00D+00  1.10D+00
 FoFJK:  IHMeth= 1 ICntrl=     0 DoSepK=T KAlg= 1 I1Cent= 0 FoldK=F
 E= -2905.43052516171     Delta-E=       -0.000000026132 Rises=F Damp=F
 DIIS: error= 5.02D-06 at cycle   3 NSaved=   3.
 NSaved= 3 IEnMin= 3 EnMin= -2905.43052516171     IErMin= 3 ErrMin= 5.02D-06
 ErrMax= 5.02D-06 EMaxC= 1.00D-01 BMatC= 4.18D-09 BMatP= 2.09D-08
 IDIUse=1 WtCom= 1.00D+00 WtEn= 0.00D+00
 Coeff-Com: -0.558D-02 0.271D+00 0.734D+00
 Coeff:     -0.558D-02 0.271D+00 0.734D+00
 Gap=     0.438 Goal=   None    Shift=    0.000
 RMSDP=3.03D-07 MaxDP=8.96D-06 DE=-2.61D-08 OVMax= 2.47D-05

 Cycle   4  Pass 1  IDiag  1:
 RMSU=  1.74D-07    CP:  1.00D+00  1.11D+00  1.05D+00
 FoFJK:  IHMeth= 1 ICntrl=     0 DoSepK=T KAlg= 1 I1Cent= 0 FoldK=F
 E= -2905.43052516531     Delta-E=       -0.000000003602 Rises=F Damp=F
 DIIS: error= 1.82D-06 at cycle   4 NSaved=   4.
 NSaved= 4 IEnMin= 4 EnMin= -2905.43052516531     IErMin= 4 ErrMin= 1.82D-06
 ErrMax= 1.82D-06 EMaxC= 1.00D-01 BMatC= 6.63D-10 BMatP= 4.18D-09
 IDIUse=1 WtCom= 1.00D+00 WtEn= 0.00D+00
 Coeff-Com: -0.169D-02 0.302D-01 0.258D+00 0.714D+00
 Coeff:     -0.169D-02 0.302D-01 0.258D+00 0.714D+00
 Gap=     0.438 Goal=   None    Shift=    0.000
 RMSDP=1.49D-07 MaxDP=4.76D-06 DE=-3.60D-09 OVMax= 8.88D-06

 Cycle   5  Pass 1  IDiag  1:
 RMSU=  7.25D-08    CP:  1.00D+00  1.11D+00  1.13D+00  1.06D+00
 FoFJK:  IHMeth= 1 ICntrl=     0 DoSepK=T KAlg= 1 I1Cent= 0 FoldK=F
 E= -2905.43052516578     Delta-E=       -0.000000000477 Rises=F Damp=F
 DIIS: error= 1.06D-06 at cycle   5 NSaved=   5.
 NSaved= 5 IEnMin= 5 EnMin= -2905.43052516578     IErMin= 5 ErrMin= 1.06D-06
 ErrMax= 1.06D-06 EMaxC= 1.00D-01 BMatC= 2.00D-10 BMatP= 6.63D-10
 IDIUse=1 WtCom= 1.00D+00 WtEn= 0.00D+00
 Coeff-Com:  0.422D-03-0.495D-01-0.405D-01 0.375D+00 0.714D+00
 Coeff:      0.422D-03-0.495D-01-0.405D-01 0.375D+00 0.714D+00
 Gap=     0.438 Goal=   None    Shift=    0.000
 RMSDP=7.28D-08 MaxDP=2.07D-06 DE=-4.77D-10 OVMax= 4.61D-06

 Cycle   6  Pass 1  IDiag  1:
 RMSU=  2.59D-08    CP:  1.00D+00  1.12D+00  1.17D+00  1.21D+00  9.68D-01
 FoFJK:  IHMeth= 1 ICntrl=     0 DoSepK=T KAlg= 1 I1Cent= 0 FoldK=F
 E= -2905.43052516594     Delta-E=       -0.000000000160 Rises=F Damp=F
 DIIS: error= 1.06D-07 at cycle   6 NSaved=   6.
 NSaved= 6 IEnMin= 6 EnMin= -2905.43052516594     IErMin= 6 ErrMin= 1.06D-07
 ErrMax= 1.06D-07 EMaxC= 1.00D-01 BMatC= 4.43D-12 BMatP= 2.00D-10
 IDIUse=1 WtCom= 1.00D+00 WtEn= 0.00D+00
 Coeff-Com:  0.170D-03-0.118D-01-0.209D-01 0.496D-01 0.161D+00 0.822D+00
 Coeff:      0.170D-03-0.118D-01-0.209D-01 0.496D-01 0.161D+00 0.822D+00
 Gap=     0.438 Goal=   None    Shift=    0.000
 RMSDP=1.52D-08 MaxDP=4.75D-07 DE=-1.60D-10 OVMax= 1.01D-06

 Cycle   7  Pass 1  IDiag  1:
 RMSU=  7.33D-09    CP:  1.00D+00  1.12D+00  1.17D+00  1.23D+00  1.03D+00
                    CP:  1.18D+00
 FoFJK:  IHMeth= 1 ICntrl=     0 DoSepK=T KAlg= 1 I1Cent= 0 FoldK=F
 E= -2905.43052516593     Delta-E=        0.000000000013 Rises=F Damp=F
 DIIS: error= 6.23D-08 at cycle   7 NSaved=   7.
 NSaved= 7 IEnMin= 6 EnMin= -2905.43052516594     IErMin= 7 ErrMin= 6.23D-08
 ErrMax= 6.23D-08 EMaxC= 1.00D-01 BMatC= 9.91D-13 BMatP= 4.43D-12
 IDIUse=1 WtCom= 1.00D+00 WtEn= 0.00D+00
 Coeff-Com: -0.246D-04 0.603D-02 0.199D-03-0.601D-01-0.884D-01 0.288D+00
 Coeff-Com:  0.855D+00
 Coeff:     -0.246D-04 0.603D-02 0.199D-03-0.601D-01-0.884D-01 0.288D+00
 Coeff:      0.855D+00
 Gap=     0.438 Goal=   None    Shift=    0.000
 RMSDP=8.23D-09 MaxDP=2.39D-07 DE= 1.32D-11 OVMax= 5.86D-07

 SCF Done:  E(RwB97XD) =  -2905.43052517     A.U. after    7 cycles
             Convg  =    0.8235D-08             -V/T =  2.0016
 KE= 2.900929982027D+03 PE=-7.148907536946D+03 EE= 1.237269844613D+03
 Leave Link  502 at Thu Apr 16 10:07:56 2020, MaxMem= 1073741824 cpu:     132.0
 (Enter /home/matheus/.gaussian/g09/l108.exe)
 Scan completed.

 Summary of the potential surface scan:
   N      R1          SCF    
 ----  ---------  -----------
    1     3.0000  -2905.42684
    2     3.1000  -2905.42871
    3     3.2000  -2905.42992
    4     3.3000  -2905.43070
    5     3.4000  -2905.43116
    6     3.5000  -2905.43141
    7     3.6000  -2905.43151
    8     3.7000  -2905.43153
    9     3.8000  -2905.43148
   10     3.9000  -2905.43141
   11     4.0000  -2905.43132
   12     4.1000  -2905.43122
   13     4.2000  -2905.43112
   14     4.3000  -2905.43102
   15     4.4000  -2905.43093
   16     4.5000  -2905.43085
   17     4.6000  -2905.43077
   18     4.7000  -2905.43070
   19     4.8000  -2905.43063
   20     4.9000  -2905.43058
   21     5.0000  -2905.43053
 ----  ---------  -----------
  
 Leave Link  108 at Thu Apr 16 10:07:56 2020, MaxMem= 1073741824 cpu:       0.0
 (Enter /home/matheus/.gaussian/g09/l9999.exe)

 Test job not archived.
 1\1\GINC-REDGIANT\Scan\RwB97XD\Aug-CC-pVTZ\H2Kr1O2\ROOT\16-Apr-2020\1\
 \#p wb97xd/aug-cc-PVTz iop(3/107=0250000000) iop(3/108=0250000000) int
 =ultrafine Scan\\TCC\\0,1\O,0,0.,0.,0.725\O,0,0.,0.,-0.725\H,0,0.90476
 31646,0.1595341571,1.0235104166\H,0,0.,0.9187205947,-1.0235104166\Kr,0
 ,0.,R1,0.\\R1=3.,s,20,0.1\\Version=EM64L-G09RevC.01\State=1-A\HF=-2905
 .4268426,-2905.4287052,-2905.4299245,-2905.4307007,-2905.4311573,-2905
 .4314051,-2905.4315083,-2905.4315256,-2905.4314839,-2905.4314089,-2905
 .4313176,-2905.4312192,-2905.4311199,-2905.4310215,-2905.4309309,-2905
 .4308468,-2905.4307674,-2905.4306965,-2905.4306336,-2905.4305759,-2905
 .4305252\RMSD=6.946e-09,6.074e-09,5.971e-09,6.015e-09,6.017e-09,5.363e
 -09,4.634e-09,3.597e-09,9.838e-09,8.857e-09,7.840e-09,6.644e-09,5.665e
 -09,4.795e-09,3.958e-09,3.462e-09,3.194e-09,2.791e-09,9.255e-09,8.882e
 -09,8.235e-09\PG=C01 [X(H2Kr1O2)]\\@


 SCIENCE AT ITS BEST PROVIDES US WITH BETTER QUESTIONS, 
 NOT ABSOLUTE ANSWERS

                                    -- NORMAN COUSINS, 1976
 Job cpu time:  0 days  1 hours  4 minutes 58.1 seconds.
 File lengths (MBytes):  RWF=     27 Int=      0 D2E=      0 Chk=      4 Scr=      1
 Normal termination of Gaussian 09 at Thu Apr 16 10:07:56 2020.
