 Entering Gaussian System, Link 0=g09
 Input=/home/matheus/.tcc/Inputs-wb97xd/H2O2-Kr_3.com
 Output=/home/matheus/.tcc/Logs-wb97xd/H2O2-Kr_3.log
 Initial command:
 /home/matheus/.gaussian/g09/l1.exe /home/matheus/.gaussian/g09/scratch/Gau-20645.inp -scrdir=/home/matheus/.gaussian/g09/scratch/
 Entering Link 1 = /home/matheus/.gaussian/g09/l1.exe PID=     20648.
  
 Copyright (c) 1988,1990,1992,1993,1995,1998,2003,2009,2011,
            Gaussian, Inc.  All Rights Reserved.
  
 This is part of the Gaussian(R) 09 program.  It is based on
 the Gaussian(R) 03 system (copyright 2003, Gaussian, Inc.),
 the Gaussian(R) 98 system (copyright 1998, Gaussian, Inc.),
 the Gaussian(R) 94 system (copyright 1995, Gaussian, Inc.),
 the Gaussian 92(TM) system (copyright 1992, Gaussian, Inc.),
 the Gaussian 90(TM) system (copyright 1990, Gaussian, Inc.),
 the Gaussian 88(TM) system (copyright 1988, Gaussian, Inc.),
 the Gaussian 86(TM) system (copyright 1986, Carnegie Mellon
 University), and the Gaussian 82(TM) system (copyright 1983,
 Carnegie Mellon University). Gaussian is a federally registered
 trademark of Gaussian, Inc.
  
 This software contains proprietary and confidential information,
 including trade secrets, belonging to Gaussian, Inc.
  
 This software is provided under written license and may be
 used, copied, transmitted, or stored only in accord with that
 written license.
  
 The following legend is applicable only to US Government
 contracts under FAR:
  
                    RESTRICTED RIGHTS LEGEND
  
 Use, reproduction and disclosure by the US Government is
 subject to restrictions as set forth in subparagraphs (a)
 and (c) of the Commercial Computer Software - Restricted
 Rights clause in FAR 52.227-19.
  
 Gaussian, Inc.
 340 Quinnipiac St., Bldg. 40, Wallingford CT 06492
  
  
 ---------------------------------------------------------------
 Warning -- This program may not be used in any manner that
 competes with the business of Gaussian, Inc. or will provide
 assistance to any competitor of Gaussian, Inc.  The licensee
 of this program is prohibited from giving any competitor of
 Gaussian, Inc. access to this program.  By using this program,
 the user acknowledges that Gaussian, Inc. is engaged in the
 business of creating and licensing software in the field of
 computational chemistry and represents and warrants to the
 licensee that it is not a competitor of Gaussian, Inc. and that
 it will not use this program in any manner prohibited above.
 ---------------------------------------------------------------
  

 Cite this work as:
 Gaussian 09, Revision C.01,
 M. J. Frisch, G. W. Trucks, H. B. Schlegel, G. E. Scuseria, 
 M. A. Robb, J. R. Cheeseman, G. Scalmani, V. Barone, B. Mennucci, 
 G. A. Petersson, H. Nakatsuji, M. Caricato, X. Li, H. P. Hratchian, 
 A. F. Izmaylov, J. Bloino, G. Zheng, J. L. Sonnenberg, M. Hada, 
 M. Ehara, K. Toyota, R. Fukuda, J. Hasegawa, M. Ishida, T. Nakajima, 
 Y. Honda, O. Kitao, H. Nakai, T. Vreven, J. A. Montgomery, Jr., 
 J. E. Peralta, F. Ogliaro, M. Bearpark, J. J. Heyd, E. Brothers, 
 K. N. Kudin, V. N. Staroverov, T. Keith, R. Kobayashi, J. Normand, 
 K. Raghavachari, A. Rendell, J. C. Burant, S. S. Iyengar, J. Tomasi, 
 M. Cossi, N. Rega, J. M. Millam, M. Klene, J. E. Knox, J. B. Cross, 
 V. Bakken, C. Adamo, J. Jaramillo, R. Gomperts, R. E. Stratmann, 
 O. Yazyev, A. J. Austin, R. Cammi, C. Pomelli, J. W. Ochterski, 
 R. L. Martin, K. Morokuma, V. G. Zakrzewski, G. A. Voth, 
 P. Salvador, J. J. Dannenberg, S. Dapprich, A. D. Daniels, 
 O. Farkas, J. B. Foresman, J. V. Ortiz, J. Cioslowski, 
 and D. J. Fox, Gaussian, Inc., Wallingford CT, 2010.
 
 ******************************************
 Gaussian 09:  EM64L-G09RevC.01 23-Sep-2011
                16-Apr-2020 
 ******************************************
 %mem=8GB
 %nproc=8
 Will use up to    8 processors via shared memory.
 ----------------------------------------------------------------------
 #p wb97xd/aug-cc-PVTz iop(3/107=0250000000) iop(3/108=0250000000) int=
 ultrafine Scan
 ----------------------------------------------------------------------
 1/38=1,60=1/1,8;
 2/12=2,17=6,18=5,29=3,40=1/2;
 3/5=16,6=1,7=10,11=2,16=1,25=1,30=1,74=-58,75=-5,107=250000000,108=250000000/1,2,3;
 4//1;
 5/5=2,38=5/2;
 6/7=2,8=2,9=2,10=2,18=1,28=1/1;
 1/60=1/8(1);
 99/9=1/99;
 2/29=3/2;
 3/5=16,6=1,7=10,11=2,16=1,25=1,30=1,74=-58,75=-5,107=250000000,108=250000000/1,2,3;
 4/5=5,16=3/1;
 5/5=2,38=5/2;
 1/60=1/8(-4);
 99/9=1/99;
 Leave Link    1 at Thu Apr 16 09:19:08 2020, MaxMem= 1073741824 cpu:       0.1
 (Enter /home/matheus/.gaussian/g09/l101.exe)
 ---
 TCC
 ---
 Charge =  0 Multiplicity = 1
 Symbolic Z-Matrix:
 O                     0.        0.        0.725 
 O                     0.        0.       -0.725 
 H                     0.45936   0.79564   1.02351 
 H                     0.        0.91872  -1.02351 
 Kr                    0.       R1        0. 
       Variables:
  R1                    3.     Scan 20    0.1    
 
 NAtoms=      5 NQM=        0 NQMF=       0 NMMI=      5 NMMIF=      0
                NMic=       0 NMicF=      0.
                    Isotopes and Nuclear Properties:
 (Nuclear quadrupole moments (NQMom) in fm**2, nuclear magnetic moments (NMagM)
  in nuclear magnetons)

  Atom         1           2           3           4           5
 IAtWgt=          16          16           1           1          84
 AtmWgt=  15.9949146  15.9949146   1.0078250   1.0078250  83.9115064
 NucSpn=           0           0           1           1           0
 AtZEff=   0.0000000   0.0000000   0.0000000   0.0000000   0.0000000
 NQMom=    0.0000000   0.0000000   0.0000000   0.0000000   0.0000000
 NMagM=    0.0000000   0.0000000   2.7928460   2.7928460   0.0000000
 Leave Link  101 at Thu Apr 16 09:19:08 2020, MaxMem= 1073741824 cpu:       0.4
 (Enter /home/matheus/.gaussian/g09/l108.exe)
 Scan the potential surface.
 Variable   Value     No. Steps Step-Size
 -------- ----------- --------- ---------
     1       3.000000      20      0.1000
 A total of     21 points will be computed.
 Leave Link  108 at Thu Apr 16 09:19:08 2020, MaxMem= 1073741824 cpu:       0.0
 (Enter /home/matheus/.gaussian/g09/l202.exe)
 ---------------------------------------------------------------------------------------------------
                            Z-MATRIX (ANGSTROMS AND DEGREES)
   CD    Cent   Atom    N1       Length/X        N2       Alpha/Y        N3        Beta/Z          J
 ---------------------------------------------------------------------------------------------------
      1      1  O        0   0.000000          0.000000          0.725000
      2      2  O        0   0.000000          0.000000         -0.725000
      3      3  H        0   0.459360          0.795635          1.023510
      4      4  H        0   0.000000          0.918721         -1.023510
      5      5  Kr       0   0.000000          3.000000          0.000000
 ---------------------------------------------------------------------------------------------------
                         Z-Matrix orientation:                         
 ---------------------------------------------------------------------
 Center     Atomic      Atomic             Coordinates (Angstroms)
 Number     Number       Type             X           Y           Z
 ---------------------------------------------------------------------
      1          8           0        0.000000    0.000000    0.725000
      2          8           0        0.000000    0.000000   -0.725000
      3          1           0        0.459360    0.795635    1.023510
      4          1           0        0.000000    0.918721   -1.023510
      5         36           0        0.000000    3.000000    0.000000
 ---------------------------------------------------------------------
                    Distance matrix (angstroms):
                    1          2          3          4          5
     1  O    0.000000
     2  O    1.450000   0.000000
     3  H    0.966000   1.975180   0.000000
     4  H    1.975180   0.966000   2.101537   0.000000
     5  Kr   3.086361   3.086361   2.473420   2.319331   0.000000
 Stoichiometry    H2KrO2
 Framework group  C1[X(H2KrO2)]
 Deg. of freedom     9
 Full point group                 C1      NOp   1
 Largest Abelian subgroup         C1      NOp   1
 Largest concise Abelian subgroup C1      NOp   1
                         Standard orientation:                         
 ---------------------------------------------------------------------
 Center     Atomic      Atomic             Coordinates (Angstroms)
 Number     Number       Type             X           Y           Z
 ---------------------------------------------------------------------
      1          8           0        2.032679   -0.720517   -0.052579
      2          8           0        2.030654    0.727985    0.013298
      3          1           0        1.240025   -1.040895    0.397102
      4          1           0        1.111532    1.024673    0.031898
      5         36           0       -0.968284   -0.001209   -0.003188
 ---------------------------------------------------------------------
 Rotational constants (GHZ):     26.4110984      2.3830252      2.1895357
 Leave Link  202 at Thu Apr 16 09:19:08 2020, MaxMem= 1073741824 cpu:       0.0
 (Enter /home/matheus/.gaussian/g09/l301.exe)
 Standard basis: Aug-CC-pVTZ (5D, 7F)
 Ernie: Thresh=  0.10000D-02 Tol=  0.10000D-05 Strict=F.
 Ernie:  38 primitive shells out of 205 were deleted.
 There are   197 symmetry adapted basis functions of A   symmetry.
 Integral buffers will be    131072 words long.
 Raffenetti 2 integral format.
 Two-electron integral symmetry is turned on.
   197 basis functions,   415 primitive gaussians,   229 cartesian basis functions
    27 alpha electrons       27 beta electrons
       nuclear repulsion energy       151.3348661682 Hartrees.
 IExCor= 4639 DFT=T Ex+Corr=wB97XD ExCW=0 ScaHFX=  1.000000
 ScaDFX=  1.000000  1.000000  1.000000  1.000000 ScalE2=  1.000000  1.000000
 IRadAn=      5 IRanWt=     -1 IRanGd=            0 ICorTp=0
  HFx wShort=  0.000000 wLong=  0.250000 cFull=  0.222036 cShort=  0.000000 cLong=  0.777964
  DFx wShort=  0.000000 wLong=  0.250000 cFull=  0.000000 cShort=  0.000000 cLong=  1.000000
 NAtoms=    5 NActive=    5 NUniq=    5 SFac= 1.00D+00 NAtFMM=   60 NAOKFM=F Big=F
 R6Disp: Dispersion energy =        -0.0007967424 Hartrees.
 Nuclear repulsion after empirical dispersion term =      151.3340694258 Hartrees.
 Leave Link  301 at Thu Apr 16 09:19:08 2020, MaxMem= 1073741824 cpu:       0.2
 (Enter /home/matheus/.gaussian/g09/l302.exe)
 NPDir=0 NMtPBC=     1 NCelOv=     1 NCel=       1 NClECP=     1 NCelD=      1
         NCelK=      1 NCelE2=     1 NClLst=     1 CellRange=     0.0.
 One-electron integrals computed using PRISM.
 NBasis=   197 RedAO= T  NBF=   197
 NBsUse=   197 1.00D-06 NBFU=   197
 Precomputing XC quadrature grid using
 IXCGrd= 2 IRadAn=           5 IRanWt=          -1 IRanGd=           0 AccXCQ= 0.00D+00.
 NRdTot=     427 NPtTot=      123512 NUsed=      126579 NTot=      126611
 NSgBfM=   229   229   229   229   229 NAtAll=     5     5.
 Leave Link  302 at Thu Apr 16 09:19:08 2020, MaxMem= 1073741824 cpu:       1.0
 (Enter /home/matheus/.gaussian/g09/l303.exe)
 DipDrv:  MaxL=1.
 Leave Link  303 at Thu Apr 16 09:19:08 2020, MaxMem= 1073741824 cpu:       0.2
 (Enter /home/matheus/.gaussian/g09/l401.exe)
 Harris functional with IExCor= 4639 diagonalized for initial guess.
 ExpMin= 2.53D-02 ExpMax= 1.17D+07 ExpMxC= 1.33D+04 IAcc=3 IRadAn=         5 AccDes= 0.00D+00
 HarFok:  IExCor= 4639 AccDes= 0.00D+00 IRadAn=         5 IDoV= 1
 ScaDFX=  1.000000  1.000000  1.000000  1.000000
 FoFCou: FMM=F IPFlag=           0 FMFlag=      100000 FMFlg1=           0
         NFxFlg=           0 DoJE=T BraDBF=F KetDBF=T FulRan=T
         Omega=  0.000000  0.000000  1.000000  0.000000  0.000000 ICntrl=     500 IOpCl=  0
         NMat0=    1 NMatS0=    1 NMatT0=    0 NMatD0=    1 NMtDS0=    0 NMtDT0=    0
         I1Cent=           4 NGrid=           0.
 Petite list used in FoFCou.
 Harris En= -2875.38930253048    
 Initial guess orbital symmetries:
       Occupied  (A) (A) (A) (A) (A) (A) (A) (A) (A) (A) (A) (A)
                 (A) (A) (A) (A) (A) (A) (A) (A) (A) (A) (A) (A)
                 (A) (A) (A)
       Virtual   (A) (A) (A) (A) (A) (A) (A) (A) (A) (A) (A) (A)
                 (A) (A) (A) (A) (A) (A) (A) (A) (A) (A) (A) (A)
                 (A) (A) (A) (A) (A) (A) (A) (A) (A) (A) (A) (A)
                 (A) (A) (A) (A) (A) (A) (A) (A) (A) (A) (A) (A)
                 (A) (A) (A) (A) (A) (A) (A) (A) (A) (A) (A) (A)
                 (A) (A) (A) (A) (A) (A) (A) (A) (A) (A) (A) (A)
                 (A) (A) (A) (A) (A) (A) (A) (A) (A) (A) (A) (A)
                 (A) (A) (A) (A) (A) (A) (A) (A) (A) (A) (A) (A)
                 (A) (A) (A) (A) (A) (A) (A) (A) (A) (A) (A) (A)
                 (A) (A) (A) (A) (A) (A) (A) (A) (A) (A) (A) (A)
                 (A) (A) (A) (A) (A) (A) (A) (A) (A) (A) (A) (A)
                 (A) (A) (A) (A) (A) (A) (A) (A) (A) (A) (A) (A)
                 (A) (A) (A) (A) (A) (A) (A) (A) (A) (A) (A) (A)
                 (A) (A) (A) (A) (A) (A) (A) (A) (A) (A) (A) (A)
                 (A) (A)
 The electronic state of the initial guess is 1-A.
 Leave Link  401 at Thu Apr 16 09:19:09 2020, MaxMem= 1073741824 cpu:       4.5
 (Enter /home/matheus/.gaussian/g09/l502.exe)
 Closed shell SCF:
 Requested convergence on RMS density matrix=1.00D-08 within 128 cycles.
 Requested convergence on MAX density matrix=1.00D-06.
 Requested convergence on             energy=1.00D-06.
 No special actions if energy rises.
 Using DIIS extrapolation, IDIIS=  1040.
 Integral symmetry usage will be decided dynamically.
       126521 words used for storage of precomputed grid.
 IEnd=      305468 IEndB=      305468 NGot=  1073741824 MDV=  1073505667
 LenX=  1073505667 LenY=  1073452785
 Fock matrices will be formed incrementally for  20 cycles.

 Cycle   1  Pass 1  IDiag  1:
 FoFJK:  IHMeth= 1 ICntrl=     0 DoSepK=T KAlg= 1 I1Cent= 0 FoldK=F
 FoFCou: FMM=F IPFlag=           0 FMFlag=      100000 FMFlg1=           0
         NFxFlg=           0 DoJE=T BraDBF=F KetDBF=F FulRan=T
         Omega=  0.000000  0.000000  1.000000  0.000000  0.000000 ICntrl=     500 IOpCl=  0
         NMat0=    1 NMatS0=    1 NMatT0=    0 NMatD0=    1 NMtDS0=    0 NMtDT0=    0
         I1Cent=           0 NGrid=           0.
 Symmetry not used in FoFCou.
 E= -2904.89103224403    
 DIIS: error= 8.63D-02 at cycle   1 NSaved=   1.
 NSaved= 1 IEnMin= 1 EnMin= -2904.89103224403     IErMin= 1 ErrMin= 8.63D-02
 ErrMax= 8.63D-02 EMaxC= 1.00D-01 BMatC= 2.23D+00 BMatP= 2.23D+00
 IDIUse=3 WtCom= 1.37D-01 WtEn= 8.63D-01
 Coeff-Com:  0.100D+01
 Coeff-En:   0.100D+01
 Coeff:      0.100D+01
 Gap=     0.524 Goal=   None    Shift=    0.000
 GapD=    0.524 DampG=2.000 DampE=0.500 DampFc=1.0000 IDamp=-1.
 RMSDP=6.30D-03 MaxDP=3.77D-01              OVMax= 1.88D-01

 Cycle   2  Pass 1  IDiag  1:
 RMSU=  4.43D-03    CP:  1.03D+00
 FoFJK:  IHMeth= 1 ICntrl=     0 DoSepK=T KAlg= 1 I1Cent= 0 FoldK=F
 E= -2905.21905720427     Delta-E=       -0.328024960243 Rises=F Damp=F
 DIIS: error= 3.30D-02 at cycle   2 NSaved=   2.
 NSaved= 2 IEnMin= 2 EnMin= -2905.21905720427     IErMin= 2 ErrMin= 3.30D-02
 ErrMax= 3.30D-02 EMaxC= 1.00D-01 BMatC= 5.65D-01 BMatP= 2.23D+00
 IDIUse=3 WtCom= 6.70D-01 WtEn= 3.30D-01
 Coeff-Com:  0.327D+00 0.673D+00
 Coeff-En:   0.188D+00 0.812D+00
 Coeff:      0.281D+00 0.719D+00
 Gap=     0.472 Goal=   None    Shift=    0.000
 RMSDP=2.75D-03 MaxDP=1.63D-01 DE=-3.28D-01 OVMax= 7.35D-02

 Cycle   3  Pass 1  IDiag  1:
 RMSU=  5.79D-04    CP:  1.02D+00  5.82D-01
 FoFJK:  IHMeth= 1 ICntrl=     0 DoSepK=T KAlg= 1 I1Cent= 0 FoldK=F
 E= -2905.41032314478     Delta-E=       -0.191265940510 Rises=F Damp=F
 DIIS: error= 5.73D-03 at cycle   3 NSaved=   3.
 NSaved= 3 IEnMin= 3 EnMin= -2905.41032314478     IErMin= 3 ErrMin= 5.73D-03
 ErrMax= 5.73D-03 EMaxC= 1.00D-01 BMatC= 1.92D-02 BMatP= 5.65D-01
 IDIUse=3 WtCom= 9.43D-01 WtEn= 5.73D-02
 Coeff-Com:  0.307D-01 0.188D+00 0.781D+00
 Coeff-En:   0.000D+00 0.000D+00 0.100D+01
 Coeff:      0.290D-01 0.177D+00 0.794D+00
 Gap=     0.423 Goal=   None    Shift=    0.000
 RMSDP=5.07D-04 MaxDP=1.69D-02 DE=-1.91D-01 OVMax= 2.61D-02

 Cycle   4  Pass 1  IDiag  1:
 RMSU=  2.36D-04    CP:  1.02D+00  6.42D-01  9.28D-01
 FoFJK:  IHMeth= 1 ICntrl=     0 DoSepK=T KAlg= 1 I1Cent= 0 FoldK=F
 E= -2905.41883404465     Delta-E=       -0.008510899869 Rises=F Damp=F
 DIIS: error= 2.06D-03 at cycle   4 NSaved=   4.
 NSaved= 4 IEnMin= 4 EnMin= -2905.41883404465     IErMin= 4 ErrMin= 2.06D-03
 ErrMax= 2.06D-03 EMaxC= 1.00D-01 BMatC= 1.74D-03 BMatP= 1.92D-02
 IDIUse=3 WtCom= 9.79D-01 WtEn= 2.06D-02
 Coeff-Com: -0.287D-02 0.504D-01 0.372D+00 0.580D+00
 Coeff-En:   0.000D+00 0.000D+00 0.000D+00 0.100D+01
 Coeff:     -0.281D-02 0.494D-01 0.365D+00 0.589D+00
 Gap=     0.407 Goal=   None    Shift=    0.000
 RMSDP=1.26D-04 MaxDP=6.09D-03 DE=-8.51D-03 OVMax= 6.93D-03

 Cycle   5  Pass 1  IDiag  1:
 RMSU=  4.13D-05    CP:  1.02D+00  6.39D-01  9.63D-01  6.84D-01
 FoFJK:  IHMeth= 1 ICntrl=     0 DoSepK=T KAlg= 1 I1Cent= 0 FoldK=F
 E= -2905.41990814775     Delta-E=       -0.001074103098 Rises=F Damp=F
 DIIS: error= 1.04D-04 at cycle   5 NSaved=   5.
 NSaved= 5 IEnMin= 5 EnMin= -2905.41990814775     IErMin= 5 ErrMin= 1.04D-04
 ErrMax= 1.04D-04 EMaxC= 1.00D-01 BMatC= 6.23D-06 BMatP= 1.74D-03
 IDIUse=3 WtCom= 9.99D-01 WtEn= 1.04D-03
 Coeff-Com: -0.780D-03-0.314D-02-0.305D-02 0.116D-01 0.995D+00
 Coeff-En:   0.000D+00 0.000D+00 0.000D+00 0.000D+00 0.100D+01
 Coeff:     -0.779D-03-0.314D-02-0.305D-02 0.116D-01 0.995D+00
 Gap=     0.407 Goal=   None    Shift=    0.000
 RMSDP=2.28D-05 MaxDP=7.20D-04 DE=-1.07D-03 OVMax= 1.29D-03

 Cycle   6  Pass 1  IDiag  1:
 RMSU=  8.62D-06    CP:  1.02D+00  6.39D-01  9.77D-01  7.02D-01  1.25D+00
 FoFJK:  IHMeth= 1 ICntrl=     0 DoSepK=T KAlg= 1 I1Cent= 0 FoldK=F
 E= -2905.41991431853     Delta-E=       -0.000006170778 Rises=F Damp=F
 DIIS: error= 1.27D-04 at cycle   6 NSaved=   6.
 NSaved= 6 IEnMin= 6 EnMin= -2905.41991431853     IErMin= 5 ErrMin= 1.04D-04
 ErrMax= 1.27D-04 EMaxC= 1.00D-01 BMatC= 4.32D-06 BMatP= 6.23D-06
 IDIUse=3 WtCom= 9.99D-01 WtEn= 1.04D-03
 Coeff-Com: -0.226D-03-0.527D-02-0.275D-01-0.350D-01 0.509D+00 0.559D+00
 Coeff-En:   0.000D+00 0.000D+00 0.000D+00 0.000D+00 0.000D+00 0.100D+01
 Coeff:     -0.226D-03-0.526D-02-0.275D-01-0.350D-01 0.508D+00 0.560D+00
 Gap=     0.407 Goal=   None    Shift=    0.000
 RMSDP=7.35D-06 MaxDP=2.86D-04 DE=-6.17D-06 OVMax= 4.39D-04

 Cycle   7  Pass 1  IDiag  1:
 RMSU=  3.54D-06    CP:  1.02D+00  6.39D-01  9.80D-01  7.05D-01  1.31D+00
                    CP:  7.74D-01
 FoFJK:  IHMeth= 1 ICntrl=     0 DoSepK=T KAlg= 1 I1Cent= 0 FoldK=F
 E= -2905.41991724365     Delta-E=       -0.000002925123 Rises=F Damp=F
 DIIS: error= 2.91D-05 at cycle   7 NSaved=   7.
 NSaved= 7 IEnMin= 7 EnMin= -2905.41991724365     IErMin= 7 ErrMin= 2.91D-05
 ErrMax= 2.91D-05 EMaxC= 1.00D-01 BMatC= 2.74D-07 BMatP= 4.32D-06
 IDIUse=1 WtCom= 1.00D+00 WtEn= 0.00D+00
 Coeff-Com:  0.214D-04-0.150D-02-0.957D-02-0.140D-01 0.234D-01 0.206D+00
 Coeff-Com:  0.796D+00
 Coeff:      0.214D-04-0.150D-02-0.957D-02-0.140D-01 0.234D-01 0.206D+00
 Coeff:      0.796D+00
 Gap=     0.407 Goal=   None    Shift=    0.000
 RMSDP=2.80D-06 MaxDP=7.88D-05 DE=-2.93D-06 OVMax= 1.89D-04

 Cycle   8  Pass 1  IDiag  1:
 RMSU=  9.01D-07    CP:  1.02D+00  6.39D-01  9.81D-01  7.06D-01  1.34D+00
                    CP:  9.05D-01  1.07D+00
 FoFJK:  IHMeth= 1 ICntrl=     0 DoSepK=T KAlg= 1 I1Cent= 0 FoldK=F
 E= -2905.41991751854     Delta-E=       -0.000000274892 Rises=F Damp=F
 DIIS: error= 5.18D-06 at cycle   8 NSaved=   8.
 NSaved= 8 IEnMin= 8 EnMin= -2905.41991751854     IErMin= 8 ErrMin= 5.18D-06
 ErrMax= 5.18D-06 EMaxC= 1.00D-01 BMatC= 6.74D-09 BMatP= 2.74D-07
 IDIUse=1 WtCom= 1.00D+00 WtEn= 0.00D+00
 Coeff-Com:  0.189D-04 0.222D-03 0.994D-03 0.798D-03-0.349D-01-0.227D-01
 Coeff-Com:  0.545D-01 0.100D+01
 Coeff:      0.189D-04 0.222D-03 0.994D-03 0.798D-03-0.349D-01-0.227D-01
 Coeff:      0.545D-01 0.100D+01
 Gap=     0.407 Goal=   None    Shift=    0.000
 RMSDP=9.52D-07 MaxDP=2.43D-05 DE=-2.75D-07 OVMax= 7.57D-05

 Cycle   9  Pass 1  IDiag  1:
 RMSU=  2.89D-07    CP:  1.02D+00  6.39D-01  9.81D-01  7.06D-01  1.35D+00
                    CP:  9.32D-01  1.17D+00  1.28D+00
 FoFJK:  IHMeth= 1 ICntrl=     0 DoSepK=T KAlg= 1 I1Cent= 0 FoldK=F
 E= -2905.41991753541     Delta-E=       -0.000000016872 Rises=F Damp=F
 DIIS: error= 2.11D-06 at cycle   9 NSaved=   9.
 NSaved= 9 IEnMin= 9 EnMin= -2905.41991753541     IErMin= 9 ErrMin= 2.11D-06
 ErrMax= 2.11D-06 EMaxC= 1.00D-01 BMatC= 5.49D-10 BMatP= 6.74D-09
 IDIUse=1 WtCom= 1.00D+00 WtEn= 0.00D+00
 Coeff-Com: -0.905D-06 0.103D-03 0.646D-03 0.675D-03-0.152D-02-0.113D-01
 Coeff-Com: -0.465D-01-0.256D-01 0.108D+01
 Coeff:     -0.905D-06 0.103D-03 0.646D-03 0.675D-03-0.152D-02-0.113D-01
 Coeff:     -0.465D-01-0.256D-01 0.108D+01
 Gap=     0.407 Goal=   None    Shift=    0.000
 RMSDP=2.83D-07 MaxDP=7.71D-06 DE=-1.69D-08 OVMax= 2.84D-05

 Cycle  10  Pass 1  IDiag  1:
 RMSU=  8.21D-08    CP:  1.02D+00  6.39D-01  9.81D-01  7.06D-01  1.35D+00
                    CP:  9.36D-01  1.18D+00  1.38D+00  1.33D+00
 FoFJK:  IHMeth= 1 ICntrl=     0 DoSepK=T KAlg= 1 I1Cent= 0 FoldK=F
 E= -2905.41991753692     Delta-E=       -0.000000001502 Rises=F Damp=F
 DIIS: error= 5.41D-07 at cycle  10 NSaved=  10.
 NSaved=10 IEnMin=10 EnMin= -2905.41991753692     IErMin=10 ErrMin= 5.41D-07
 ErrMax= 5.41D-07 EMaxC= 1.00D-01 BMatC= 4.64D-11 BMatP= 5.49D-10
 IDIUse=1 WtCom= 1.00D+00 WtEn= 0.00D+00
 Coeff-Com: -0.114D-05-0.853D-05-0.306D-04-0.255D-04 0.288D-02 0.193D-02
 Coeff-Com: -0.536D-02-0.104D+00 0.128D+00 0.977D+00
 Coeff:     -0.114D-05-0.853D-05-0.306D-04-0.255D-04 0.288D-02 0.193D-02
 Coeff:     -0.536D-02-0.104D+00 0.128D+00 0.977D+00
 Gap=     0.407 Goal=   None    Shift=    0.000
 RMSDP=7.49D-08 MaxDP=1.88D-06 DE=-1.50D-09 OVMax= 8.40D-06

 Cycle  11  Pass 1  IDiag  1:
 RMSU=  2.06D-08    CP:  1.02D+00  6.39D-01  9.81D-01  7.06D-01  1.35D+00
                    CP:  9.36D-01  1.18D+00  1.40D+00  1.45D+00  1.23D+00
 FoFJK:  IHMeth= 1 ICntrl=     0 DoSepK=T KAlg= 1 I1Cent= 0 FoldK=F
 E= -2905.41991753704     Delta-E=       -0.000000000127 Rises=F Damp=F
 DIIS: error= 1.43D-07 at cycle  11 NSaved=  11.
 NSaved=11 IEnMin=11 EnMin= -2905.41991753704     IErMin=11 ErrMin= 1.43D-07
 ErrMax= 1.43D-07 EMaxC= 1.00D-01 BMatC= 3.10D-12 BMatP= 4.64D-11
 IDIUse=1 WtCom= 1.00D+00 WtEn= 0.00D+00
 Coeff-Com:  0.391D-06-0.519D-05-0.394D-04-0.198D-04-0.387D-03 0.589D-03
 Coeff-Com:  0.455D-02 0.109D-01-0.827D-01-0.127D+00 0.119D+01
 Coeff:      0.391D-06-0.519D-05-0.394D-04-0.198D-04-0.387D-03 0.589D-03
 Coeff:      0.455D-02 0.109D-01-0.827D-01-0.127D+00 0.119D+01
 Gap=     0.407 Goal=   None    Shift=    0.000
 RMSDP=2.27D-08 MaxDP=4.98D-07 DE=-1.27D-10 OVMax= 2.56D-06

 Cycle  12  Pass 1  IDiag  1:
 RMSU=  5.21D-09    CP:  1.02D+00  6.39D-01  9.81D-01  7.06D-01  1.35D+00
                    CP:  9.36D-01  1.18D+00  1.40D+00  1.48D+00  1.35D+00
                    CP:  1.34D+00
 FoFJK:  IHMeth= 1 ICntrl=     0 DoSepK=T KAlg= 1 I1Cent= 0 FoldK=F
 E= -2905.41991753704     Delta-E=        0.000000000002 Rises=F Damp=F
 DIIS: error= 2.65D-08 at cycle  12 NSaved=  12.
 NSaved=12 IEnMin=11 EnMin= -2905.41991753704     IErMin=12 ErrMin= 2.65D-08
 ErrMax= 2.65D-08 EMaxC= 1.00D-01 BMatC= 1.11D-13 BMatP= 3.10D-12
 IDIUse=1 WtCom= 1.00D+00 WtEn= 0.00D+00
 Coeff-Com: -0.410D-07 0.697D-06 0.533D-05-0.321D-05-0.555D-04-0.120D-03
 Coeff-Com: -0.282D-03 0.239D-02 0.742D-02-0.134D-01-0.217D+00 0.122D+01
 Coeff:     -0.410D-07 0.697D-06 0.533D-05-0.321D-05-0.555D-04-0.120D-03
 Coeff:     -0.282D-03 0.239D-02 0.742D-02-0.134D-01-0.217D+00 0.122D+01
 Gap=     0.407 Goal=   None    Shift=    0.000
 RMSDP=4.82D-09 MaxDP=1.66D-07 DE= 1.82D-12 OVMax= 4.55D-07

 SCF Done:  E(RwB97XD) =  -2905.41991754     A.U. after   12 cycles
             Convg  =    0.4821D-08             -V/T =  2.0015
 KE= 2.900960474694D+03 PE=-7.240095342319D+03 EE= 1.282380880662D+03
 Leave Link  502 at Thu Apr 16 09:19:50 2020, MaxMem= 1073741824 cpu:     325.9
 (Enter /home/matheus/.gaussian/g09/l601.exe)
 Copying SCF densities to generalized density rwf, IOpCl= 0 IROHF=0.

 **********************************************************************

            Population analysis using the SCF density.

 **********************************************************************

 Orbital symmetries:
       Occupied  (A) (A) (A) (A) (A) (A) (A) (A) (A) (A) (A) (A)
                 (A) (A) (A) (A) (A) (A) (A) (A) (A) (A) (A) (A)
                 (A) (A) (A)
       Virtual   (A) (A) (A) (A) (A) (A) (A) (A) (A) (A) (A) (A)
                 (A) (A) (A) (A) (A) (A) (A) (A) (A) (A) (A) (A)
                 (A) (A) (A) (A) (A) (A) (A) (A) (A) (A) (A) (A)
                 (A) (A) (A) (A) (A) (A) (A) (A) (A) (A) (A) (A)
                 (A) (A) (A) (A) (A) (A) (A) (A) (A) (A) (A) (A)
                 (A) (A) (A) (A) (A) (A) (A) (A) (A) (A) (A) (A)
                 (A) (A) (A) (A) (A) (A) (A) (A) (A) (A) (A) (A)
                 (A) (A) (A) (A) (A) (A) (A) (A) (A) (A) (A) (A)
                 (A) (A) (A) (A) (A) (A) (A) (A) (A) (A) (A) (A)
                 (A) (A) (A) (A) (A) (A) (A) (A) (A) (A) (A) (A)
                 (A) (A) (A) (A) (A) (A) (A) (A) (A) (A) (A) (A)
                 (A) (A) (A) (A) (A) (A) (A) (A) (A) (A) (A) (A)
                 (A) (A) (A) (A) (A) (A) (A) (A) (A) (A) (A) (A)
                 (A) (A) (A) (A) (A) (A) (A) (A) (A) (A) (A) (A)
                 (A) (A)
 The electronic state is 1-A.
 Alpha  occ. eigenvalues -- -513.11587 -67.38402 -60.93281 -60.93274 -60.93265
 Alpha  occ. eigenvalues --  -19.33703 -19.33553  -9.83724  -7.53049  -7.53026
 Alpha  occ. eigenvalues --   -7.52995  -3.39734  -3.39732  -3.39706  -3.39688
 Alpha  occ. eigenvalues --   -3.39684  -1.24600  -1.04568  -1.02873  -0.69027
 Alpha  occ. eigenvalues --   -0.54988  -0.54147  -0.52146  -0.51458  -0.50456
 Alpha  occ. eigenvalues --   -0.46783  -0.37224
 Alpha virt. eigenvalues --    0.03503   0.04472   0.08648   0.09226   0.09839
 Alpha virt. eigenvalues --    0.11909   0.12644   0.15429   0.17074   0.17766
 Alpha virt. eigenvalues --    0.18301   0.19215   0.20205   0.21653   0.23002
 Alpha virt. eigenvalues --    0.23841   0.24354   0.27047   0.30060   0.33073
 Alpha virt. eigenvalues --    0.34883   0.35558   0.37610   0.38159   0.39816
 Alpha virt. eigenvalues --    0.41731   0.43992   0.47618   0.51766   0.53220
 Alpha virt. eigenvalues --    0.57591   0.59853   0.60642   0.63275   0.65404
 Alpha virt. eigenvalues --    0.67562   0.68901   0.72111   0.72673   0.73927
 Alpha virt. eigenvalues --    0.74751   0.76166   0.79181   0.81104   0.84279
 Alpha virt. eigenvalues --    0.84976   0.85864   0.86816   0.88187   0.90459
 Alpha virt. eigenvalues --    0.92444   0.93059   0.95637   0.97473   0.99492
 Alpha virt. eigenvalues --    1.01621   1.02527   1.04771   1.05943   1.09437
 Alpha virt. eigenvalues --    1.12134   1.18264   1.20425   1.21327   1.23767
 Alpha virt. eigenvalues --    1.29925   1.32062   1.36692   1.38246   1.45108
 Alpha virt. eigenvalues --    1.47986   1.50056   1.52370   1.54812   1.58691
 Alpha virt. eigenvalues --    1.60023   1.66207   1.82674   1.87185   1.92754
 Alpha virt. eigenvalues --    1.97661   2.05586   2.06558   2.11855   2.12785
 Alpha virt. eigenvalues --    2.13530   2.19189   2.19746   2.20597   2.27194
 Alpha virt. eigenvalues --    2.27542   2.29955   2.31583   2.31684   2.32965
 Alpha virt. eigenvalues --    2.36767   2.38756   2.42468   2.45647   2.46722
 Alpha virt. eigenvalues --    2.48587   2.50125   2.54043   2.55820   2.56747
 Alpha virt. eigenvalues --    2.59852   2.64870   2.67023   2.67949   2.71482
 Alpha virt. eigenvalues --    2.72630   2.74687   2.79190   2.88093   2.90092
 Alpha virt. eigenvalues --    2.91869   3.05241   3.09918   3.10973   3.57664
 Alpha virt. eigenvalues --    3.67732   3.90218   3.98360   4.00681   4.05644
 Alpha virt. eigenvalues --    4.14641   4.16573   4.18627   4.20334   4.22909
 Alpha virt. eigenvalues --    4.43436   4.51669   4.54588   4.65586   4.69584
 Alpha virt. eigenvalues --    4.98024   4.98633   5.05745   5.07777   5.08630
 Alpha virt. eigenvalues --    5.13117   5.48164   5.82858   6.02837   6.05401
 Alpha virt. eigenvalues --    6.12187   6.35023   6.37642   6.45333   6.55921
 Alpha virt. eigenvalues --    6.67410   6.72418   6.78045   6.83017   6.84737
 Alpha virt. eigenvalues --    6.85857   6.89398   6.90571   6.91272   7.07621
 Alpha virt. eigenvalues --    7.14684   7.17481   7.24320   7.37237   7.55835
 Alpha virt. eigenvalues --    7.97697   7.99985   8.16019  13.89348  14.70574
          Condensed to atoms (all electrons):
              1          2          3          4          5
     1  O    8.249310  -0.206568   0.171068   0.030251  -0.021962
     2  O   -0.206568   8.256089   0.034959   0.178444  -0.017689
     3  H    0.171068   0.034959   0.589720  -0.014000  -0.000837
     4  H    0.030251   0.178444  -0.014000   0.580793  -0.010883
     5  Kr  -0.021962  -0.017689  -0.000837  -0.010883  36.038520
 Mulliken atomic charges:
              1
     1  O   -0.222099
     2  O   -0.245235
     3  H    0.219090
     4  H    0.235394
     5  Kr   0.012850
 Sum of Mulliken atomic charges =   0.00000
 Mulliken charges with hydrogens summed into heavy atoms:
              1
     1  O   -0.003009
     2  O   -0.009841
     5  Kr   0.012850
 Sum of Mulliken charges with hydrogens summed into heavy atoms =   0.00000
 Electronic spatial extent (au):  <R**2>=            476.3547
 Charge=              0.0000 electrons
 Dipole moment (field-independent basis, Debye):
    X=             -3.3886    Y=             -0.0957    Z=              0.6565  Tot=              3.4529
 Quadrupole moment (field-independent basis, Debye-Ang):
   XX=            -38.3916   YY=            -28.0778   ZZ=            -30.1491
   XY=             -0.3017   XZ=              0.7958   YZ=             -0.8772
 Traceless Quadrupole moment (field-independent basis, Debye-Ang):
   XX=             -6.1854   YY=              4.1284   ZZ=              2.0571
   XY=             -0.3017   XZ=              0.7958   YZ=             -0.8772
 Octapole moment (field-independent basis, Debye-Ang**2):
  XXX=            -44.0553  YYY=             -0.2345  ZZZ=              0.0686  XYY=             -7.6025
  XXY=             -0.7066  XXZ=              0.1223  XZZ=             -8.3301  YZZ=             -0.4651
  YYZ=              1.0146  XYZ=             -1.0497
 Hexadecapole moment (field-independent basis, Debye-Ang**3):
 XXXX=           -456.2924 YYYY=            -63.2572 ZZZZ=            -29.5345 XXXY=             -0.7393
 XXXZ=             -1.0710 YYYX=             -0.5583 YYYZ=             -1.2060 ZZZX=              0.3530
 ZZZY=             -0.5692 XXYY=            -85.6256 XXZZ=            -75.7896 YYZZ=            -17.0574
 XXYZ=             -1.2027 YYXZ=              1.2389 ZZXY=             -0.6319
 N-N= 1.513340694258D+02 E-N=-7.240095341721D+03  KE= 2.900960474694D+03
 No NMR shielding tensors so no spin-rotation constants.
 Leave Link  601 at Thu Apr 16 09:19:50 2020, MaxMem= 1073741824 cpu:       0.7
 (Enter /home/matheus/.gaussian/g09/l108.exe)
 Variable Step   Value    
 -------- ---- -----------
     1       1    5.858151
 Leave Link  108 at Thu Apr 16 09:19:50 2020, MaxMem= 1073741824 cpu:       0.0
 (Enter /home/matheus/.gaussian/g09/l202.exe)
 ---------------------------------------------------------------------------------------------------
                            Z-MATRIX (ANGSTROMS AND DEGREES)
   CD    Cent   Atom    N1       Length/X        N2       Alpha/Y        N3        Beta/Z          J
 ---------------------------------------------------------------------------------------------------
      1      1  O        0   0.000000          0.000000          0.725000
      2      2  O        0   0.000000          0.000000         -0.725000
      3      3  H        0   0.459360          0.795635          1.023510
      4      4  H        0   0.000000          0.918721         -1.023510
      5      5  Kr       0   0.000000          3.100000          0.000000
 ---------------------------------------------------------------------------------------------------
                         Z-Matrix orientation:                         
 ---------------------------------------------------------------------
 Center     Atomic      Atomic             Coordinates (Angstroms)
 Number     Number       Type             X           Y           Z
 ---------------------------------------------------------------------
      1          8           0        0.000000    0.000000    0.725000
      2          8           0        0.000000    0.000000   -0.725000
      3          1           0        0.459360    0.795635    1.023510
      4          1           0        0.000000    0.918721   -1.023510
      5         36           0        0.000000    3.100000    0.000000
 ---------------------------------------------------------------------
                    Distance matrix (angstroms):
                    1          2          3          4          5
     1  O    0.000000
     2  O    1.450000   0.000000
     3  H    0.966000   1.975180   0.000000
     4  H    1.975180   0.966000   2.101537   0.000000
     5  Kr   3.183650   3.183650   2.562944   2.409472   0.000000
 Stoichiometry    H2KrO2
 Framework group  C1[X(H2KrO2)]
 Deg. of freedom     9
 Full point group                 C1      NOp   1
 RotChk:  IX=0 Diff= 1.82D-04
 Largest Abelian subgroup         C1      NOp   1
 Largest concise Abelian subgroup C1      NOp   1
                         Standard orientation:                         
 ---------------------------------------------------------------------
 Center     Atomic      Atomic             Coordinates (Angstroms)
 Number     Number       Type             X           Y           Z
 ---------------------------------------------------------------------
      1          8           0        2.099274   -0.720625   -0.052786
      2          8           0        2.097394    0.727877    0.013092
      3          1           0        1.306553   -1.040922    0.396835
      4          1           0        1.178301    1.024660    0.031623
      5         36           0       -1.001617   -0.001160   -0.003081
 ---------------------------------------------------------------------
 Rotational constants (GHZ):     26.4111844      2.2303685      2.0599879
 Leave Link  202 at Thu Apr 16 09:19:50 2020, MaxMem= 1073741824 cpu:       0.0
 (Enter /home/matheus/.gaussian/g09/l301.exe)
 Standard basis: Aug-CC-pVTZ (5D, 7F)
 Ernie: Thresh=  0.10000D-02 Tol=  0.10000D-05 Strict=F.
 Ernie:  38 primitive shells out of 205 were deleted.
 There are   197 symmetry adapted basis functions of A   symmetry.
 Integral buffers will be    131072 words long.
 Raffenetti 2 integral format.
 Two-electron integral symmetry is turned on.
   197 basis functions,   415 primitive gaussians,   229 cartesian basis functions
    27 alpha electrons       27 beta electrons
       nuclear repulsion energy       147.7405938704 Hartrees.
 IExCor= 4639 DFT=T Ex+Corr=wB97XD ExCW=0 ScaHFX=  1.000000
 ScaDFX=  1.000000  1.000000  1.000000  1.000000 ScalE2=  1.000000  1.000000
 IRadAn=      5 IRanWt=     -1 IRanGd=            0 ICorTp=0
  HFx wShort=  0.000000 wLong=  0.250000 cFull=  0.222036 cShort=  0.000000 cLong=  0.777964
  DFx wShort=  0.000000 wLong=  0.250000 cFull=  0.000000 cShort=  0.000000 cLong=  1.000000
 NAtoms=    5 NActive=    5 NUniq=    5 SFac= 1.00D+00 NAtFMM=   60 NAOKFM=F Big=F
 R6Disp: Dispersion energy =        -0.0008856021 Hartrees.
 Nuclear repulsion after empirical dispersion term =      147.7397082683 Hartrees.
 Leave Link  301 at Thu Apr 16 09:19:50 2020, MaxMem= 1073741824 cpu:       0.2
 (Enter /home/matheus/.gaussian/g09/l302.exe)
 NPDir=0 NMtPBC=     1 NCelOv=     1 NCel=       1 NClECP=     1 NCelD=      1
         NCelK=      1 NCelE2=     1 NClLst=     1 CellRange=     0.0.
 One-electron integrals computed using PRISM.
 NBasis=   197 RedAO= T  NBF=   197
 NBsUse=   197 1.00D-06 NBFU=   197
 Precomputing XC quadrature grid using
 IXCGrd= 2 IRadAn=           5 IRanWt=          -1 IRanGd=           0 AccXCQ= 0.00D+00.
 NRdTot=     427 NPtTot=      123512 NUsed=      126579 NTot=      126611
 NSgBfM=   229   229   229   229   229 NAtAll=     5     5.
 Leave Link  302 at Thu Apr 16 09:19:50 2020, MaxMem= 1073741824 cpu:       1.1
 (Enter /home/matheus/.gaussian/g09/l303.exe)
 DipDrv:  MaxL=1.
 Leave Link  303 at Thu Apr 16 09:19:50 2020, MaxMem= 1073741824 cpu:       0.2
 (Enter /home/matheus/.gaussian/g09/l401.exe)
 Initial guess read from the read-write file.
 B after Tr=     0.000000    0.000000    0.000000
         Rot=    1.000000    0.000000    0.000000    0.000000 Ang=   0.00 deg.
 Guess basis will be translated and rotated to current coordinates.
 Initial guess orbital symmetries:
       Occupied  (A) (A) (A) (A) (A) (A) (A) (A) (A) (A) (A) (A)
                 (A) (A) (A) (A) (A) (A) (A) (A) (A) (A) (A) (A)
                 (A) (A) (A)
       Virtual   (A) (A) (A) (A) (A) (A) (A) (A) (A) (A) (A) (A)
                 (A) (A) (A) (A) (A) (A) (A) (A) (A) (A) (A) (A)
                 (A) (A) (A) (A) (A) (A) (A) (A) (A) (A) (A) (A)
                 (A) (A) (A) (A) (A) (A) (A) (A) (A) (A) (A) (A)
                 (A) (A) (A) (A) (A) (A) (A) (A) (A) (A) (A) (A)
                 (A) (A) (A) (A) (A) (A) (A) (A) (A) (A) (A) (A)
                 (A) (A) (A) (A) (A) (A) (A) (A) (A) (A) (A) (A)
                 (A) (A) (A) (A) (A) (A) (A) (A) (A) (A) (A) (A)
                 (A) (A) (A) (A) (A) (A) (A) (A) (A) (A) (A) (A)
                 (A) (A) (A) (A) (A) (A) (A) (A) (A) (A) (A) (A)
                 (A) (A) (A) (A) (A) (A) (A) (A) (A) (A) (A) (A)
                 (A) (A) (A) (A) (A) (A) (A) (A) (A) (A) (A) (A)
                 (A) (A) (A) (A) (A) (A) (A) (A) (A) (A) (A) (A)
                 (A) (A) (A) (A) (A) (A) (A) (A) (A) (A) (A) (A)
                 (A) (A)
 The electronic state of the initial guess is 1-A.
 Generating alternative initial guess.
 Harris functional with IExCor= 4639 diagonalized for initial guess.
 ExpMin= 2.53D-02 ExpMax= 1.17D+07 ExpMxC= 1.33D+04 IAcc=3 IRadAn=         5 AccDes= 0.00D+00
 HarFok:  IExCor= 4639 AccDes= 0.00D+00 IRadAn=         5 IDoV= 1
 ScaDFX=  1.000000  1.000000  1.000000  1.000000
 FoFCou: FMM=F IPFlag=           0 FMFlag=      100000 FMFlg1=           0
         NFxFlg=           0 DoJE=T BraDBF=F KetDBF=T FulRan=T
         Omega=  0.000000  0.000000  1.000000  0.000000  0.000000 ICntrl=     500 IOpCl=  0
         NMat0=    1 NMatS0=    1 NMatT0=    0 NMatD0=    1 NMtDS0=    0 NMtDT0=    0
         I1Cent=           4 NGrid=           0.
 Petite list used in FoFCou.
 Harris En= -2875.39372008210    
 Leave Link  401 at Thu Apr 16 09:19:51 2020, MaxMem= 1073741824 cpu:       4.3
 (Enter /home/matheus/.gaussian/g09/l502.exe)
 Closed shell SCF:
 Requested convergence on RMS density matrix=1.00D-08 within 128 cycles.
 Requested convergence on MAX density matrix=1.00D-06.
 Requested convergence on             energy=1.00D-06.
 No special actions if energy rises.
 Using DIIS extrapolation, IDIIS=  1040.
 Integral symmetry usage will be decided dynamically.
       126521 words used for storage of precomputed grid.
 IEnd=      305468 IEndB=      305468 NGot=  1073741824 MDV=  1073505667
 LenX=  1073505667 LenY=  1073452785
 Fock matrices will be formed incrementally for  20 cycles.

 Cycle   1  Pass 1  IDiag  1:
 FoFJK:  IHMeth= 1 ICntrl=     0 DoSepK=T KAlg= 1 I1Cent= 0 FoldK=F
 FoFCou: FMM=F IPFlag=           0 FMFlag=      100000 FMFlg1=           0
         NFxFlg=           0 DoJE=T BraDBF=F KetDBF=F FulRan=T
         Omega=  0.000000  0.000000  1.000000  0.000000  0.000000 ICntrl=     500 IOpCl=  0
         NMat0=    1 NMatS0=    1 NMatT0=    0 NMatD0=    1 NMtDS0=    0 NMtDT0=    0
         I1Cent=           0 NGrid=           0.
 Symmetry not used in FoFCou.
 E= -2905.42214686197    
 DIIS: error= 2.29D-03 at cycle   1 NSaved=   1.
 NSaved= 1 IEnMin= 1 EnMin= -2905.42214686197     IErMin= 1 ErrMin= 2.29D-03
 ErrMax= 2.29D-03 EMaxC= 1.00D-01 BMatC= 8.96D-04 BMatP= 8.96D-04
 IDIUse=3 WtCom= 9.77D-01 WtEn= 2.29D-02
 Coeff-Com:  0.100D+01
 Coeff-En:   0.100D+01
 Coeff:      0.100D+01
 Gap=     0.411 Goal=   None    Shift=    0.000
 GapD=    0.411 DampG=2.000 DampE=1.000 DampFc=2.0000 IDamp=-1.
 RMSDP=7.68D-05 MaxDP=1.83D-03              OVMax= 3.33D-03

 Cycle   2  Pass 1  IDiag  1:
 RMSU=  5.43D-05    CP:  1.00D+00
 FoFJK:  IHMeth= 1 ICntrl=     0 DoSepK=T KAlg= 1 I1Cent= 0 FoldK=F
 E= -2905.42228291518     Delta-E=       -0.000136053212 Rises=F Damp=F
 DIIS: error= 1.98D-04 at cycle   2 NSaved=   2.
 NSaved= 2 IEnMin= 2 EnMin= -2905.42228291518     IErMin= 2 ErrMin= 1.98D-04
 ErrMax= 1.98D-04 EMaxC= 1.00D-01 BMatC= 6.43D-06 BMatP= 8.96D-04
 IDIUse=3 WtCom= 9.98D-01 WtEn= 1.98D-03
 Coeff-Com: -0.126D-02 0.100D+01
 Coeff-En:   0.000D+00 0.100D+01
 Coeff:     -0.126D-02 0.100D+01
 Gap=     0.407 Goal=   None    Shift=    0.000
 RMSDP=1.76D-05 MaxDP=6.75D-04 DE=-1.36D-04 OVMax= 9.86D-04

 Cycle   3  Pass 1  IDiag  1:
 RMSU=  1.06D-05    CP:  1.00D+00  1.12D+00
 FoFJK:  IHMeth= 1 ICntrl=     0 DoSepK=T KAlg= 1 I1Cent= 0 FoldK=F
 E= -2905.42228719838     Delta-E=       -0.000004283200 Rises=F Damp=F
 DIIS: error= 9.46D-05 at cycle   3 NSaved=   3.
 NSaved= 3 IEnMin= 3 EnMin= -2905.42228719838     IErMin= 3 ErrMin= 9.46D-05
 ErrMax= 9.46D-05 EMaxC= 1.00D-01 BMatC= 3.86D-06 BMatP= 6.43D-06
 IDIUse=1 WtCom= 1.00D+00 WtEn= 0.00D+00
 Coeff-Com: -0.647D-02 0.432D+00 0.575D+00
 Coeff:     -0.647D-02 0.432D+00 0.575D+00
 Gap=     0.408 Goal=   None    Shift=    0.000
 RMSDP=6.68D-06 MaxDP=2.98D-04 DE=-4.28D-06 OVMax= 3.56D-04

 Cycle   4  Pass 1  IDiag  1:
 RMSU=  3.14D-06    CP:  1.00D+00  1.15D+00  6.96D-01
 FoFJK:  IHMeth= 1 ICntrl=     0 DoSepK=T KAlg= 1 I1Cent= 0 FoldK=F
 E= -2905.42228972774     Delta-E=       -0.000002529364 Rises=F Damp=F
 DIIS: error= 1.83D-05 at cycle   4 NSaved=   4.
 NSaved= 4 IEnMin= 4 EnMin= -2905.42228972774     IErMin= 4 ErrMin= 1.83D-05
 ErrMax= 1.83D-05 EMaxC= 1.00D-01 BMatC= 1.16D-07 BMatP= 3.86D-06
 IDIUse=1 WtCom= 1.00D+00 WtEn= 0.00D+00
 Coeff-Com: -0.974D-03-0.772D-02 0.105D+00 0.903D+00
 Coeff:     -0.974D-03-0.772D-02 0.105D+00 0.903D+00
 Gap=     0.408 Goal=   None    Shift=    0.000
 RMSDP=2.12D-06 MaxDP=8.22D-05 DE=-2.53D-06 OVMax= 1.31D-04

 Cycle   5  Pass 1  IDiag  1:
 RMSU=  9.79D-07    CP:  1.00D+00  1.16D+00  7.71D-01  1.17D+00
 FoFJK:  IHMeth= 1 ICntrl=     0 DoSepK=T KAlg= 1 I1Cent= 0 FoldK=F
 E= -2905.42228982017     Delta-E=       -0.000000092426 Rises=F Damp=F
 DIIS: error= 1.23D-05 at cycle   5 NSaved=   5.
 NSaved= 5 IEnMin= 5 EnMin= -2905.42228982017     IErMin= 5 ErrMin= 1.23D-05
 ErrMax= 1.23D-05 EMaxC= 1.00D-01 BMatC= 4.92D-08 BMatP= 1.16D-07
 IDIUse=1 WtCom= 1.00D+00 WtEn= 0.00D+00
 Coeff-Com:  0.179D-03-0.525D-01-0.611D-02 0.478D+00 0.581D+00
 Coeff:      0.179D-03-0.525D-01-0.611D-02 0.478D+00 0.581D+00
 Gap=     0.408 Goal=   None    Shift=    0.000
 RMSDP=7.43D-07 MaxDP=3.46D-05 DE=-9.24D-08 OVMax= 5.05D-05

 Cycle   6  Pass 1  IDiag  1:
 RMSU=  3.47D-07    CP:  1.00D+00  1.16D+00  7.88D-01  1.25D+00  7.98D-01
 FoFJK:  IHMeth= 1 ICntrl=     0 DoSepK=T KAlg= 1 I1Cent= 0 FoldK=F
 E= -2905.42228985388     Delta-E=       -0.000000033709 Rises=F Damp=F
 DIIS: error= 2.41D-06 at cycle   6 NSaved=   6.
 NSaved= 6 IEnMin= 6 EnMin= -2905.42228985388     IErMin= 6 ErrMin= 2.41D-06
 ErrMax= 2.41D-06 EMaxC= 1.00D-01 BMatC= 2.32D-09 BMatP= 4.92D-08
 IDIUse=1 WtCom= 1.00D+00 WtEn= 0.00D+00
 Coeff-Com:  0.160D-03-0.213D-01-0.111D-01 0.114D+00 0.230D+00 0.688D+00
 Coeff:      0.160D-03-0.213D-01-0.111D-01 0.114D+00 0.230D+00 0.688D+00
 Gap=     0.408 Goal=   None    Shift=    0.000
 RMSDP=2.13D-07 MaxDP=5.57D-06 DE=-3.37D-08 OVMax= 1.36D-05

 Cycle   7  Pass 1  IDiag  1:
 RMSU=  9.12D-08    CP:  1.00D+00  1.16D+00  7.93D-01  1.27D+00  8.70D-01
                    CP:  9.80D-01
 FoFJK:  IHMeth= 1 ICntrl=     0 DoSepK=T KAlg= 1 I1Cent= 0 FoldK=F
 E= -2905.42228985600     Delta-E=       -0.000000002126 Rises=F Damp=F
 DIIS: error= 7.17D-07 at cycle   7 NSaved=   7.
 NSaved= 7 IEnMin= 7 EnMin= -2905.42228985600     IErMin= 7 ErrMin= 7.17D-07
 ErrMax= 7.17D-07 EMaxC= 1.00D-01 BMatC= 8.12D-11 BMatP= 2.32D-09
 IDIUse=1 WtCom= 1.00D+00 WtEn= 0.00D+00
 Coeff-Com: -0.228D-04 0.654D-02 0.181D-02-0.565D-01-0.765D-01-0.262D-01
 Coeff-Com:  0.115D+01
 Coeff:     -0.228D-04 0.654D-02 0.181D-02-0.565D-01-0.765D-01-0.262D-01
 Coeff:      0.115D+01
 Gap=     0.408 Goal=   None    Shift=    0.000
 RMSDP=1.01D-07 MaxDP=3.39D-06 DE=-2.13D-09 OVMax= 9.13D-06

 Cycle   8  Pass 1  IDiag  1:
 RMSU=  2.94D-08    CP:  1.00D+00  1.16D+00  7.95D-01  1.28D+00  8.99D-01
                    CP:  1.10D+00  1.23D+00
 FoFJK:  IHMeth= 1 ICntrl=     0 DoSepK=T KAlg= 1 I1Cent= 0 FoldK=F
 E= -2905.42228985624     Delta-E=       -0.000000000234 Rises=F Damp=F
 DIIS: error= 1.05D-07 at cycle   8 NSaved=   8.
 NSaved= 8 IEnMin= 8 EnMin= -2905.42228985624     IErMin= 8 ErrMin= 1.05D-07
 ErrMax= 1.05D-07 EMaxC= 1.00D-01 BMatC= 4.00D-12 BMatP= 8.12D-11
 IDIUse=1 WtCom= 1.00D+00 WtEn= 0.00D+00
 Coeff-Com: -0.101D-04 0.175D-02 0.697D-03-0.120D-01-0.191D-01-0.289D-01
 Coeff-Com:  0.143D+00 0.915D+00
 Coeff:     -0.101D-04 0.175D-02 0.697D-03-0.120D-01-0.191D-01-0.289D-01
 Coeff:      0.143D+00 0.915D+00
 Gap=     0.408 Goal=   None    Shift=    0.000
 RMSDP=1.69D-08 MaxDP=3.77D-07 DE=-2.34D-10 OVMax= 2.28D-06

 Cycle   9  Pass 1  IDiag  1:
 RMSU=  6.65D-09    CP:  1.00D+00  1.16D+00  7.95D-01  1.28D+00  8.99D-01
                    CP:  1.10D+00  1.28D+00  1.27D+00
 FoFJK:  IHMeth= 1 ICntrl=     0 DoSepK=T KAlg= 1 I1Cent= 0 FoldK=F
 E= -2905.42228985623     Delta-E=        0.000000000005 Rises=F Damp=F
 DIIS: error= 4.46D-08 at cycle   9 NSaved=   9.
 NSaved= 9 IEnMin= 8 EnMin= -2905.42228985624     IErMin= 9 ErrMin= 4.46D-08
 ErrMax= 4.46D-08 EMaxC= 1.00D-01 BMatC= 5.25D-13 BMatP= 4.00D-12
 IDIUse=1 WtCom= 1.00D+00 WtEn= 0.00D+00
 Coeff-Com:  0.270D-05-0.753D-03-0.219D-03 0.656D-02 0.863D-02 0.236D-02
 Coeff-Com: -0.138D+00 0.409D-01 0.108D+01
 Coeff:      0.270D-05-0.753D-03-0.219D-03 0.656D-02 0.863D-02 0.236D-02
 Coeff:     -0.138D+00 0.409D-01 0.108D+01
 Gap=     0.408 Goal=   None    Shift=    0.000
 RMSDP=1.00D-08 MaxDP=2.08D-07 DE= 4.55D-12 OVMax= 1.26D-06

 Cycle  10  Pass 1  IDiag  1:
 RMSU=  2.58D-09    CP:  1.00D+00  1.16D+00  7.95D-01  1.28D+00  8.98D-01
                    CP:  1.10D+00  1.29D+00  1.44D+00  1.33D+00
 FoFJK:  IHMeth= 1 ICntrl=     0 DoSepK=T KAlg= 1 I1Cent= 0 FoldK=F
 E= -2905.42228985626     Delta-E=       -0.000000000026 Rises=F Damp=F
 DIIS: error= 1.18D-08 at cycle  10 NSaved=  10.
 NSaved=10 IEnMin=10 EnMin= -2905.42228985626     IErMin=10 ErrMin= 1.18D-08
 ErrMax= 1.18D-08 EMaxC= 1.00D-01 BMatC= 4.14D-14 BMatP= 5.25D-13
 IDIUse=1 WtCom= 1.00D+00 WtEn= 0.00D+00
 Coeff-Com:  0.700D-06-0.120D-03-0.400D-04 0.781D-03 0.115D-02 0.219D-02
 Coeff-Com: -0.763D-02-0.796D-01 0.122D-01 0.107D+01
 Coeff:      0.700D-06-0.120D-03-0.400D-04 0.781D-03 0.115D-02 0.219D-02
 Coeff:     -0.763D-02-0.796D-01 0.122D-01 0.107D+01
 Gap=     0.408 Goal=   None    Shift=    0.000
 RMSDP=2.55D-09 MaxDP=5.89D-08 DE=-2.64D-11 OVMax= 3.71D-07

 SCF Done:  E(RwB97XD) =  -2905.42228986     A.U. after   10 cycles
             Convg  =    0.2554D-08             -V/T =  2.0015
 KE= 2.900944606586D+03 PE=-7.232938480811D+03 EE= 1.278831876100D+03
 Leave Link  502 at Thu Apr 16 09:20:21 2020, MaxMem= 1073741824 cpu:     237.4
 (Enter /home/matheus/.gaussian/g09/l108.exe)
 Variable Step   Value    
 -------- ---- -----------
     1       2    6.047124
 Leave Link  108 at Thu Apr 16 09:20:21 2020, MaxMem= 1073741824 cpu:       0.0
 (Enter /home/matheus/.gaussian/g09/l202.exe)
 ---------------------------------------------------------------------------------------------------
                            Z-MATRIX (ANGSTROMS AND DEGREES)
   CD    Cent   Atom    N1       Length/X        N2       Alpha/Y        N3        Beta/Z          J
 ---------------------------------------------------------------------------------------------------
      1      1  O        0   0.000000          0.000000          0.725000
      2      2  O        0   0.000000          0.000000         -0.725000
      3      3  H        0   0.459360          0.795635          1.023510
      4      4  H        0   0.000000          0.918721         -1.023510
      5      5  Kr       0   0.000000          3.200000          0.000000
 ---------------------------------------------------------------------------------------------------
                         Z-Matrix orientation:                         
 ---------------------------------------------------------------------
 Center     Atomic      Atomic             Coordinates (Angstroms)
 Number     Number       Type             X           Y           Z
 ---------------------------------------------------------------------
      1          8           0        0.000000    0.000000    0.725000
      2          8           0        0.000000    0.000000   -0.725000
      3          1           0        0.459360    0.795635    1.023510
      4          1           0        0.000000    0.918721   -1.023510
      5         36           0        0.000000    3.200000    0.000000
 ---------------------------------------------------------------------
                    Distance matrix (angstroms):
                    1          2          3          4          5
     1  O    0.000000
     2  O    1.450000   0.000000
     3  H    0.966000   1.975180   0.000000
     4  H    1.975180   0.966000   2.101537   0.000000
     5  Kr   3.281101   3.281101   2.653216   2.500362   0.000000
 Stoichiometry    H2KrO2
 Framework group  C1[X(H2KrO2)]
 Deg. of freedom     9
 Full point group                 C1      NOp   1
 RotChk:  IX=0 Diff= 1.72D-04
 Largest Abelian subgroup         C1      NOp   1
 Largest concise Abelian subgroup C1      NOp   1
                         Standard orientation:                         
 ---------------------------------------------------------------------
 Center     Atomic      Atomic             Coordinates (Angstroms)
 Number     Number       Type             X           Y           Z
 ---------------------------------------------------------------------
      1          8           0        2.165877   -0.720724   -0.052979
      2          8           0        2.164127    0.727778    0.012899
      3          1           0        1.373090   -1.040947    0.396580
      4          1           0        1.245060    1.024647    0.031359
      5         36           0       -1.034949   -0.001115   -0.002981
 ---------------------------------------------------------------------
 Rotational constants (GHZ):     26.4112668      2.0918935      1.9412980
 Leave Link  202 at Thu Apr 16 09:20:21 2020, MaxMem= 1073741824 cpu:       0.0
 (Enter /home/matheus/.gaussian/g09/l301.exe)
 Standard basis: Aug-CC-pVTZ (5D, 7F)
 Ernie: Thresh=  0.10000D-02 Tol=  0.10000D-05 Strict=F.
 Ernie:  38 primitive shells out of 205 were deleted.
 There are   197 symmetry adapted basis functions of A   symmetry.
 Integral buffers will be    131072 words long.
 Raffenetti 2 integral format.
 Two-electron integral symmetry is turned on.
   197 basis functions,   415 primitive gaussians,   229 cartesian basis functions
    27 alpha electrons       27 beta electrons
       nuclear repulsion energy       144.3566967293 Hartrees.
 IExCor= 4639 DFT=T Ex+Corr=wB97XD ExCW=0 ScaHFX=  1.000000
 ScaDFX=  1.000000  1.000000  1.000000  1.000000 ScalE2=  1.000000  1.000000
 IRadAn=      5 IRanWt=     -1 IRanGd=            0 ICorTp=0
  HFx wShort=  0.000000 wLong=  0.250000 cFull=  0.222036 cShort=  0.000000 cLong=  0.777964
  DFx wShort=  0.000000 wLong=  0.250000 cFull=  0.000000 cShort=  0.000000 cLong=  1.000000
 NAtoms=    5 NActive=    5 NUniq=    5 SFac= 1.00D+00 NAtFMM=   60 NAOKFM=F Big=F
 R6Disp: Dispersion energy =        -0.0009732728 Hartrees.
 Nuclear repulsion after empirical dispersion term =      144.3557234565 Hartrees.
 Leave Link  301 at Thu Apr 16 09:20:21 2020, MaxMem= 1073741824 cpu:       0.2
 (Enter /home/matheus/.gaussian/g09/l302.exe)
 NPDir=0 NMtPBC=     1 NCelOv=     1 NCel=       1 NClECP=     1 NCelD=      1
         NCelK=      1 NCelE2=     1 NClLst=     1 CellRange=     0.0.
 One-electron integrals computed using PRISM.
 NBasis=   197 RedAO= T  NBF=   197
 NBsUse=   197 1.00D-06 NBFU=   197
 Precomputing XC quadrature grid using
 IXCGrd= 2 IRadAn=           5 IRanWt=          -1 IRanGd=           0 AccXCQ= 0.00D+00.
 NRdTot=     427 NPtTot=      123512 NUsed=      126579 NTot=      126611
 NSgBfM=   229   229   229   229   229 NAtAll=     5     5.
 Leave Link  302 at Thu Apr 16 09:20:21 2020, MaxMem= 1073741824 cpu:       1.0
 (Enter /home/matheus/.gaussian/g09/l303.exe)
 DipDrv:  MaxL=1.
 Leave Link  303 at Thu Apr 16 09:20:21 2020, MaxMem= 1073741824 cpu:       0.2
 (Enter /home/matheus/.gaussian/g09/l401.exe)
 Initial guess read from the read-write file.
 B after Tr=     0.000000    0.000000    0.000000
         Rot=    1.000000    0.000000    0.000000    0.000000 Ang=   0.00 deg.
 Guess basis will be translated and rotated to current coordinates.
 Initial guess orbital symmetries:
       Occupied  (A) (A) (A) (A) (A) (A) (A) (A) (A) (A) (A) (A)
                 (A) (A) (A) (A) (A) (A) (A) (A) (A) (A) (A) (A)
                 (A) (A) (A)
       Virtual   (A) (A) (A) (A) (A) (A) (A) (A) (A) (A) (A) (A)
                 (A) (A) (A) (A) (A) (A) (A) (A) (A) (A) (A) (A)
                 (A) (A) (A) (A) (A) (A) (A) (A) (A) (A) (A) (A)
                 (A) (A) (A) (A) (A) (A) (A) (A) (A) (A) (A) (A)
                 (A) (A) (A) (A) (A) (A) (A) (A) (A) (A) (A) (A)
                 (A) (A) (A) (A) (A) (A) (A) (A) (A) (A) (A) (A)
                 (A) (A) (A) (A) (A) (A) (A) (A) (A) (A) (A) (A)
                 (A) (A) (A) (A) (A) (A) (A) (A) (A) (A) (A) (A)
                 (A) (A) (A) (A) (A) (A) (A) (A) (A) (A) (A) (A)
                 (A) (A) (A) (A) (A) (A) (A) (A) (A) (A) (A) (A)
                 (A) (A) (A) (A) (A) (A) (A) (A) (A) (A) (A) (A)
                 (A) (A) (A) (A) (A) (A) (A) (A) (A) (A) (A) (A)
                 (A) (A) (A) (A) (A) (A) (A) (A) (A) (A) (A) (A)
                 (A) (A) (A) (A) (A) (A) (A) (A) (A) (A) (A) (A)
                 (A) (A)
 The electronic state of the initial guess is 1-A.
 Generating alternative initial guess.
 Harris functional with IExCor= 4639 diagonalized for initial guess.
 ExpMin= 2.53D-02 ExpMax= 1.17D+07 ExpMxC= 1.33D+04 IAcc=3 IRadAn=         5 AccDes= 0.00D+00
 HarFok:  IExCor= 4639 AccDes= 0.00D+00 IRadAn=         5 IDoV= 1
 ScaDFX=  1.000000  1.000000  1.000000  1.000000
 FoFCou: FMM=F IPFlag=           0 FMFlag=      100000 FMFlg1=           0
         NFxFlg=           0 DoJE=T BraDBF=F KetDBF=T FulRan=T
         Omega=  0.000000  0.000000  1.000000  0.000000  0.000000 ICntrl=     500 IOpCl=  0
         NMat0=    1 NMatS0=    1 NMatT0=    0 NMatD0=    1 NMtDS0=    0 NMtDT0=    0
         I1Cent=           4 NGrid=           0.
 Petite list used in FoFCou.
 Harris En= -2875.39698605832    
 Leave Link  401 at Thu Apr 16 09:20:21 2020, MaxMem= 1073741824 cpu:       4.5
 (Enter /home/matheus/.gaussian/g09/l502.exe)
 Closed shell SCF:
 Requested convergence on RMS density matrix=1.00D-08 within 128 cycles.
 Requested convergence on MAX density matrix=1.00D-06.
 Requested convergence on             energy=1.00D-06.
 No special actions if energy rises.
 Using DIIS extrapolation, IDIIS=  1040.
 Integral symmetry usage will be decided dynamically.
       126521 words used for storage of precomputed grid.
 IEnd=      305468 IEndB=      305468 NGot=  1073741824 MDV=  1073505667
 LenX=  1073505667 LenY=  1073452785
 Fock matrices will be formed incrementally for  20 cycles.

 Cycle   1  Pass 1  IDiag  1:
 FoFJK:  IHMeth= 1 ICntrl=     0 DoSepK=T KAlg= 1 I1Cent= 0 FoldK=F
 FoFCou: FMM=F IPFlag=           0 FMFlag=      100000 FMFlg1=           0
         NFxFlg=           0 DoJE=T BraDBF=F KetDBF=F FulRan=T
         Omega=  0.000000  0.000000  1.000000  0.000000  0.000000 ICntrl=     500 IOpCl=  0
         NMat0=    1 NMatS0=    1 NMatT0=    0 NMatD0=    1 NMtDS0=    0 NMtDT0=    0
         I1Cent=           0 NGrid=           0.
 Symmetry not used in FoFCou.
 E= -2905.42374784273    
 DIIS: error= 1.98D-03 at cycle   1 NSaved=   1.
 NSaved= 1 IEnMin= 1 EnMin= -2905.42374784273     IErMin= 1 ErrMin= 1.98D-03
 ErrMax= 1.98D-03 EMaxC= 1.00D-01 BMatC= 7.11D-04 BMatP= 7.11D-04
 IDIUse=3 WtCom= 9.80D-01 WtEn= 1.98D-02
 Coeff-Com:  0.100D+01
 Coeff-En:   0.100D+01
 Coeff:      0.100D+01
 Gap=     0.411 Goal=   None    Shift=    0.000
 GapD=    0.411 DampG=2.000 DampE=1.000 DampFc=2.0000 IDamp=-1.
 RMSDP=7.17D-05 MaxDP=1.68D-03              OVMax= 3.04D-03

 Cycle   2  Pass 1  IDiag  1:
 RMSU=  5.07D-05    CP:  1.00D+00
 FoFJK:  IHMeth= 1 ICntrl=     0 DoSepK=T KAlg= 1 I1Cent= 0 FoldK=F
 E= -2905.42385200259     Delta-E=       -0.000104159857 Rises=F Damp=F
 DIIS: error= 1.62D-04 at cycle   2 NSaved=   2.
 NSaved= 2 IEnMin= 2 EnMin= -2905.42385200259     IErMin= 2 ErrMin= 1.62D-04
 ErrMax= 1.62D-04 EMaxC= 1.00D-01 BMatC= 4.11D-06 BMatP= 7.11D-04
 IDIUse=3 WtCom= 9.98D-01 WtEn= 1.62D-03
 Coeff-Com: -0.341D-02 0.100D+01
 Coeff-En:   0.000D+00 0.100D+01
 Coeff:     -0.341D-02 0.100D+01
 Gap=     0.407 Goal=   None    Shift=    0.000
 RMSDP=1.50D-05 MaxDP=5.18D-04 DE=-1.04D-04 OVMax= 8.41D-04

 Cycle   3  Pass 1  IDiag  1:
 RMSU=  8.58D-06    CP:  1.00D+00  1.12D+00
 FoFJK:  IHMeth= 1 ICntrl=     0 DoSepK=T KAlg= 1 I1Cent= 0 FoldK=F
 E= -2905.42385517832     Delta-E=       -0.000003175724 Rises=F Damp=F
 DIIS: error= 8.28D-05 at cycle   3 NSaved=   3.
 NSaved= 3 IEnMin= 3 EnMin= -2905.42385517832     IErMin= 3 ErrMin= 8.28D-05
 ErrMax= 8.28D-05 EMaxC= 1.00D-01 BMatC= 2.32D-06 BMatP= 4.11D-06
 IDIUse=1 WtCom= 1.00D+00 WtEn= 0.00D+00
 Coeff-Com: -0.610D-02 0.422D+00 0.584D+00
 Coeff:     -0.610D-02 0.422D+00 0.584D+00
 Gap=     0.408 Goal=   None    Shift=    0.000
 RMSDP=5.35D-06 MaxDP=2.38D-04 DE=-3.18D-06 OVMax= 2.84D-04

 Cycle   4  Pass 1  IDiag  1:
 RMSU=  2.75D-06    CP:  1.00D+00  1.15D+00  7.37D-01
 FoFJK:  IHMeth= 1 ICntrl=     0 DoSepK=T KAlg= 1 I1Cent= 0 FoldK=F
 E= -2905.42385671616     Delta-E=       -0.000001537848 Rises=F Damp=F
 DIIS: error= 1.56D-05 at cycle   4 NSaved=   4.
 NSaved= 4 IEnMin= 4 EnMin= -2905.42385671616     IErMin= 4 ErrMin= 1.56D-05
 ErrMax= 1.56D-05 EMaxC= 1.00D-01 BMatC= 9.38D-08 BMatP= 2.32D-06
 IDIUse=1 WtCom= 1.00D+00 WtEn= 0.00D+00
 Coeff-Com: -0.806D-03-0.166D-01 0.119D+00 0.898D+00
 Coeff:     -0.806D-03-0.166D-01 0.119D+00 0.898D+00
 Gap=     0.408 Goal=   None    Shift=    0.000
 RMSDP=1.95D-06 MaxDP=7.17D-05 DE=-1.54D-06 OVMax= 1.15D-04

 Cycle   5  Pass 1  IDiag  1:
 RMSU=  8.34D-07    CP:  1.00D+00  1.16D+00  8.29D-01  1.16D+00
 FoFJK:  IHMeth= 1 ICntrl=     0 DoSepK=T KAlg= 1 I1Cent= 0 FoldK=F
 E= -2905.42385679094     Delta-E=       -0.000000074775 Rises=F Damp=F
 DIIS: error= 1.11D-05 at cycle   5 NSaved=   5.
 NSaved= 5 IEnMin= 5 EnMin= -2905.42385679094     IErMin= 5 ErrMin= 1.11D-05
 ErrMax= 1.11D-05 EMaxC= 1.00D-01 BMatC= 3.59D-08 BMatP= 9.38D-08
 IDIUse=1 WtCom= 1.00D+00 WtEn= 0.00D+00
 Coeff-Com:  0.212D-03-0.550D-01 0.244D-02 0.475D+00 0.577D+00
 Coeff:      0.212D-03-0.550D-01 0.244D-02 0.475D+00 0.577D+00
 Gap=     0.408 Goal=   None    Shift=    0.000
 RMSDP=6.48D-07 MaxDP=3.02D-05 DE=-7.48D-08 OVMax= 4.38D-05

 Cycle   6  Pass 1  IDiag  1:
 RMSU=  2.92D-07    CP:  1.00D+00  1.16D+00  8.51D-01  1.24D+00  7.92D-01
 FoFJK:  IHMeth= 1 ICntrl=     0 DoSepK=T KAlg= 1 I1Cent= 0 FoldK=F
 E= -2905.42385681569     Delta-E=       -0.000000024753 Rises=F Damp=F
 DIIS: error= 2.07D-06 at cycle   6 NSaved=   6.
 NSaved= 6 IEnMin= 6 EnMin= -2905.42385681569     IErMin= 6 ErrMin= 2.07D-06
 ErrMax= 2.07D-06 EMaxC= 1.00D-01 BMatC= 1.56D-09 BMatP= 3.59D-08
 IDIUse=1 WtCom= 1.00D+00 WtEn= 0.00D+00
 Coeff-Com:  0.154D-03-0.205D-01-0.867D-02 0.106D+00 0.220D+00 0.704D+00
 Coeff:      0.154D-03-0.205D-01-0.867D-02 0.106D+00 0.220D+00 0.704D+00
 Gap=     0.408 Goal=   None    Shift=    0.000
 RMSDP=1.81D-07 MaxDP=4.97D-06 DE=-2.48D-08 OVMax= 1.14D-05

 Cycle   7  Pass 1  IDiag  1:
 RMSU=  7.52D-08    CP:  1.00D+00  1.16D+00  8.56D-01  1.27D+00  8.62D-01
                    CP:  9.79D-01
 FoFJK:  IHMeth= 1 ICntrl=     0 DoSepK=T KAlg= 1 I1Cent= 0 FoldK=F
 E= -2905.42385681723     Delta-E=       -0.000000001543 Rises=F Damp=F
 DIIS: error= 6.59D-07 at cycle   7 NSaved=   7.
 NSaved= 7 IEnMin= 7 EnMin= -2905.42385681723     IErMin= 7 ErrMin= 6.59D-07
 ErrMax= 6.59D-07 EMaxC= 1.00D-01 BMatC= 5.96D-11 BMatP= 1.56D-09
 IDIUse=1 WtCom= 1.00D+00 WtEn= 0.00D+00
 Coeff-Com: -0.258D-04 0.689D-02 0.682D-03-0.576D-01-0.755D-01-0.162D-01
 Coeff-Com:  0.114D+01
 Coeff:     -0.258D-04 0.689D-02 0.682D-03-0.576D-01-0.755D-01-0.162D-01
 Coeff:      0.114D+01
 Gap=     0.408 Goal=   None    Shift=    0.000
 RMSDP=8.30D-08 MaxDP=2.92D-06 DE=-1.54D-09 OVMax= 7.53D-06

 Cycle   8  Pass 1  IDiag  1:
 RMSU=  2.50D-08    CP:  1.00D+00  1.16D+00  8.59D-01  1.27D+00  8.88D-01
                    CP:  1.10D+00  1.23D+00
 FoFJK:  IHMeth= 1 ICntrl=     0 DoSepK=T KAlg= 1 I1Cent= 0 FoldK=F
 E= -2905.42385681739     Delta-E=       -0.000000000157 Rises=F Damp=F
 DIIS: error= 9.99D-08 at cycle   8 NSaved=   8.
 NSaved= 8 IEnMin= 8 EnMin= -2905.42385681739     IErMin= 8 ErrMin= 9.99D-08
 ErrMax= 9.99D-08 EMaxC= 1.00D-01 BMatC= 2.39D-12 BMatP= 5.96D-11
 IDIUse=1 WtCom= 1.00D+00 WtEn= 0.00D+00
 Coeff-Com: -0.856D-05 0.146D-02 0.363D-03-0.971D-02-0.153D-01-0.240D-01
 Coeff-Com:  0.114D+00 0.933D+00
 Coeff:     -0.856D-05 0.146D-02 0.363D-03-0.971D-02-0.153D-01-0.240D-01
 Coeff:      0.114D+00 0.933D+00
 Gap=     0.408 Goal=   None    Shift=    0.000
 RMSDP=1.40D-08 MaxDP=3.30D-07 DE=-1.57D-10 OVMax= 1.83D-06

 Cycle   9  Pass 1  IDiag  1:
 RMSU=  5.17D-09    CP:  1.00D+00  1.16D+00  8.59D-01  1.27D+00  8.87D-01
                    CP:  1.10D+00  1.28D+00  1.26D+00
 FoFJK:  IHMeth= 1 ICntrl=     0 DoSepK=T KAlg= 1 I1Cent= 0 FoldK=F
 E= -2905.42385681738     Delta-E=        0.000000000016 Rises=F Damp=F
 DIIS: error= 3.97D-08 at cycle   9 NSaved=   9.
 NSaved= 9 IEnMin= 8 EnMin= -2905.42385681739     IErMin= 9 ErrMin= 3.97D-08
 ErrMax= 3.97D-08 EMaxC= 1.00D-01 BMatC= 3.39D-13 BMatP= 2.39D-12
 IDIUse=1 WtCom= 1.00D+00 WtEn= 0.00D+00
 Coeff-Com:  0.283D-05-0.766D-03-0.806D-04 0.653D-02 0.826D-02 0.421D-03
 Coeff-Com: -0.135D+00 0.688D-01 0.105D+01
 Coeff:      0.283D-05-0.766D-03-0.806D-04 0.653D-02 0.826D-02 0.421D-03
 Coeff:     -0.135D+00 0.688D-01 0.105D+01
 Gap=     0.408 Goal=   None    Shift=    0.000
 RMSDP=7.70D-09 MaxDP=1.79D-07 DE= 1.59D-11 OVMax= 9.80D-07

 SCF Done:  E(RwB97XD) =  -2905.42385682     A.U. after    9 cycles
             Convg  =    0.7704D-08             -V/T =  2.0015
 KE= 2.900934357255D+03 PE=-7.226207324798D+03 EE= 1.275493387269D+03
 Leave Link  502 at Thu Apr 16 09:20:48 2020, MaxMem= 1073741824 cpu:     212.9
 (Enter /home/matheus/.gaussian/g09/l108.exe)
 Variable Step   Value    
 -------- ---- -----------
     1       3    6.236096
 Leave Link  108 at Thu Apr 16 09:20:48 2020, MaxMem= 1073741824 cpu:       0.0
 (Enter /home/matheus/.gaussian/g09/l202.exe)
 ---------------------------------------------------------------------------------------------------
                            Z-MATRIX (ANGSTROMS AND DEGREES)
   CD    Cent   Atom    N1       Length/X        N2       Alpha/Y        N3        Beta/Z          J
 ---------------------------------------------------------------------------------------------------
      1      1  O        0   0.000000          0.000000          0.725000
      2      2  O        0   0.000000          0.000000         -0.725000
      3      3  H        0   0.459360          0.795635          1.023510
      4      4  H        0   0.000000          0.918721         -1.023510
      5      5  Kr       0   0.000000          3.300000          0.000000
 ---------------------------------------------------------------------------------------------------
                         Z-Matrix orientation:                         
 ---------------------------------------------------------------------
 Center     Atomic      Atomic             Coordinates (Angstroms)
 Number     Number       Type             X           Y           Z
 ---------------------------------------------------------------------
      1          8           0        0.000000    0.000000    0.725000
      2          8           0        0.000000    0.000000   -0.725000
      3          1           0        0.459360    0.795635    1.023510
      4          1           0        0.000000    0.918721   -1.023510
      5         36           0        0.000000    3.300000    0.000000
 ---------------------------------------------------------------------
                    Distance matrix (angstroms):
                    1          2          3          4          5
     1  O    0.000000
     2  O    1.450000   0.000000
     3  H    0.966000   1.975180   0.000000
     4  H    1.975180   0.966000   2.101537   0.000000
     5  Kr   3.378702   3.378702   2.744162   2.591923   0.000000
 Stoichiometry    H2KrO2
 Framework group  C1[X(H2KrO2)]
 Deg. of freedom     9
 Full point group                 C1      NOp   1
 RotChk:  IX=0 Diff= 1.63D-04
 Largest Abelian subgroup         C1      NOp   1
 Largest concise Abelian subgroup C1      NOp   1
                         Standard orientation:                         
 ---------------------------------------------------------------------
 Center     Atomic      Atomic             Coordinates (Angstroms)
 Number     Number       Type             X           Y           Z
 ---------------------------------------------------------------------
      1          8           0        2.232486   -0.720815   -0.053159
      2          8           0        2.230853    0.727687    0.012720
      3          1           0        1.439637   -1.040971    0.396337
      4          1           0        1.311809    1.024633    0.031107
      5         36           0       -1.068282   -0.001073   -0.002887
 ---------------------------------------------------------------------
 Rotational constants (GHZ):     26.4113457      1.9659000      1.8323191
 Leave Link  202 at Thu Apr 16 09:20:48 2020, MaxMem= 1073741824 cpu:       0.0
 (Enter /home/matheus/.gaussian/g09/l301.exe)
 Standard basis: Aug-CC-pVTZ (5D, 7F)
 Ernie: Thresh=  0.10000D-02 Tol=  0.10000D-05 Strict=F.
 Ernie:  38 primitive shells out of 205 were deleted.
 There are   197 symmetry adapted basis functions of A   symmetry.
 Integral buffers will be    131072 words long.
 Raffenetti 2 integral format.
 Two-electron integral symmetry is turned on.
   197 basis functions,   415 primitive gaussians,   229 cartesian basis functions
    27 alpha electrons       27 beta electrons
       nuclear repulsion energy       141.1660593904 Hartrees.
 IExCor= 4639 DFT=T Ex+Corr=wB97XD ExCW=0 ScaHFX=  1.000000
 ScaDFX=  1.000000  1.000000  1.000000  1.000000 ScalE2=  1.000000  1.000000
 IRadAn=      5 IRanWt=     -1 IRanGd=            0 ICorTp=0
  HFx wShort=  0.000000 wLong=  0.250000 cFull=  0.222036 cShort=  0.000000 cLong=  0.777964
  DFx wShort=  0.000000 wLong=  0.250000 cFull=  0.000000 cShort=  0.000000 cLong=  1.000000
 NAtoms=    5 NActive=    5 NUniq=    5 SFac= 1.00D+00 NAtFMM=   60 NAOKFM=F Big=F
 R6Disp: Dispersion energy =        -0.0010543036 Hartrees.
 Nuclear repulsion after empirical dispersion term =      141.1650050868 Hartrees.
 Leave Link  301 at Thu Apr 16 09:20:48 2020, MaxMem= 1073741824 cpu:       0.2
 (Enter /home/matheus/.gaussian/g09/l302.exe)
 NPDir=0 NMtPBC=     1 NCelOv=     1 NCel=       1 NClECP=     1 NCelD=      1
         NCelK=      1 NCelE2=     1 NClLst=     1 CellRange=     0.0.
 One-electron integrals computed using PRISM.
 NBasis=   197 RedAO= T  NBF=   197
 NBsUse=   197 1.00D-06 NBFU=   197
 Precomputing XC quadrature grid using
 IXCGrd= 2 IRadAn=           5 IRanWt=          -1 IRanGd=           0 AccXCQ= 0.00D+00.
 NRdTot=     427 NPtTot=      123512 NUsed=      126579 NTot=      126611
 NSgBfM=   229   229   229   229   229 NAtAll=     5     5.
 Leave Link  302 at Thu Apr 16 09:20:48 2020, MaxMem= 1073741824 cpu:       1.1
 (Enter /home/matheus/.gaussian/g09/l303.exe)
 DipDrv:  MaxL=1.
 Leave Link  303 at Thu Apr 16 09:20:48 2020, MaxMem= 1073741824 cpu:       0.2
 (Enter /home/matheus/.gaussian/g09/l401.exe)
 Initial guess read from the read-write file.
 B after Tr=     0.000000    0.000000    0.000000
         Rot=    1.000000    0.000000    0.000000    0.000000 Ang=   0.00 deg.
 Guess basis will be translated and rotated to current coordinates.
 Initial guess orbital symmetries:
       Occupied  (A) (A) (A) (A) (A) (A) (A) (A) (A) (A) (A) (A)
                 (A) (A) (A) (A) (A) (A) (A) (A) (A) (A) (A) (A)
                 (A) (A) (A)
       Virtual   (A) (A) (A) (A) (A) (A) (A) (A) (A) (A) (A) (A)
                 (A) (A) (A) (A) (A) (A) (A) (A) (A) (A) (A) (A)
                 (A) (A) (A) (A) (A) (A) (A) (A) (A) (A) (A) (A)
                 (A) (A) (A) (A) (A) (A) (A) (A) (A) (A) (A) (A)
                 (A) (A) (A) (A) (A) (A) (A) (A) (A) (A) (A) (A)
                 (A) (A) (A) (A) (A) (A) (A) (A) (A) (A) (A) (A)
                 (A) (A) (A) (A) (A) (A) (A) (A) (A) (A) (A) (A)
                 (A) (A) (A) (A) (A) (A) (A) (A) (A) (A) (A) (A)
                 (A) (A) (A) (A) (A) (A) (A) (A) (A) (A) (A) (A)
                 (A) (A) (A) (A) (A) (A) (A) (A) (A) (A) (A) (A)
                 (A) (A) (A) (A) (A) (A) (A) (A) (A) (A) (A) (A)
                 (A) (A) (A) (A) (A) (A) (A) (A) (A) (A) (A) (A)
                 (A) (A) (A) (A) (A) (A) (A) (A) (A) (A) (A) (A)
                 (A) (A) (A) (A) (A) (A) (A) (A) (A) (A) (A) (A)
                 (A) (A)
 The electronic state of the initial guess is 1-A.
 Generating alternative initial guess.
 Harris functional with IExCor= 4639 diagonalized for initial guess.
 ExpMin= 2.53D-02 ExpMax= 1.17D+07 ExpMxC= 1.33D+04 IAcc=3 IRadAn=         5 AccDes= 0.00D+00
 HarFok:  IExCor= 4639 AccDes= 0.00D+00 IRadAn=         5 IDoV= 1
 ScaDFX=  1.000000  1.000000  1.000000  1.000000
 FoFCou: FMM=F IPFlag=           0 FMFlag=      100000 FMFlg1=           0
         NFxFlg=           0 DoJE=T BraDBF=F KetDBF=T FulRan=T
         Omega=  0.000000  0.000000  1.000000  0.000000  0.000000 ICntrl=     500 IOpCl=  0
         NMat0=    1 NMatS0=    1 NMatT0=    0 NMatD0=    1 NMtDS0=    0 NMtDT0=    0
         I1Cent=           4 NGrid=           0.
 Petite list used in FoFCou.
 Harris En= -2875.39943700624    
 Leave Link  401 at Thu Apr 16 09:20:49 2020, MaxMem= 1073741824 cpu:       4.6
 (Enter /home/matheus/.gaussian/g09/l502.exe)
 Closed shell SCF:
 Requested convergence on RMS density matrix=1.00D-08 within 128 cycles.
 Requested convergence on MAX density matrix=1.00D-06.
 Requested convergence on             energy=1.00D-06.
 No special actions if energy rises.
 Using DIIS extrapolation, IDIIS=  1040.
 Integral symmetry usage will be decided dynamically.
       126521 words used for storage of precomputed grid.
 IEnd=      305468 IEndB=      305468 NGot=  1073741824 MDV=  1073505667
 LenX=  1073505667 LenY=  1073452785
 Fock matrices will be formed incrementally for  20 cycles.

 Cycle   1  Pass 1  IDiag  1:
 FoFJK:  IHMeth= 1 ICntrl=     0 DoSepK=T KAlg= 1 I1Cent= 0 FoldK=F
 FoFCou: FMM=F IPFlag=           0 FMFlag=      100000 FMFlg1=           0
         NFxFlg=           0 DoJE=T BraDBF=F KetDBF=F FulRan=T
         Omega=  0.000000  0.000000  1.000000  0.000000  0.000000 ICntrl=     500 IOpCl=  0
         NMat0=    1 NMatS0=    1 NMatT0=    0 NMatD0=    1 NMtDS0=    0 NMtDT0=    0
         I1Cent=           0 NGrid=           0.
 Symmetry not used in FoFCou.
 E= -2905.42478537777    
 DIIS: error= 1.72D-03 at cycle   1 NSaved=   1.
 NSaved= 1 IEnMin= 1 EnMin= -2905.42478537777     IErMin= 1 ErrMin= 1.72D-03
 ErrMax= 1.72D-03 EMaxC= 1.00D-01 BMatC= 5.44D-04 BMatP= 5.44D-04
 IDIUse=3 WtCom= 9.83D-01 WtEn= 1.72D-02
 Coeff-Com:  0.100D+01
 Coeff-En:   0.100D+01
 Coeff:      0.100D+01
 Gap=     0.411 Goal=   None    Shift=    0.000
 GapD=    0.411 DampG=2.000 DampE=1.000 DampFc=2.0000 IDamp=-1.
 RMSDP=6.61D-05 MaxDP=1.74D-03              OVMax= 2.70D-03

 Cycle   2  Pass 1  IDiag  1:
 RMSU=  4.68D-05    CP:  1.00D+00
 FoFJK:  IHMeth= 1 ICntrl=     0 DoSepK=T KAlg= 1 I1Cent= 0 FoldK=F
 E= -2905.42486546068     Delta-E=       -0.000080082910 Rises=F Damp=F
 DIIS: error= 1.31D-04 at cycle   2 NSaved=   2.
 NSaved= 2 IEnMin= 2 EnMin= -2905.42486546068     IErMin= 2 ErrMin= 1.31D-04
 ErrMax= 1.31D-04 EMaxC= 1.00D-01 BMatC= 2.69D-06 BMatP= 5.44D-04
 IDIUse=3 WtCom= 9.99D-01 WtEn= 1.31D-03
 Coeff-Com: -0.504D-02 0.101D+01
 Coeff-En:   0.000D+00 0.100D+01
 Coeff:     -0.504D-02 0.101D+01
 Gap=     0.408 Goal=   None    Shift=    0.000
 RMSDP=1.29D-05 MaxDP=4.09D-04 DE=-8.01D-05 OVMax= 7.11D-04

 Cycle   3  Pass 1  IDiag  1:
 RMSU=  7.01D-06    CP:  1.00D+00  1.13D+00
 FoFJK:  IHMeth= 1 ICntrl=     0 DoSepK=T KAlg= 1 I1Cent= 0 FoldK=F
 E= -2905.42486784112     Delta-E=       -0.000002380435 Rises=F Damp=F
 DIIS: error= 6.54D-05 at cycle   3 NSaved=   3.
 NSaved= 3 IEnMin= 3 EnMin= -2905.42486784112     IErMin= 3 ErrMin= 6.54D-05
 ErrMax= 6.54D-05 EMaxC= 1.00D-01 BMatC= 1.43D-06 BMatP= 2.69D-06
 IDIUse=1 WtCom= 1.00D+00 WtEn= 0.00D+00
 Coeff-Com: -0.595D-02 0.412D+00 0.594D+00
 Coeff:     -0.595D-02 0.412D+00 0.594D+00
 Gap=     0.408 Goal=   None    Shift=    0.000
 RMSDP=4.36D-06 MaxDP=1.93D-04 DE=-2.38D-06 OVMax= 2.28D-04

 Cycle   4  Pass 1  IDiag  1:
 RMSU=  2.49D-06    CP:  1.00D+00  1.15D+00  7.86D-01
 FoFJK:  IHMeth= 1 ICntrl=     0 DoSepK=T KAlg= 1 I1Cent= 0 FoldK=F
 E= -2905.42486879462     Delta-E=       -0.000000953500 Rises=F Damp=F
 DIIS: error= 1.46D-05 at cycle   4 NSaved=   4.
 NSaved= 4 IEnMin= 4 EnMin= -2905.42486879462     IErMin= 4 ErrMin= 1.46D-05
 ErrMax= 1.46D-05 EMaxC= 1.00D-01 BMatC= 7.78D-08 BMatP= 1.43D-06
 IDIUse=1 WtCom= 1.00D+00 WtEn= 0.00D+00
 Coeff-Com: -0.734D-03-0.216D-01 0.140D+00 0.882D+00
 Coeff:     -0.734D-03-0.216D-01 0.140D+00 0.882D+00
 Gap=     0.408 Goal=   None    Shift=    0.000
 RMSDP=1.77D-06 MaxDP=6.26D-05 DE=-9.54D-07 OVMax= 9.70D-05

 Cycle   5  Pass 1  IDiag  1:
 RMSU=  7.16D-07    CP:  1.00D+00  1.16D+00  8.96D-01  1.15D+00
 FoFJK:  IHMeth= 1 ICntrl=     0 DoSepK=T KAlg= 1 I1Cent= 0 FoldK=F
 E= -2905.42486885569     Delta-E=       -0.000000061070 Rises=F Damp=F
 DIIS: error= 1.05D-05 at cycle   5 NSaved=   5.
 NSaved= 5 IEnMin= 5 EnMin= -2905.42486885569     IErMin= 5 ErrMin= 1.05D-05
 ErrMax= 1.05D-05 EMaxC= 1.00D-01 BMatC= 2.64D-08 BMatP= 7.78D-08
 IDIUse=1 WtCom= 1.00D+00 WtEn= 0.00D+00
 Coeff-Com:  0.234D-03-0.565D-01 0.129D-01 0.466D+00 0.577D+00
 Coeff:      0.234D-03-0.565D-01 0.129D-01 0.466D+00 0.577D+00
 Gap=     0.408 Goal=   None    Shift=    0.000
 RMSDP=5.69D-07 MaxDP=2.66D-05 DE=-6.11D-08 OVMax= 3.78D-05

 Cycle   6  Pass 1  IDiag  1:
 RMSU=  2.48D-07    CP:  1.00D+00  1.16D+00  9.22D-01  1.23D+00  7.86D-01
 FoFJK:  IHMeth= 1 ICntrl=     0 DoSepK=T KAlg= 1 I1Cent= 0 FoldK=F
 E= -2905.42486887414     Delta-E=       -0.000000018457 Rises=F Damp=F
 DIIS: error= 1.74D-06 at cycle   6 NSaved=   6.
 NSaved= 6 IEnMin= 6 EnMin= -2905.42486887414     IErMin= 6 ErrMin= 1.74D-06
 ErrMax= 1.74D-06 EMaxC= 1.00D-01 BMatC= 1.06D-09 BMatP= 2.64D-08
 IDIUse=1 WtCom= 1.00D+00 WtEn= 0.00D+00
 Coeff-Com:  0.151D-03-0.196D-01-0.635D-02 0.959D-01 0.210D+00 0.720D+00
 Coeff:      0.151D-03-0.196D-01-0.635D-02 0.959D-01 0.210D+00 0.720D+00
 Gap=     0.408 Goal=   None    Shift=    0.000
 RMSDP=1.56D-07 MaxDP=4.83D-06 DE=-1.85D-08 OVMax= 9.67D-06

 Cycle   7  Pass 1  IDiag  1:
 RMSU=  6.32D-08    CP:  1.00D+00  1.16D+00  9.29D-01  1.25D+00  8.52D-01
                    CP:  9.83D-01
 FoFJK:  IHMeth= 1 ICntrl=     0 DoSepK=T KAlg= 1 I1Cent= 0 FoldK=F
 E= -2905.42486887521     Delta-E=       -0.000000001062 Rises=F Damp=F
 DIIS: error= 5.92D-07 at cycle   7 NSaved=   7.
 NSaved= 7 IEnMin= 7 EnMin= -2905.42486887521     IErMin= 7 ErrMin= 5.92D-07
 ErrMax= 5.92D-07 EMaxC= 1.00D-01 BMatC= 4.38D-11 BMatP= 1.06D-09
 IDIUse=1 WtCom= 1.00D+00 WtEn= 0.00D+00
 Coeff-Com: -0.292D-04 0.722D-02-0.641D-03-0.581D-01-0.761D-01-0.112D-01
 Coeff-Com:  0.114D+01
 Coeff:     -0.292D-04 0.722D-02-0.641D-03-0.581D-01-0.761D-01-0.112D-01
 Coeff:      0.114D+01
 Gap=     0.408 Goal=   None    Shift=    0.000
 RMSDP=6.96D-08 MaxDP=2.52D-06 DE=-1.06D-09 OVMax= 6.42D-06

 Cycle   8  Pass 1  IDiag  1:
 RMSU=  2.12D-08    CP:  1.00D+00  1.16D+00  9.31D-01  1.26D+00  8.76D-01
                    CP:  1.10D+00  1.25D+00
 FoFJK:  IHMeth= 1 ICntrl=     0 DoSepK=T KAlg= 1 I1Cent= 0 FoldK=F
 E= -2905.42486887532     Delta-E=       -0.000000000115 Rises=F Damp=F
 DIIS: error= 7.67D-08 at cycle   8 NSaved=   8.
 NSaved= 8 IEnMin= 8 EnMin= -2905.42486887532     IErMin= 8 ErrMin= 7.67D-08
 ErrMax= 7.67D-08 EMaxC= 1.00D-01 BMatC= 1.32D-12 BMatP= 4.38D-11
 IDIUse=1 WtCom= 1.00D+00 WtEn= 0.00D+00
 Coeff-Com: -0.569D-05 0.829D-03 0.130D-03-0.474D-02-0.839D-02-0.194D-01
 Coeff-Com:  0.355D-01 0.996D+00
 Coeff:     -0.569D-05 0.829D-03 0.130D-03-0.474D-02-0.839D-02-0.194D-01
 Coeff:      0.355D-01 0.996D+00
 Gap=     0.408 Goal=   None    Shift=    0.000
 RMSDP=1.27D-08 MaxDP=3.27D-07 DE=-1.15D-10 OVMax= 1.58D-06

 Cycle   9  Pass 1  IDiag  1:
 RMSU=  3.96D-09    CP:  1.00D+00  1.16D+00  9.31D-01  1.25D+00  8.74D-01
                    CP:  1.10D+00  1.30D+00  1.28D+00
 FoFJK:  IHMeth= 1 ICntrl=     0 DoSepK=T KAlg= 1 I1Cent= 0 FoldK=F
 E= -2905.42486887534     Delta-E=       -0.000000000017 Rises=F Damp=F
 DIIS: error= 3.30D-08 at cycle   9 NSaved=   9.
 NSaved= 9 IEnMin= 9 EnMin= -2905.42486887534     IErMin= 9 ErrMin= 3.30D-08
 ErrMax= 3.30D-08 EMaxC= 1.00D-01 BMatC= 2.10D-13 BMatP= 1.32D-12
 IDIUse=1 WtCom= 1.00D+00 WtEn= 0.00D+00
 Coeff-Com:  0.298D-05-0.772D-03 0.738D-04 0.639D-02 0.805D-02-0.941D-03
 Coeff-Com: -0.132D+00 0.113D+00 0.101D+01
 Coeff:      0.298D-05-0.772D-03 0.738D-04 0.639D-02 0.805D-02-0.941D-03
 Coeff:     -0.132D+00 0.113D+00 0.101D+01
 Gap=     0.408 Goal=   None    Shift=    0.000
 RMSDP=5.70D-09 MaxDP=1.55D-07 DE=-1.73D-11 OVMax= 7.58D-07

 SCF Done:  E(RwB97XD) =  -2905.42486888     A.U. after    9 cycles
             Convg  =    0.5704D-08             -V/T =  2.0016
 KE= 2.900928318438D+03 PE=-7.219865955788D+03 EE= 1.272347763387D+03
 Leave Link  502 at Thu Apr 16 09:21:17 2020, MaxMem= 1073741824 cpu:     222.8
 (Enter /home/matheus/.gaussian/g09/l108.exe)
 Variable Step   Value    
 -------- ---- -----------
     1       4    6.425069
 Leave Link  108 at Thu Apr 16 09:21:17 2020, MaxMem= 1073741824 cpu:       0.0
 (Enter /home/matheus/.gaussian/g09/l202.exe)
 ---------------------------------------------------------------------------------------------------
                            Z-MATRIX (ANGSTROMS AND DEGREES)
   CD    Cent   Atom    N1       Length/X        N2       Alpha/Y        N3        Beta/Z          J
 ---------------------------------------------------------------------------------------------------
      1      1  O        0   0.000000          0.000000          0.725000
      2      2  O        0   0.000000          0.000000         -0.725000
      3      3  H        0   0.459360          0.795635          1.023510
      4      4  H        0   0.000000          0.918721         -1.023510
      5      5  Kr       0   0.000000          3.400000          0.000000
[...]
 IDIUse=1 WtCom= 1.00D+00 WtEn= 0.00D+00
 Coeff-Com:  0.379D-02 0.996D+00
 Coeff:      0.379D-02 0.996D+00
 Gap=     0.406 Goal=   None    Shift=    0.000
 RMSDP=1.88D-06 MaxDP=5.19D-05 DE=-1.31D-06 OVMax= 1.21D-04

 Cycle   3  Pass 1  IDiag  1:
 RMSU=  9.50D-07    CP:  1.00D+00  1.09D+00
 FoFJK:  IHMeth= 1 ICntrl=     0 DoSepK=T KAlg= 1 I1Cent= 0 FoldK=F
 E= -2905.42484722592     Delta-E=       -0.000000054145 Rises=F Damp=F
 DIIS: error= 9.61D-06 at cycle   3 NSaved=   3.
 NSaved= 3 IEnMin= 3 EnMin= -2905.42484722592     IErMin= 3 ErrMin= 9.61D-06
 ErrMax= 9.61D-06 EMaxC= 1.00D-01 BMatC= 8.35D-09 BMatP= 4.77D-08
 IDIUse=1 WtCom= 1.00D+00 WtEn= 0.00D+00
 Coeff-Com: -0.693D-02 0.266D+00 0.741D+00
 Coeff:     -0.693D-02 0.266D+00 0.741D+00
 Gap=     0.406 Goal=   None    Shift=    0.000
 RMSDP=3.66D-07 MaxDP=1.23D-05 DE=-5.41D-08 OVMax= 4.04D-05

 Cycle   4  Pass 1  IDiag  1:
 RMSU=  2.29D-07    CP:  1.00D+00  1.10D+00  9.92D-01
 FoFJK:  IHMeth= 1 ICntrl=     0 DoSepK=T KAlg= 1 I1Cent= 0 FoldK=F
 E= -2905.42484723416     Delta-E=       -0.000000008240 Rises=F Damp=F
 DIIS: error= 1.28D-06 at cycle   4 NSaved=   4.
 NSaved= 4 IEnMin= 4 EnMin= -2905.42484723416     IErMin= 4 ErrMin= 1.28D-06
 ErrMax= 1.28D-06 EMaxC= 1.00D-01 BMatC= 3.86D-10 BMatP= 8.35D-09
 IDIUse=1 WtCom= 1.00D+00 WtEn= 0.00D+00
 Coeff-Com: -0.672D-03-0.272D-01 0.509D-01 0.977D+00
 Coeff:     -0.672D-03-0.272D-01 0.509D-01 0.977D+00
 Gap=     0.406 Goal=   None    Shift=    0.000
 RMSDP=1.92D-07 MaxDP=8.77D-06 DE=-8.24D-09 OVMax= 1.57D-05

 Cycle   5  Pass 1  IDiag  1:
 RMSU=  7.68D-08    CP:  1.00D+00  1.10D+00  1.09D+00  1.26D+00
 FoFJK:  IHMeth= 1 ICntrl=     0 DoSepK=T KAlg= 1 I1Cent= 0 FoldK=F
 E= -2905.42484723468     Delta-E=       -0.000000000526 Rises=F Damp=F
 DIIS: error= 1.16D-06 at cycle   5 NSaved=   5.
 NSaved= 5 IEnMin= 5 EnMin= -2905.42484723468     IErMin= 5 ErrMin= 1.16D-06
 ErrMax= 1.16D-06 EMaxC= 1.00D-01 BMatC= 2.45D-10 BMatP= 3.86D-10
 IDIUse=1 WtCom= 1.00D+00 WtEn= 0.00D+00
 Coeff-Com:  0.526D-03-0.489D-01-0.686D-01 0.526D+00 0.591D+00
 Coeff:      0.526D-03-0.489D-01-0.686D-01 0.526D+00 0.591D+00
 Gap=     0.406 Goal=   None    Shift=    0.000
 RMSDP=6.18D-08 MaxDP=2.73D-06 DE=-5.26D-10 OVMax= 4.63D-06

 Cycle   6  Pass 1  IDiag  1:
 RMSU=  2.61D-08    CP:  1.00D+00  1.11D+00  1.11D+00  1.37D+00  8.84D-01
 FoFJK:  IHMeth= 1 ICntrl=     0 DoSepK=T KAlg= 1 I1Cent= 0 FoldK=F
 E= -2905.42484723487     Delta-E=       -0.000000000186 Rises=F Damp=F
 DIIS: error= 2.26D-07 at cycle   6 NSaved=   6.
 NSaved= 6 IEnMin= 6 EnMin= -2905.42484723487     IErMin= 6 ErrMin= 2.26D-07
 ErrMax= 2.26D-07 EMaxC= 1.00D-01 BMatC= 9.64D-12 BMatP= 2.45D-10
 IDIUse=1 WtCom= 1.00D+00 WtEn= 0.00D+00
 Coeff-Com:  0.231D-03-0.142D-01-0.275D-01 0.105D+00 0.202D+00 0.734D+00
 Coeff:      0.231D-03-0.142D-01-0.275D-01 0.105D+00 0.202D+00 0.734D+00
 Gap=     0.406 Goal=   None    Shift=    0.000
 RMSDP=1.85D-08 MaxDP=8.76D-07 DE=-1.86D-10 OVMax= 1.43D-06

 Cycle   7  Pass 1  IDiag  1:
 RMSU=  8.87D-09    CP:  1.00D+00  1.11D+00  1.11D+00  1.40D+00  9.57D-01
                    CP:  1.10D+00
 FoFJK:  IHMeth= 1 ICntrl=     0 DoSepK=T KAlg= 1 I1Cent= 0 FoldK=F
 E= -2905.42484723487     Delta-E=       -0.000000000005 Rises=F Damp=F
 DIIS: error= 8.47D-08 at cycle   7 NSaved=   7.
 NSaved= 7 IEnMin= 7 EnMin= -2905.42484723487     IErMin= 7 ErrMin= 8.47D-08
 ErrMax= 8.47D-08 EMaxC= 1.00D-01 BMatC= 1.74D-12 BMatP= 9.64D-12
 IDIUse=1 WtCom= 1.00D+00 WtEn= 0.00D+00
 Coeff-Com: -0.155D-04 0.477D-02 0.286D-02-0.693D-01-0.424D-01 0.297D+00
 Coeff-Com:  0.807D+00
 Coeff:     -0.155D-04 0.477D-02 0.286D-02-0.693D-01-0.424D-01 0.297D+00
 Coeff:      0.807D+00
 Gap=     0.406 Goal=   None    Shift=    0.000
 RMSDP=9.94D-09 MaxDP=4.74D-07 DE=-5.46D-12 OVMax= 7.68D-07

 SCF Done:  E(RwB97XD) =  -2905.42484723     A.U. after    7 cycles
             Convg  =    0.9942D-08             -V/T =  2.0015
 KE= 2.900945490328D+03 PE=-7.152712225447D+03 EE= 1.239035443905D+03
 Leave Link  502 at Thu Apr 16 09:27:14 2020, MaxMem= 1073741824 cpu:     128.2
 (Enter /home/matheus/.gaussian/g09/l108.exe)
 Variable Step   Value    
 -------- ---- -----------
     1      20    9.448631
 Leave Link  108 at Thu Apr 16 09:27:14 2020, MaxMem= 1073741824 cpu:       0.0
 (Enter /home/matheus/.gaussian/g09/l202.exe)
 ---------------------------------------------------------------------------------------------------
                            Z-MATRIX (ANGSTROMS AND DEGREES)
   CD    Cent   Atom    N1       Length/X        N2       Alpha/Y        N3        Beta/Z          J
 ---------------------------------------------------------------------------------------------------
      1      1  O        0   0.000000          0.000000          0.725000
      2      2  O        0   0.000000          0.000000         -0.725000
      3      3  H        0   0.459360          0.795635          1.023510
      4      4  H        0   0.000000          0.918721         -1.023510
      5      5  Kr       0   0.000000          5.000000          0.000000
 ---------------------------------------------------------------------------------------------------
                         Z-Matrix orientation:                         
 ---------------------------------------------------------------------
 Center     Atomic      Atomic             Coordinates (Angstroms)
 Number     Number       Type             X           Y           Z
 ---------------------------------------------------------------------
      1          8           0        0.000000    0.000000    0.725000
      2          8           0        0.000000    0.000000   -0.725000
      3          1           0        0.459360    0.795635    1.023510
      4          1           0        0.000000    0.918721   -1.023510
      5         36           0        0.000000    5.000000    0.000000
 ---------------------------------------------------------------------
                    Distance matrix (angstroms):
                    1          2          3          4          5
     1  O    0.000000
     2  O    1.450000   0.000000
     3  H    0.966000   1.975180   0.000000
     4  H    1.975180   0.966000   2.101537   0.000000
     5  Kr   5.052289   5.052289   4.351467   4.207661   0.000000
 Stoichiometry    H2KrO2
 Framework group  C1[X(H2KrO2)]
 Deg. of freedom     9
 Full point group                 C1      NOp   1
 RotChk:  IX=0 Diff= 9.02D-05
 Largest Abelian subgroup         C1      NOp   1
 Largest concise Abelian subgroup C1      NOp   1
                         Standard orientation:                         
 ---------------------------------------------------------------------
 Center     Atomic      Atomic             Coordinates (Angstroms)
 Number     Number       Type             X           Y           Z
 ---------------------------------------------------------------------
      1          8           0        3.365349   -0.721703   -0.055068
      2          8           0        3.364686    0.726799    0.010824
      3          1           0        2.571729   -1.041290    0.393470
      4          1           0        2.445837    1.024411    0.028109
      5         36           0       -1.634940   -0.000663   -0.001879
 ---------------------------------------------------------------------
 Rotational constants (GHZ):     26.4122995      0.8503233      0.8243287
 Leave Link  202 at Thu Apr 16 09:27:14 2020, MaxMem= 1073741824 cpu:       0.0
 (Enter /home/matheus/.gaussian/g09/l301.exe)
 Standard basis: Aug-CC-pVTZ (5D, 7F)
 Ernie: Thresh=  0.10000D-02 Tol=  0.10000D-05 Strict=F.
 Ernie:  38 primitive shells out of 205 were deleted.
 There are   197 symmetry adapted basis functions of A   symmetry.
 Integral buffers will be    131072 words long.
 Raffenetti 2 integral format.
 Two-electron integral symmetry is turned on.
   197 basis functions,   415 primitive gaussians,   229 cartesian basis functions
    27 alpha electrons       27 beta electrons
       nuclear repulsion energy       105.8958042385 Hartrees.
 IExCor= 4639 DFT=T Ex+Corr=wB97XD ExCW=0 ScaHFX=  1.000000
 ScaDFX=  1.000000  1.000000  1.000000  1.000000 ScalE2=  1.000000  1.000000
 IRadAn=      5 IRanWt=     -1 IRanGd=            0 ICorTp=0
  HFx wShort=  0.000000 wLong=  0.250000 cFull=  0.222036 cShort=  0.000000 cLong=  0.777964
  DFx wShort=  0.000000 wLong=  0.250000 cFull=  0.000000 cShort=  0.000000 cLong=  1.000000
 NAtoms=    5 NActive=    5 NUniq=    5 SFac= 1.00D+00 NAtFMM=   60 NAOKFM=F Big=F
 R6Disp: Dispersion energy =        -0.0005189334 Hartrees.
 Nuclear repulsion after empirical dispersion term =      105.8952853051 Hartrees.
 Leave Link  301 at Thu Apr 16 09:27:14 2020, MaxMem= 1073741824 cpu:       0.2
 (Enter /home/matheus/.gaussian/g09/l302.exe)
 NPDir=0 NMtPBC=     1 NCelOv=     1 NCel=       1 NClECP=     1 NCelD=      1
         NCelK=      1 NCelE2=     1 NClLst=     1 CellRange=     0.0.
 One-electron integrals computed using PRISM.
 NBasis=   197 RedAO= T  NBF=   197
 NBsUse=   197 1.00D-06 NBFU=   197
 Precomputing XC quadrature grid using
 IXCGrd= 2 IRadAn=           5 IRanWt=          -1 IRanGd=           0 AccXCQ= 0.00D+00.
 NRdTot=     427 NPtTot=      123814 NUsed=      126881 NTot=      126913
 NSgBfM=   228   228   229   229   229 NAtAll=     5     5.
 Leave Link  302 at Thu Apr 16 09:27:14 2020, MaxMem= 1073741824 cpu:       1.0
 (Enter /home/matheus/.gaussian/g09/l303.exe)
 DipDrv:  MaxL=1.
 Leave Link  303 at Thu Apr 16 09:27:14 2020, MaxMem= 1073741824 cpu:       0.2
 (Enter /home/matheus/.gaussian/g09/l401.exe)
 Initial guess read from the read-write file.
 B after Tr=     0.000000    0.000000    0.000000
         Rot=    1.000000    0.000000    0.000000    0.000000 Ang=   0.00 deg.
 Guess basis will be translated and rotated to current coordinates.
 Initial guess orbital symmetries:
       Occupied  (A) (A) (A) (A) (A) (A) (A) (A) (A) (A) (A) (A)
                 (A) (A) (A) (A) (A) (A) (A) (A) (A) (A) (A) (A)
                 (A) (A) (A)
       Virtual   (A) (A) (A) (A) (A) (A) (A) (A) (A) (A) (A) (A)
                 (A) (A) (A) (A) (A) (A) (A) (A) (A) (A) (A) (A)
                 (A) (A) (A) (A) (A) (A) (A) (A) (A) (A) (A) (A)
                 (A) (A) (A) (A) (A) (A) (A) (A) (A) (A) (A) (A)
                 (A) (A) (A) (A) (A) (A) (A) (A) (A) (A) (A) (A)
                 (A) (A) (A) (A) (A) (A) (A) (A) (A) (A) (A) (A)
                 (A) (A) (A) (A) (A) (A) (A) (A) (A) (A) (A) (A)
                 (A) (A) (A) (A) (A) (A) (A) (A) (A) (A) (A) (A)
                 (A) (A) (A) (A) (A) (A) (A) (A) (A) (A) (A) (A)
                 (A) (A) (A) (A) (A) (A) (A) (A) (A) (A) (A) (A)
                 (A) (A) (A) (A) (A) (A) (A) (A) (A) (A) (A) (A)
                 (A) (A) (A) (A) (A) (A) (A) (A) (A) (A) (A) (A)
                 (A) (A) (A) (A) (A) (A) (A) (A) (A) (A) (A) (A)
                 (A) (A) (A) (A) (A) (A) (A) (A) (A) (A) (A) (A)
                 (A) (A)
 The electronic state of the initial guess is 1-A.
 Generating alternative initial guess.
 Harris functional with IExCor= 4639 diagonalized for initial guess.
 ExpMin= 2.53D-02 ExpMax= 1.17D+07 ExpMxC= 1.33D+04 IAcc=3 IRadAn=         5 AccDes= 0.00D+00
 HarFok:  IExCor= 4639 AccDes= 0.00D+00 IRadAn=         5 IDoV= 1
 ScaDFX=  1.000000  1.000000  1.000000  1.000000
 FoFCou: FMM=F IPFlag=           0 FMFlag=      100000 FMFlg1=           0
         NFxFlg=           0 DoJE=T BraDBF=F KetDBF=T FulRan=T
         Omega=  0.000000  0.000000  1.000000  0.000000  0.000000 ICntrl=     500 IOpCl=  0
         NMat0=    1 NMatS0=    1 NMatT0=    0 NMatD0=    1 NMtDS0=    0 NMtDT0=    0
         I1Cent=           4 NGrid=           0.
 Petite list used in FoFCou.
 Harris En= -2875.40214476162    
 Leave Link  401 at Thu Apr 16 09:27:15 2020, MaxMem= 1073741824 cpu:       3.8
 (Enter /home/matheus/.gaussian/g09/l502.exe)
 Closed shell SCF:
 Requested convergence on RMS density matrix=1.00D-08 within 128 cycles.
 Requested convergence on MAX density matrix=1.00D-06.
 Requested convergence on             energy=1.00D-06.
 No special actions if energy rises.
 Using DIIS extrapolation, IDIIS=  1040.
 Integral symmetry usage will be decided dynamically.
       126823 words used for storage of precomputed grid.
 IEnd=      305770 IEndB=      305770 NGot=  1073741824 MDV=  1073505365
 LenX=  1073505365 LenY=  1073452483
 Fock matrices will be formed incrementally for  20 cycles.

 Cycle   1  Pass 1  IDiag  1:
 FoFJK:  IHMeth= 1 ICntrl=     0 DoSepK=T KAlg= 1 I1Cent= 0 FoldK=F
 FoFCou: FMM=F IPFlag=           0 FMFlag=      100000 FMFlg1=           0
         NFxFlg=           0 DoJE=T BraDBF=F KetDBF=F FulRan=T
         Omega=  0.000000  0.000000  1.000000  0.000000  0.000000 ICntrl=     500 IOpCl=  0
         NMat0=    1 NMatS0=    1 NMatT0=    0 NMatD0=    1 NMtDS0=    0 NMtDT0=    0
         I1Cent=           0 NGrid=           0.
 Symmetry not used in FoFCou.
 E= -2905.42478105805    
 DIIS: error= 1.42D-04 at cycle   1 NSaved=   1.
 NSaved= 1 IEnMin= 1 EnMin= -2905.42478105805     IErMin= 1 ErrMin= 1.42D-04
 ErrMax= 1.42D-04 EMaxC= 1.00D-01 BMatC= 3.83D-06 BMatP= 3.83D-06
 IDIUse=3 WtCom= 9.99D-01 WtEn= 1.42D-03
 Coeff-Com:  0.100D+01
 Coeff-En:   0.100D+01
 Coeff:      0.100D+01
 Gap=     0.406 Goal=   None    Shift=    0.000
 RMSDP=1.30D-05 MaxDP=3.39D-04              OVMax= 5.26D-04

 Cycle   2  Pass 1  IDiag  1:
 RMSU=  9.16D-06    CP:  1.00D+00
 FoFJK:  IHMeth= 1 ICntrl=     0 DoSepK=T KAlg= 1 I1Cent= 0 FoldK=F
 E= -2905.42478214854     Delta-E=       -0.000001090492 Rises=F Damp=F
 DIIS: error= 2.17D-05 at cycle   2 NSaved=   2.
 NSaved= 2 IEnMin= 2 EnMin= -2905.42478214854     IErMin= 2 ErrMin= 2.17D-05
 ErrMax= 2.17D-05 EMaxC= 1.00D-01 BMatC= 4.01D-08 BMatP= 3.83D-06
 IDIUse=1 WtCom= 1.00D+00 WtEn= 0.00D+00
 Coeff-Com:  0.432D-02 0.996D+00
 Coeff:      0.432D-02 0.996D+00
 Gap=     0.406 Goal=   None    Shift=    0.000
 RMSDP=1.66D-06 MaxDP=4.45D-05 DE=-1.09D-06 OVMax= 1.10D-04

 Cycle   3  Pass 1  IDiag  1:
 RMSU=  8.89D-07    CP:  1.00D+00  1.08D+00
 FoFJK:  IHMeth= 1 ICntrl=     0 DoSepK=T KAlg= 1 I1Cent= 0 FoldK=F
 E= -2905.42478219277     Delta-E=       -0.000000044230 Rises=F Damp=F
 DIIS: error= 9.22D-06 at cycle   3 NSaved=   3.
 NSaved= 3 IEnMin= 3 EnMin= -2905.42478219277     IErMin= 3 ErrMin= 9.22D-06
 ErrMax= 9.22D-06 EMaxC= 1.00D-01 BMatC= 7.08D-09 BMatP= 4.01D-08
 IDIUse=1 WtCom= 1.00D+00 WtEn= 0.00D+00
 Coeff-Com: -0.648D-02 0.269D+00 0.737D+00
 Coeff:     -0.648D-02 0.269D+00 0.737D+00
 Gap=     0.406 Goal=   None    Shift=    0.000
 RMSDP=3.28D-07 MaxDP=1.07D-05 DE=-4.42D-08 OVMax= 3.62D-05

 Cycle   4  Pass 1  IDiag  1:
 RMSU=  2.09D-07    CP:  1.00D+00  1.09D+00  9.91D-01
 FoFJK:  IHMeth= 1 ICntrl=     0 DoSepK=T KAlg= 1 I1Cent= 0 FoldK=F
 E= -2905.42478219963     Delta-E=       -0.000000006858 Rises=F Damp=F
 DIIS: error= 1.20D-06 at cycle   4 NSaved=   4.
 NSaved= 4 IEnMin= 4 EnMin= -2905.42478219963     IErMin= 4 ErrMin= 1.20D-06
 ErrMax= 1.20D-06 EMaxC= 1.00D-01 BMatC= 2.89D-10 BMatP= 7.08D-09
 IDIUse=1 WtCom= 1.00D+00 WtEn= 0.00D+00
 Coeff-Com: -0.575D-03-0.280D-01 0.418D-01 0.987D+00
 Coeff:     -0.575D-03-0.280D-01 0.418D-01 0.987D+00
 Gap=     0.406 Goal=   None    Shift=    0.000
 RMSDP=1.77D-07 MaxDP=7.84D-06 DE=-6.86D-09 OVMax= 1.39D-05

 Cycle   5  Pass 1  IDiag  1:
 RMSU=  6.96D-08    CP:  1.00D+00  1.10D+00  1.09D+00  1.28D+00
 FoFJK:  IHMeth= 1 ICntrl=     0 DoSepK=T KAlg= 1 I1Cent= 0 FoldK=F
 E= -2905.42478220004     Delta-E=       -0.000000000410 Rises=F Damp=F
 DIIS: error= 9.08D-07 at cycle   5 NSaved=   5.
 NSaved= 5 IEnMin= 5 EnMin= -2905.42478220004     IErMin= 5 ErrMin= 9.08D-07
 ErrMax= 9.08D-07 EMaxC= 1.00D-01 BMatC= 1.67D-10 BMatP= 2.89D-10
 IDIUse=1 WtCom= 1.00D+00 WtEn= 0.00D+00
 Coeff-Com:  0.478D-03-0.468D-01-0.674D-01 0.511D+00 0.603D+00
 Coeff:      0.478D-03-0.468D-01-0.674D-01 0.511D+00 0.603D+00
 Gap=     0.406 Goal=   None    Shift=    0.000
 RMSDP=5.32D-08 MaxDP=2.40D-06 DE=-4.10D-10 OVMax= 3.97D-06

 Cycle   6  Pass 1  IDiag  1:
 RMSU=  2.42D-08    CP:  1.00D+00  1.10D+00  1.11D+00  1.38D+00  9.25D-01
 FoFJK:  IHMeth= 1 ICntrl=     0 DoSepK=T KAlg= 1 I1Cent= 0 FoldK=F
 E= -2905.42478220019     Delta-E=       -0.000000000143 Rises=F Damp=F
 DIIS: error= 2.19D-07 at cycle   6 NSaved=   6.
 NSaved= 6 IEnMin= 6 EnMin= -2905.42478220019     IErMin= 6 ErrMin= 2.19D-07
 ErrMax= 2.19D-07 EMaxC= 1.00D-01 BMatC= 8.02D-12 BMatP= 1.67D-10
 IDIUse=1 WtCom= 1.00D+00 WtEn= 0.00D+00
 Coeff-Com:  0.217D-03-0.142D-01-0.276D-01 0.107D+00 0.217D+00 0.718D+00
 Coeff:      0.217D-03-0.142D-01-0.276D-01 0.107D+00 0.217D+00 0.718D+00
 Gap=     0.406 Goal=   None    Shift=    0.000
 RMSDP=1.66D-08 MaxDP=7.87D-07 DE=-1.43D-10 OVMax= 1.24D-06

 Cycle   7  Pass 1  IDiag  1:
 RMSU=  7.90D-09    CP:  1.00D+00  1.10D+00  1.11D+00  1.40D+00  1.00D+00
                    CP:  1.12D+00
 FoFJK:  IHMeth= 1 ICntrl=     0 DoSepK=T KAlg= 1 I1Cent= 0 FoldK=F
 E= -2905.42478220020     Delta-E=       -0.000000000011 Rises=F Damp=F
 DIIS: error= 7.12D-08 at cycle   7 NSaved=   7.
 NSaved= 7 IEnMin= 7 EnMin= -2905.42478220020     IErMin= 7 ErrMin= 7.12D-08
 ErrMax= 7.12D-08 EMaxC= 1.00D-01 BMatC= 1.50D-12 BMatP= 8.02D-12
 IDIUse=1 WtCom= 1.00D+00 WtEn= 0.00D+00
 Coeff-Com: -0.133D-04 0.464D-02 0.292D-02-0.699D-01-0.428D-01 0.303D+00
 Coeff-Com:  0.802D+00
 Coeff:     -0.133D-04 0.464D-02 0.292D-02-0.699D-01-0.428D-01 0.303D+00
 Coeff:      0.802D+00
 Gap=     0.406 Goal=   None    Shift=    0.000
 RMSDP=9.23D-09 MaxDP=4.50D-07 DE=-1.09D-11 OVMax= 7.02D-07

 SCF Done:  E(RwB97XD) =  -2905.42478220     A.U. after    7 cycles
             Convg  =    0.9226D-08             -V/T =  2.0015
 KE= 2.900946031789D+03 PE=-7.149910691146D+03 EE= 1.237644591852D+03
 Leave Link  502 at Thu Apr 16 09:27:31 2020, MaxMem= 1073741824 cpu:     126.6
 (Enter /home/matheus/.gaussian/g09/l108.exe)
 Scan completed.

 Summary of the potential surface scan:
   N      R1          SCF    
 ----  ---------  -----------
    1     3.0000  -2905.41992
    2     3.1000  -2905.42229
    3     3.2000  -2905.42386
    4     3.3000  -2905.42487
    5     3.4000  -2905.42549
    6     3.5000  -2905.42584
    7     3.6000  -2905.42600
    8     3.7000  -2905.42605
    9     3.8000  -2905.42601
   10     3.9000  -2905.42592
   11     4.0000  -2905.42580
   12     4.1000  -2905.42568
   13     4.2000  -2905.42555
   14     4.3000  -2905.42542
   15     4.4000  -2905.42530
   16     4.5000  -2905.42519
   17     4.6000  -2905.42509
   18     4.7000  -2905.42500
   19     4.8000  -2905.42492
   20     4.9000  -2905.42485
   21     5.0000  -2905.42478
 ----  ---------  -----------
  
 Leave Link  108 at Thu Apr 16 09:27:31 2020, MaxMem= 1073741824 cpu:       0.0
 (Enter /home/matheus/.gaussian/g09/l9999.exe)

 Test job not archived.
 1\1\GINC-REDGIANT\Scan\RwB97XD\Aug-CC-pVTZ\H2Kr1O2\ROOT\16-Apr-2020\1\
 \#p wb97xd/aug-cc-PVTz iop(3/107=0250000000) iop(3/108=0250000000) int
 =ultrafine Scan\\TCC\\0,1\O,0,0.,0.,0.725\O,0,0.,0.,-0.725\H,0,0.45936
 02974,0.795635374,1.0235104166\H,0,0.,0.9187205947,-1.0235104166\Kr,0,
 0.,R1,0.\\R1=3.,s,20,0.1\\Version=EM64L-G09RevC.01\State=1-A\HF=-2905.
 4199175,-2905.4222899,-2905.4238568,-2905.4248689,-2905.4254898,-2905.
 4258408,-2905.4260042,-2905.4260454,-2905.4260077,-2905.4259208,-2905.
 4258047,-2905.4256778,-2905.4255492,-2905.4254213,-2905.4253039,-2905.
 4251943,-2905.4250929,-2905.4250014,-2905.4249204,-2905.4248472,-2905.
 4247822\RMSD=4.821e-09,2.554e-09,7.704e-09,5.704e-09,4.139e-09,3.012e-
 09,9.960e-09,8.565e-09,7.174e-09,6.301e-09,5.251e-09,4.551e-09,3.913e-
 09,3.086e-09,2.416e-09,2.004e-09,1.592e-09,1.436e-09,1.353e-09,9.942e-
 09,9.226e-09\PG=C01 [X(H2Kr1O2)]\\@


 SACRED COWS MAKE GREAT HAMBURGERS -- ROBERT REISNER
 Job cpu time:  0 days  1 hours  6 minutes 40.4 seconds.
 File lengths (MBytes):  RWF=     27 Int=      0 D2E=      0 Chk=      4 Scr=      1
 Normal termination of Gaussian 09 at Thu Apr 16 09:27:31 2020.
